Title
81378
    1CHL1    C3    1   1.096   2.069  10.343  0.5818 -0.4807 -0.0709
    1CHL1    H3    2   1.199   2.104  10.321  0.0331  0.1533 -1.8305
    1CHL1    O3    3   1.043   2.120  10.467 -0.1889  0.0890 -0.0212
    1CHL1   H3'    4   0.953   2.090  10.475 -0.5532  0.7157 -1.4519
    1CHL1    C4    5   1.011   2.115  10.224  0.6064  0.1066  0.1750
    1CHL1   H4A    6   0.908   2.080  10.246  0.0018  1.6088 -0.1457
    1CHL1   H4B    7   1.010   2.226  10.233  1.7305  0.0338  1.7503
    1CHL1    C5    8   1.051   2.057  10.090  0.3298 -0.0913  0.1970
    1CHL1    C6    9   1.080   2.136   9.982 -0.1148  0.9277 -0.5777
    1CHL1    H6   10   1.066   2.243  10.004  0.0479  0.6561  0.9464
    1CHL1    C7   11   1.122   2.095   9.849  0.8838  0.1546  0.4928
    1CHL1   H7A   12   1.056   2.146   9.777 -0.0248  0.0553  1.2392
    1CHL1   H7B   13   1.229   2.122   9.831  1.3867 -0.8256  1.7836
    1CHL1    C8   14   1.101   1.945   9.836 -0.4075  0.4444  0.0478
    1CHL1    H8   15   0.993   1.929   9.815 -0.0988 -0.8462 -0.6814
    1CHL1   C14   16   1.183   1.905   9.711 -0.2457 -0.3540  0.0213
    1CHL1   H14   17   1.289   1.924   9.737 -0.1973  1.8271 -1.4681
    1CHL1   C15   18   1.178   1.995   9.587 -0.1520 -0.3771 -0.1957
    1CHL1  H15A   19   1.076   2.034   9.566 -0.2218  0.2275  1.1763
    1CHL1  H15B   20   1.244   2.085   9.581  0.0748 -0.6220 -2.0641
    1CHL1   C16   21   1.206   1.893   9.472 -0.6450 -0.2410 -0.2922
    1CHL1  H16A   22   1.114   1.890   9.410 -0.5416 -0.1261 -0.4506
    1CHL1  H16B   23   1.292   1.937   9.418  0.3828  2.1316  2.9671
    1CHL1   C17   24   1.239   1.761   9.541  0.3963 -0.4754  0.2857
    1CHL1   H17   25   1.342   1.782   9.578 -0.5149  2.5560  1.4454
    1CHL1   C13   26   1.160   1.760   9.670 -0.0845 -0.6727  0.3063
    1CHL1   C18   27   1.014   1.736   9.632 -0.3477 -0.1801  0.2017
    1CHL1  H18A   28   0.941   1.729   9.715  0.1974 -2.5730  0.5550
    1CHL1  H18B   29   0.978   1.819   9.567 -1.0116  1.2797  2.3370
    1CHL1  H18C   30   1.010   1.649   9.561  1.5183 -0.9207  0.9427
    1CHL1   C12   31   1.219   1.672   9.786  0.8841 -0.5910  0.0227
    1CHL1  H12A   32   1.202   1.563   9.769 -0.1593 -0.7190  1.7001
    1CHL1  H12B   33   1.320   1.708   9.811  0.5852  1.0095 -0.9194
    1CHL1   C11   34   1.148   1.705   9.921 -0.0242 -0.2173  0.4055
    1CHL1  H11A   35   1.039   1.681   9.914 -0.2985  1.0039  0.0928
    1CHL1  H11B   36   1.195   1.656  10.008  0.7271  0.3701  0.3335
    1CHL1    C9   37   1.149   1.865   9.962 -0.5049  0.3446  0.7832
    1CHL1    H9   38   1.257   1.886   9.978  0.2067 -0.7579 -1.9934
    1CHL1   C10   39   1.072   1.905  10.091 -0.1628 -0.7389 -0.2269
    1CHL1   C19   40   0.928   1.840  10.092  0.1743 -0.1645 -0.1651
    1CHL1  H19A   41   0.863   1.865  10.179  0.7109  1.8491 -0.2757
    1CHL1  H19B   42   0.870   1.880  10.006  1.4329 -0.4118 -1.1544
    1CHL1  H19C   43   0.935   1.730  10.096  2.2467 -0.0571  2.4853
    1CHL1    C1   44   1.155   1.851  10.217 -0.3144 -0.0237  1.1194
    1CHL1   H1A   45   1.144   1.741  10.224  0.4321 -0.0796  1.5389
    1CHL1   H1B   46   1.260   1.882  10.199  0.5840 -1.8701  2.7343
    1CHL1    C2   47   1.105   1.916  10.352 -0.1400 -0.3960  0.0304
    1CHL1   H2A   48   1.177   1.899  10.434  1.1339  0.8114 -0.7959
    1CHL1   H2B   49   1.010   1.870  10.387  0.0508  1.4952  3.3959
    1CHL1   C20   50   1.245   1.633   9.451  0.3009 -0.1951 -0.5936
    1CHL1   H20   51   1.216   1.544   9.511  0.4659  1.1891  1.6435
    1CHL1   C21   52   1.393   1.609   9.418 -0.1054  0.0333  0.1115
    1CHL1  H21A   53   1.451   1.586   9.510 -2.8409  1.2542  2.3028
    1CHL1  H21B   54   1.446   1.688   9.361 -1.2375 -0.7407 -2.1247
    1CHL1  H21C   55   1.417   1.514   9.366 -0.4874  0.3568 -0.6733
    1CHL1   C22   56   1.169   1.633   9.320  0.3452  0.4317  0.2721
    1CHL1  H22A   57   1.069   1.679   9.333  0.6375  0.9209  0.8153
    1CHL1  H22B   58   1.225   1.684   9.239  0.8450  0.6035  0.7212
    1CHL1   C23   59   1.140   1.496   9.258  0.3384 -0.5197  0.3323
    1CHL1  H23A   60   1.234   1.446   9.226 -0.4650 -1.7818 -0.1429
    1CHL1  H23B   61   1.104   1.432   9.342 -0.2995  0.8834  1.1595
    1CHL1   C24   62   1.035   1.493   9.133 -1.0491 -0.0961  0.3939
    1CHL1  H24A   63   1.022   1.389   9.099  0.2400 -0.1147 -0.1005
    1CHL1  H24B   64   0.936   1.525   9.172 -1.0742 -1.0832  1.1652
    1CHL1   C25   65   1.077   1.589   9.017 -0.8324 -0.7923  0.4950
    1CHL1   H25   66   1.084   1.694   9.053  3.2511 -1.6348  2.6734
    1CHL1   C26   67   1.220   1.551   8.958 -0.3902  0.2248 -0.1507
    1CHL1  H26A   68   1.224   1.440   8.950 -0.0827  0.3679 -3.9840
    1CHL1  H26B   69   1.244   1.585   8.855  0.7856  0.7127  0.2719
    1CHL1  H26C   70   1.303   1.579   9.027 -1.2361 -2.6362  2.2242
    1CHL1   C27   71   0.964   1.565   8.911  0.6928  0.2730  0.1499
    1CHL1  H27A   72   0.861   1.574   8.951  0.1365  0.7500 -1.3227
    1CHL1  H27B   73   0.974   1.644   8.834 -0.4173 -0.6690 -1.0179
    1CHL1  H27C   74   0.965   1.466   8.860  1.0449 -0.8729  2.2644
    2CHL1    C3   75   2.508   4.476  10.017  0.0222  0.4162 -0.3964
    2CHL1    H3   76   2.610   4.508   9.988  0.1839 -0.2447 -0.5844
    2CHL1    O3   77   2.483   4.493  10.149  0.3983  0.1117 -0.1532
    2CHL1   H3'   78   2.390   4.473  10.158  0.1515  1.1126 -0.3182
    2CHL1    C4   79   2.419   4.570   9.939  0.2343  0.1715 -0.4312
    2CHL1   H4A   80   2.314   4.552   9.971  0.0576 -2.0032 -2.0056
    2CHL1   H4B   81   2.445   4.672   9.974 -0.9937  0.4182 -0.1984
    2CHL1    C5   82   2.438   4.536   9.795  0.4997  1.0706  1.1766
    2CHL1    C6   83   2.485   4.628   9.710  0.0747 -0.3185 -0.2294
    2CHL1    H6   84   2.510   4.726   9.753  3.1140 -1.2287  0.2458
    2CHL1    C7   85   2.513   4.603   9.557  0.6980  0.4702  0.7418
    2CHL1   H7A   86   2.487   4.688   9.490 -0.8683 -0.9615 -0.5657
    2CHL1   H7B   87   2.622   4.593   9.537  0.5553 -0.5846  0.4613
    2CHL1    C8   88   2.440   4.482   9.504  0.0834  0.3425 -0.3395
    2CHL1    H8   89   2.332   4.509   9.499  0.2870  1.5782  1.2247
    2CHL1   C14   90   2.492   4.445   9.361 -0.0527 -0.4184 -0.4356
    2CHL1   H14   91   2.600   4.423   9.372 -0.1538 -0.7725 -0.1329
    2CHL1   C15   92   2.484   4.558   9.252 -0.4289 -1.2646  0.2557
    2CHL1  H15A   93   2.380   4.598   9.248 -0.8422 -2.4059 -1.5476
    2CHL1  H15B   94   2.566   4.633   9.258 -0.1530 -1.2777 -2.1874
    2CHL1   C16   95   2.513   4.477   9.124 -0.5472 -0.1327  0.5573
    2CHL1  H16A   96   2.420   4.475   9.063  0.8335 -0.8916 -1.6213
    2CHL1  H16B   97   2.607   4.499   9.069 -1.9434 -1.2903 -2.5496
    2CHL1   C17   98   2.524   4.321   9.163 -0.0142 -1.0866 -0.1385
    2CHL1   H17   99   2.632   4.298   9.174 -0.1806 -1.3625  1.1032
    2CHL1   C13  100   2.447   4.315   9.300  0.2410  0.0228  0.3712
    2CHL1   C18  101   2.290   4.318   9.274 -0.1530 -0.5974  0.4712
    2CHL1  H18A  102   2.260   4.416   9.232  0.9001  0.8567  2.9269
    2CHL1  H18B  103   2.259   4.230   9.213 -0.1287 -0.1627 -0.1712
    2CHL1  H18C  104   2.226   4.310   9.364 -1.1026 -3.4721 -0.3467
    2CHL1   C12  105   2.479   4.198   9.396  0.0555  0.0026  0.3855
    2CHL1  H12A  106   2.448   4.101   9.351  0.0760  0.5382 -0.8396
    2CHL1  H12B  107   2.588   4.191   9.419  0.2028 -0.5478 -0.4104
    2CHL1   C11  108   2.417   4.226   9.535  0.6960  0.0545 -0.2678
    2CHL1  H11A  109   2.307   4.222   9.524  0.7696  0.1545 -1.0367
    2CHL1  H11B  110   2.452   4.154   9.612  0.2483  0.5589  0.4220
    2CHL1    C9  111   2.454   4.361   9.599 -0.7394 -0.0583  0.6599
    2CHL1    H9  112   2.563   4.354   9.620 -0.3613  0.5545 -0.9949
    2CHL1   C10  113   2.410   4.392   9.743 -0.2673 -0.6215 -0.8124
    2CHL1   C19  114   2.254   4.379   9.738  0.2801 -0.5185 -0.4087
    2CHL1  H19A  115   2.227   4.274   9.711 -0.2890 -0.5519  0.2528
    2CHL1  H19B  116   2.221   4.397   9.843 -0.3503  4.2079 -1.2006
    2CHL1  H19C  117   2.195   4.444   9.670  0.5623 -0.9165 -1.0455
    2CHL1    C1  118   2.475   4.286   9.843 -0.5079 -0.6824  0.3828
    2CHL1   H1A  119   2.440   4.182   9.825 -0.6466 -0.5893  0.1139
    2CHL1   H1B  120   2.584   4.281   9.819 -0.3627  3.0846 -0.2815
    2CHL1    C2  121   2.466   4.328   9.990 -0.5580  0.6276 -0.7530
    2CHL1   H2A  122   2.518   4.253  10.054 -1.5535  0.6043  0.0589
    2CHL1   H2B  123   2.357   4.318  10.008 -0.4965 -0.5821 -0.9726
    2CHL1   C20  124   2.491   4.224   9.056  0.0049 -0.0966  0.8703
    2CHL1   H20  125   2.381   4.240   9.043 -0.4114 -3.5940 -0.9826
    2CHL1   C21  126   2.520   4.075   9.099  0.3953  0.2707  1.3808
    2CHL1  H21A  127   2.462   4.026   9.180 -1.1341  0.6162  0.5486
    2CHL1  H21B  128   2.629   4.077   9.118  0.9561 -1.0383 -1.2658
    2CHL1  H21C  129   2.511   4.009   9.010  2.2572 -0.2144  1.5275
    2CHL1   C22  130   2.562   4.247   8.912 -0.6268  0.4220 -0.0993
    2CHL1  H22A  131   2.509   4.179   8.841  0.6992 -1.2292  0.4451
    2CHL1  H22B  132   2.528   4.346   8.874 -4.1778 -0.5359  0.1532
    2CHL1   C23  133   2.710   4.225   8.919 -0.1727  0.6067  0.8941
    2CHL1  H23A  134   2.753   4.304   8.984  1.3044  3.0871 -2.7663
    2CHL1  H23B  135   2.740   4.124   8.955  0.7743  0.8570  0.8356
    2CHL1   C24  136   2.784   4.255   8.783 -0.6076 -0.4148  0.0098
    2CHL1  H24A  137   2.748   4.188   8.702 -1.1742 -0.3848  0.2318
    2CHL1  H24B  138   2.767   4.359   8.749  2.4155 -0.0795 -0.8059
    2CHL1   C25  139   2.930   4.245   8.801  0.2268 -0.0141 -0.3723
    2CHL1   H25  140   2.965   4.322   8.872  0.9575  0.2509 -1.0000
    2CHL1   C26  141   2.974   4.106   8.848  0.7844 -0.4564 -0.4837
    2CHL1  H26A  142   3.084   4.115   8.839  0.6375  2.1457 -0.3966
    2CHL1  H26B  143   2.944   4.099   8.954  0.7291 -1.0485 -0.5365
    2CHL1  H26C  144   2.937   4.024   8.782  0.4270 -1.6232  1.1147
    2CHL1   C27  145   2.996   4.289   8.665 -0.0184  0.9131 -0.0054
    2CHL1  H27A  146   2.987   4.201   8.598 -0.0350  1.0658 -0.2030
    2CHL1  H27B  147   2.950   4.380   8.622  0.8748  1.4413  0.1351
    2CHL1  H27C  148   3.104   4.310   8.680 -0.2742  0.1992  3.7748
    3CHL1    C3  149   3.156   4.243  10.305 -0.1554  0.1349  0.3834
    3CHL1    H3  150   3.158   4.353  10.294 -1.4964  0.0486 -1.0177
    3CHL1    O3  151   3.149   4.211  10.449  0.5051  0.2593  0.4425
    3CHL1   H3'  152   3.201   4.130  10.447 -1.1784 -1.2752  4.8622
    3CHL1    C4  153   3.041   4.180  10.244 -0.7572  0.1528  0.6209
    3CHL1   H4A  154   3.042   4.070  10.258  0.7123  0.2755  1.7216
    3CHL1   H4B  155   2.950   4.212  10.301 -1.7844  1.7408 -1.7390
    3CHL1    C5  156   3.036   4.197  10.094 -0.0613 -0.4582 -0.3693
    3CHL1    C6  157   2.922   4.245  10.042  0.5205 -0.6669  0.0602
    3CHL1    H6  158   2.838   4.248  10.114  1.1213  0.8383  0.7468
    3CHL1    C7  159   2.896   4.268   9.896 -0.0715  0.0729  0.6795
    3CHL1   H7A  160   2.794   4.228   9.874 -1.3083  2.1214  2.2365
    3CHL1   H7B  161   2.893   4.378   9.882 -0.1584 -0.0358 -0.1675
    3CHL1    C8  162   3.013   4.214   9.804  0.7428 -0.1284 -0.4983
    3CHL1    H8  163   2.997   4.104   9.795  1.3682 -0.4220  1.4065
    3CHL1   C14  164   3.019   4.287   9.674  0.7722  0.1046 -0.7646
    3CHL1   H14  165   3.043   4.393   9.697 -2.0911  0.9583 -1.3113
    3CHL1   C15  166   2.891   4.293   9.600 -0.1807  0.2679 -0.2048
    3CHL1  H15A  167   2.826   4.203   9.614 -0.9035  0.2114 -3.2015
    3CHL1  H15B  168   2.833   4.382   9.633 -0.1867 -0.5536  2.1552
    3CHL1   C16  169   2.925   4.303   9.454  0.3160  0.5980 -0.3674
    3CHL1  H16A  170   2.884   4.220   9.391 -2.3026  2.5503 -1.4741
    3CHL1  H16B  171   2.882   4.394   9.408 -0.2922 -0.2371 -1.5250
    3CHL1   C17  172   3.083   4.308   9.451 -0.6376 -0.1792  0.0668
    3CHL1   H17  173   3.115   4.413   9.469  0.0893 -0.3800 -0.0242
    3CHL1   C13  174   3.126   4.236   9.580  0.0658  0.2252  0.3364
    3CHL1   C18  175   3.109   4.081   9.554  0.0625 -0.0251 -0.3607
    3CHL1  H18A  176   3.187   4.040   9.486  0.5968 -0.4208  0.4784
    3CHL1  H18B  177   3.121   4.031   9.652  0.1112  3.0819  1.3546
    3CHL1  H18C  178   3.008   4.061   9.512  0.4166  0.2578 -1.3794
    3CHL1   C12  179   3.262   4.265   9.646 -0.1000 -0.1981 -0.2023
    3CHL1  H12A  180   3.338   4.224   9.576 -0.9417 -0.3671 -1.0422
    3CHL1  H12B  181   3.285   4.373   9.636  0.0242 -0.2366 -0.3498
    3CHL1   C11  182   3.282   4.209   9.792  0.2428 -0.0164  0.0136
    3CHL1  H11A  183   3.297   4.100   9.781 -1.0093 -0.4888  2.2002
    3CHL1  H11B  184   3.366   4.259   9.844 -0.4302  0.8931  0.2681
    3CHL1    C9  185   3.153   4.239   9.876  0.3221 -0.3630  0.6707
    3CHL1    H9  186   3.161   4.349   9.888  3.1156 -0.0770 -2.4286
    3CHL1   C10  187   3.161   4.179  10.018 -0.2700 -0.3637 -0.8843
    3CHL1   C19  188   3.176   4.035  10.004  0.2557 -0.0040 -0.0438
    3CHL1  H19A  189   3.109   3.983   9.933  1.9067 -0.4846 -1.3116
    3CHL1  H19B  190   3.279   4.013   9.968  0.6044  0.4721  0.6096
    3CHL1  H19C  191   3.168   3.977  10.099 -0.4982  3.3982  2.1521
    3CHL1    C1  192   3.280   4.235  10.091 -0.5679  0.5748  0.4834
    3CHL1   H1A  193   3.371   4.195  10.043 -1.1204  0.7186 -0.7135
    3CHL1   H1B  194   3.286   4.345  10.077  1.7638  0.4089 -0.2362
    3CHL1    C2  195   3.292   4.198  10.240 -0.7991 -0.3491  0.0501
    3CHL1   H2A  196   3.375   4.252  10.290 -0.8745  0.1315 -0.3378
    3CHL1   H2B  197   3.304   4.089  10.257 -1.8876 -0.4231  0.3700
    3CHL1   C20  198   3.140   4.265   9.321 -0.2112  0.4322  1.2259
    3CHL1   H20  199   3.131   4.157   9.294  0.3495  0.5986  0.3512
    3CHL1   C21  200   3.295   4.299   9.310 -0.0383  0.4806 -0.0454
    3CHL1  H21A  201   3.336   4.282   9.208  0.6809 -0.3057  0.3636
    3CHL1  H21B  202   3.359   4.231   9.371 -0.2024 -0.7565 -1.2032
    3CHL1  H21C  203   3.320   4.402   9.343  1.2112  1.0169 -2.3859
    3CHL1   C22  204   3.079   4.341   9.196 -0.0040  0.1670 -0.7557
    3CHL1  H22A  205   3.138   4.318   9.104 -1.2861  1.5699 -1.9930
    3CHL1  H22B  206   2.971   4.316   9.184 -0.0937 -0.1017  0.4937
    3CHL1   C23  207   3.083   4.490   9.212 -0.3976  0.2941  0.3676
    3CHL1  H23A  208   3.022   4.520   9.300 -1.0446  1.3450 -0.4109
    3CHL1  H23B  209   3.186   4.521   9.240  1.1790 -4.4095  0.6655
    3CHL1   C24  210   3.046   4.568   9.091  0.1111  0.2896  0.5808
    3CHL1  H24A  211   3.083   4.671   9.106  0.5175  0.0570  1.1894
    3CHL1  H24B  212   3.095   4.530   8.999  2.5276  0.1640  1.8353
    3CHL1   C25  213   2.888   4.586   9.066 -0.1814 -0.0943 -0.7737
    3CHL1   H25  214   2.831   4.494   9.088 -0.8088  0.4046 -0.2464
    3CHL1   C26  215   2.829   4.707   9.154  0.2525  0.0884  0.5014
    3CHL1  H26A  216   2.832   4.679   9.262 -0.3632  1.2952  0.8581
    3CHL1  H26B  217   2.882   4.804   9.170  0.2212  0.0196  1.0471
    3CHL1  H26C  218   2.726   4.736   9.122  1.1170  2.4277 -0.4382
    3CHL1   C27  219   2.866   4.612   8.916 -0.2744 -0.1606  0.3691
    3CHL1  H27A  220   2.904   4.528   8.855 -0.4224  0.1411 -0.1450
    3CHL1  H27B  221   2.759   4.629   8.890 -0.8628 -0.6767  2.2660
    3CHL1  H27C  222   2.914   4.707   8.885 -1.0204  0.6299  1.5144
    4CHL1    C3  223   1.274   6.445  10.466  0.3892 -0.4000 -0.1152
    4CHL1    H3  224   1.379   6.481  10.465  0.3160 -0.1457  0.7107
    4CHL1    O3  225   1.242   6.419  10.601 -0.7393  0.1270 -0.5310
    4CHL1   H3'  226   1.280   6.490  10.653 -0.8839 -1.5289  1.9854
    4CHL1    C4  227   1.178   6.557  10.420  0.6853  0.3074  0.4631
    4CHL1   H4A  228   1.071   6.528  10.429  0.1444  2.3953  1.6743
    4CHL1   H4B  229   1.207   6.641  10.487 -0.3815  0.9936  0.0977
    4CHL1    C5  230   1.220   6.590  10.279  0.2848  0.3554  0.3676
    4CHL1    C6  231   1.271   6.710  10.251 -0.4759  0.2816  0.1417
    4CHL1    H6  232   1.269   6.787  10.329  1.2402  0.1216  0.3799
    4CHL1    C7  233   1.307   6.750  10.115 -0.6115  0.6122  0.6072
    4CHL1   H7A  234   1.290   6.859  10.100  3.2234  1.2243 -0.3984
    4CHL1   H7B  235   1.418   6.745  10.108 -0.6551 -1.8751  0.8488
    4CHL1    C8  236   1.255   6.656  10.010 -0.0404  0.0174  0.9211
    4CHL1    H8  237   1.146   6.672   9.995  0.2907  1.4150 -0.1366
    4CHL1   C14  238   1.321   6.688   9.877  0.4744  1.3106 -0.1208
    4CHL1   H14  239   1.428   6.670   9.899  0.9216  4.1379  0.4463
    4CHL1   C15  240   1.319   6.828   9.833 -0.2333 -0.5606  0.2660
    4CHL1  H15A  241   1.217   6.869   9.852 -0.1738 -0.5785  0.6426
    4CHL1  H15B  242   1.385   6.903   9.881  0.1683  0.2728 -1.5177
    4CHL1   C16  243   1.347   6.827   9.683 -0.2458 -0.0706 -0.0221
    4CHL1  H16A  244   1.258   6.860   9.626 -1.1461 -1.7210  0.3677
    4CHL1  H16B  245   1.433   6.892   9.656 -0.1483 -0.8158 -1.5824
    4CHL1   C17  246   1.360   6.677   9.647 -0.3821 -0.2027 -0.6459
    4CHL1   H17  247   1.465   6.649   9.664 -0.6714 -0.3042  1.1559
    4CHL1   C13  248   1.278   6.606   9.756 -0.7557 -0.2038 -0.6995
    4CHL1   C18  249   1.134   6.626   9.719 -0.0237  0.8619  0.0535
    4CHL1  H18A  250   1.099   6.561   9.635  1.9320 -0.6773  0.3529
    4CHL1  H18B  251   1.070   6.605   9.807  0.2869  0.0480  0.0924
    4CHL1  H18C  252   1.110   6.727   9.681 -0.2091  0.5142 -0.7910
    4CHL1   C12  253   1.319   6.458   9.793 -0.6310 -0.5711  0.2331
    4CHL1  H12A  254   1.299   6.382   9.715 -0.4536 -1.3754  0.9686
    4CHL1  H12B  255   1.430   6.461   9.800 -0.5375 -2.0552 -0.3080
    4CHL1   C11  256   1.250   6.412   9.924  0.2000  0.1448  0.6133
    4CHL1  H11A  257   1.144   6.403   9.893  0.5838 -0.4908 -0.5804
    4CHL1  H11B  258   1.285   6.312   9.955  2.5785  1.2160  1.6289
    4CHL1    C9  259   1.280   6.512  10.044  0.5111  0.2012  0.0478
    4CHL1    H9  260   1.391   6.505  10.054  0.5022 -0.1613 -0.0808
    4CHL1   C10  261   1.212   6.474  10.179  0.1372  0.1389  0.2761
    4CHL1   C19  262   1.063   6.441  10.149 -0.2947 -0.4976 -0.7111
    4CHL1  H19A  263   1.038   6.350  10.091 -1.2197  0.5176 -1.9772
    4CHL1  H19B  264   1.001   6.442  10.241  0.6374 -0.8491 -0.0639
    4CHL1  H19C  265   1.025   6.525  10.088 -2.0254 -0.9037 -0.2472
    4CHL1    C1  266   1.292   6.350  10.239 -0.5714 -0.3868 -0.3523
    4CHL1   H1A  267   1.275   6.260  10.177  1.7242 -1.7159  0.7732
    4CHL1   H1B  268   1.400   6.379  10.239  0.0566 -2.4471  1.1147
    4CHL1    C2  269   1.261   6.316  10.385 -0.3799 -0.5827 -0.0750
    4CHL1   H2A  270   1.324   6.238  10.433 -0.9315 -0.7208  0.4314
    4CHL1   H2B  271   1.154   6.287  10.394 -0.7056  0.6271  0.1967
    4CHL1   C20  272   1.328   6.650   9.497 -0.7881  0.5302  0.1117
    4CHL1   H20  273   1.221   6.669   9.478 -0.6837 -1.3933 -3.0457
    4CHL1   C21  274   1.361   6.500   9.461  0.4004  0.2767 -0.7649
    4CHL1  H21A  275   1.331   6.475   9.357 -0.8355 -1.0579 -0.1208
    4CHL1  H21B  276   1.301   6.433   9.526  1.3482  0.8224  0.7101
    4CHL1  H21C  277   1.467   6.473   9.479 -0.0243  0.3260  2.1879
    4CHL1   C22  278   1.407   6.754   9.412 -0.6614 -0.3108 -0.7101
    4CHL1  H22A  279   1.367   6.858   9.416  0.6150  0.1833 -0.2767
    4CHL1  H22B  280   1.513   6.764   9.443  0.0478 -1.7475 -2.5270
    4CHL1   C23  281   1.425   6.720   9.262  0.2899  0.2726  0.3160
    4CHL1  H23A  282   1.501   6.640   9.247 -0.9080 -0.6367 -1.2925
    4CHL1  H23B  283   1.328   6.675   9.234  1.6162 -0.6953 -3.2889
    4CHL1   C24  284   1.448   6.835   9.160 -0.2642 -0.2541 -0.3066
    4CHL1  H24A  285   1.368   6.911   9.170  0.5050  0.4088  1.0568
    4CHL1  H24B  286   1.541   6.893   9.181 -1.7682  1.2737  2.7353
    4CHL1   C25  287   1.455   6.773   9.023  0.3717 -0.1746 -0.4078
    4CHL1   H25  288   1.533   6.695   9.017 -2.4100 -3.0495 -3.7384
    4CHL1   C26  289   1.329   6.703   8.970  0.2954  0.2101  0.8240
    4CHL1  H26A  290   1.289   6.615   9.025  1.0766 -1.0354 -0.5350
    4CHL1  H26B  291   1.260   6.789   8.957 -1.0157 -0.9419 -0.1121
    4CHL1  H26C  292   1.348   6.674   8.865 -2.2117 -1.0531  0.6501
    4CHL1   C27  293   1.500   6.883   8.927  0.6072  0.2419 -0.1022
    4CHL1  H27A  294   1.509   6.846   8.822  2.9562  1.2739 -0.3214
    4CHL1  H27B  295   1.440   6.977   8.922 -0.5974 -0.5603 -1.8287
    4CHL1  H27C  296   1.604   6.917   8.944  0.2868  0.7650  0.8660
    5CHL1    C3  297   2.979   4.744  10.397  0.3677 -0.0998  0.6296
    5CHL1    H3  298   2.904   4.823  10.375  2.8367  1.5570 -2.9920
    5CHL1    O3  299   2.979   4.681  10.525 -0.0163 -0.8261  0.2179
    5CHL1   H3'  300   2.992   4.586  10.518 -1.3991 -1.0388  0.2417
    5CHL1    C4  301   2.957   4.638  10.281  0.1052 -0.1232 -0.8625
    5CHL1   H4A  302   3.021   4.549  10.300 -2.0381 -1.5769  0.0199
    5CHL1   H4B  303   2.855   4.595  10.290  0.0072  0.3198  0.3360
    5CHL1    C5  304   2.965   4.700  10.148 -0.6639 -0.8937  1.0301
    5CHL1    C6  305   2.866   4.706  10.062  0.4998  0.3134  0.0992
    5CHL1    H6  306   2.771   4.655  10.086 -1.6799  2.8512 -2.4315
    5CHL1    C7  307   2.875   4.742   9.917 -0.0566 -0.2053 -0.0693
    5CHL1   H7A  308   2.807   4.675   9.860  0.0602 -1.0868  0.7972
    5CHL1   H7B  309   2.854   4.849   9.898 -0.5944 -0.4511 -0.9064
    5CHL1    C8  310   3.025   4.739   9.869  0.0760 -0.0286 -0.0742
    5CHL1    H8  311   3.060   4.634   9.859  3.6446  0.9797  0.3636
    5CHL1   C14  312   3.039   4.808   9.734  0.0523 -0.1158 -0.3565
    5CHL1   H14  313   3.007   4.914   9.744 -0.2209 -0.0684 -1.5913
    5CHL1   C15  314   2.949   4.752   9.610 -0.0064 -0.2130 -0.6556
    5CHL1  H15A  315   2.943   4.641   9.618 -1.4468 -0.0811  0.6172
    5CHL1  H15B  316   2.848   4.797   9.622  0.3236 -0.0389  2.6546
    5CHL1   C16  317   3.025   4.800   9.490  0.2161 -0.0041  0.7819
    5CHL1  H16A  318   3.041   4.714   9.422  0.9049  0.8095 -0.1103
    5CHL1  H16B  319   2.970   4.883   9.441 -1.6131 -1.7427 -0.2703
    5CHL1   C17  320   3.166   4.859   9.543 -0.5826 -0.1564 -0.5551
    5CHL1   H17  321   3.148   4.967   9.560  0.3404 -0.2247  0.9974
    5CHL1   C13  322   3.184   4.802   9.680  0.2749  0.0131  0.4108
    5CHL1   C18  323   3.219   4.651   9.673 -0.1062  0.0847 -0.3741
    5CHL1  H18A  324   3.229   4.594   9.767 -0.7584 -1.4124 -1.1724
    5CHL1  H18B  325   3.153   4.595   9.604  0.8454  0.0468 -1.2757
    5CHL1  H18C  326   3.319   4.646   9.626 -1.0776  0.9178 -2.7249
    5CHL1   C12  327   3.273   4.884   9.783  0.4212  0.1754  0.3213
    5CHL1  H12A  328   3.373   4.876   9.736  0.6851 -2.8168  1.1916
    5CHL1  H12B  329   3.248   4.992   9.791 -1.1288 -0.2763  3.0909
    5CHL1   C11  330   3.266   4.843   9.933 -0.4884  0.7371 -0.1052
    5CHL1  H11A  331   3.323   4.748   9.924 -1.3602  0.2690 -0.8703
    5CHL1  H11B  332   3.330   4.912   9.991  0.5323 -0.0518 -0.2591
    5CHL1    C9  333   3.118   4.814   9.980  0.2223 -0.3988 -0.4676
    5CHL1    H9  334   3.078   4.918   9.991  1.4958  0.3550 -2.4423
    5CHL1   C10  335   3.104   4.755  10.121  0.2747  0.6676  0.3660
    5CHL1   C19  336   3.201   4.635  10.136  0.0839 -0.0498 -0.9851
    5CHL1  H19A  337   3.175   4.568  10.052 -1.3488  0.2046 -0.7742
    5CHL1  H19B  338   3.305   4.671  10.120  0.4360 -0.3438  0.5298
    5CHL1  H19C  339   3.204   4.582  10.234  1.9366  1.1050 -0.3531
    5CHL1    C1  340   3.131   4.862  10.236  0.8758  0.3884 -0.2147
    5CHL1   H1A  341   3.237   4.892  10.222  0.9457 -0.3421 -1.4133
    5CHL1   H1B  342   3.058   4.945  10.227  1.7931  1.4235  1.4355
    5CHL1    C2  343   3.115   4.810  10.378  0.0305 -0.2316 -0.0736
    5CHL1   H2A  344   3.140   4.891  10.450  3.3302  0.2934 -1.6563
    5CHL1   H2B  345   3.192   4.731  10.387  0.0411 -0.4333 -1.7478
    5CHL1   C20  346   3.279   4.836   9.432 -0.3816 -0.5493 -0.3874
    5CHL1   H20  347   3.299   4.729   9.408 -0.3418 -0.7777  0.6534
    5CHL1   C21  348   3.412   4.908   9.477 -0.0911  0.3273  0.3204
    5CHL1  H21A  349   3.384   5.011   9.505 -2.8460  0.6139 -2.8063
    5CHL1  H21B  350   3.487   4.907   9.395  1.8156  0.5810  2.0032
    5CHL1  H21C  351   3.463   4.855   9.560  1.3647 -1.6666 -1.7222
    5CHL1   C22  352   3.231   4.898   9.291 -0.3595  0.4753 -1.0171
    5CHL1  H22A  353   3.128   4.869   9.261 -0.1034  0.0389 -1.4886
    5CHL1  H22B  354   3.221   5.008   9.298  1.0766  0.5832 -0.3743
    5CHL1   C23  355   3.331   4.866   9.177 -0.3385 -0.2228  0.1568
    5CHL1  H23A  356   3.423   4.925   9.195  1.3260 -2.7675  0.5167
    5CHL1  H23B  357   3.363   4.760   9.179  2.5132  0.5637  2.6053
    5CHL1   C24  358   3.281   4.926   9.046 -0.4518  0.4909 -0.3441
    5CHL1  H24A  359   3.185   4.880   9.011  0.3275 -1.6724  0.2075
    5CHL1  H24B  360   3.263   5.035   9.052  0.4422  0.5655  2.2186
    5CHL1   C25  361   3.382   4.895   8.937 -0.0290  0.7639  0.0832
    5CHL1   H25  362   3.485   4.925   8.965 -0.5795  2.8644 -0.0132
    5CHL1   C26  363   3.384   4.745   8.901 -0.2162  0.7802 -0.0528
    5CHL1  H26A  364   3.296   4.702   8.849  0.7277  0.4049 -1.4033
    5CHL1  H26B  365   3.477   4.733   8.841 -0.0945  0.7329  0.1435
    5CHL1  H26C  366   3.392   4.682   8.992 -0.1940  0.4787 -0.2590
    5CHL1   C27  367   3.362   4.986   8.815 -0.3096 -0.1096  0.3025
    5CHL1  H27A  368   3.260   4.958   8.780 -1.2309  1.9576  1.1901
    5CHL1  H27B  369   3.369   5.094   8.835  1.2347  0.0262 -0.8110
    5CHL1  H27C  370   3.447   4.962   8.748  1.0807  1.8979  1.2549
    6CHL1    C3  371   0.759   4.084  10.478  0.0831  0.4852  0.0410
    6CHL1    H3  372   0.792   4.190  10.482  0.0064  0.5201 -0.2721
    6CHL1    O3  373   0.761   4.035  10.609 -0.3524  0.6192  0.2847
    6CHL1   H3'  374   0.674   4.049  10.647 -1.1493 -1.5888 -0.5692
    6CHL1    C4  375   0.615   4.075  10.428  0.3363  0.4132  0.3423
    6CHL1   H4A  376   0.588   3.967  10.433  3.7988 -0.5473  1.0885
    6CHL1   H4B  377   0.547   4.138  10.490 -0.7429  1.8859 -2.1996
    6CHL1    C5  378   0.621   4.121  10.278  0.1221  0.8032  0.8229
    6CHL1    C6  379   0.531   4.210  10.235 -0.0732  0.5925  0.2503
    6CHL1    H6  380   0.453   4.244  10.305 -0.2550 -0.2230  0.4546
    6CHL1    C7  381   0.518   4.265  10.097 -0.1104  0.1620 -0.8574
    6CHL1   H7A  382   0.410   4.272  10.076 -0.5041  2.1417  1.4725
    6CHL1   H7B  383   0.557   4.369  10.099  3.2768 -0.9754 -0.3147
    6CHL1    C8  384   0.595   4.176   9.992  0.1224 -0.6267 -0.5928
    6CHL1    H8  385   0.524   4.092   9.974  1.3625 -1.9725  0.5823
    6CHL1   C14  386   0.620   4.253   9.867  0.4573 -0.4025 -0.1529
    6CHL1   H14  387   0.704   4.324   9.883  0.3008  0.6229 -3.2563
    6CHL1   C15  388   0.505   4.333   9.801  0.1283 -0.0535 -0.4521
    6CHL1  H15A  389   0.414   4.270   9.812 -0.2343  0.2367 -1.6449
    6CHL1  H15B  390   0.487   4.426   9.860  3.0028 -0.5633  1.4456
    6CHL1   C16  391   0.539   4.363   9.661 -0.1199 -0.3355  0.9980
    6CHL1  H16A  392   0.455   4.334   9.595  0.6475  1.3904 -0.8072
    6CHL1  H16B  393   0.550   4.473   9.652  1.4693 -0.6467 -1.4838
    6CHL1   C17  394   0.669   4.276   9.635  0.4913  0.4071  0.1764
    6CHL1   H17  395   0.754   4.342   9.662 -0.3228  0.4920  2.8079
    6CHL1   C13  396   0.668   4.171   9.753  0.5723 -0.4047  0.3163
    6CHL1   C18  397   0.561   4.066   9.713  0.2967 -0.5327  0.0632
    6CHL1  H18A  398   0.522   4.008   9.798 -0.4305 -0.1756 -0.0216
    6CHL1  H18B  399   0.470   4.103   9.662 -0.3536  0.4026  1.8420
    6CHL1  H18C  400   0.609   3.986   9.653  0.0412  0.1039 -1.0226
    6CHL1   C12  401   0.806   4.111   9.795 -0.0218 -0.5105 -0.0062
    6CHL1  H12A  402   0.829   4.029   9.723  0.6609 -2.2149  2.0636
    6CHL1  H12B  403   0.886   4.189   9.796  0.3522 -0.7619 -2.7085
    6CHL1   C11  404   0.788   4.046   9.936 -0.4264  0.1136 -0.4467
    6CHL1  H11A  405   0.712   3.967   9.914 -2.6142  2.6384 -2.7239
    6CHL1  H11B  406   0.884   4.007   9.977 -1.1063 -1.1195  0.0410
    6CHL1    C9  407   0.729   4.130  10.046  0.0077 -0.4209 -0.4338
    6CHL1    H9  408   0.801   4.212  10.064 -0.4592 -0.4871  2.0971
    6CHL1   C10  409   0.720   4.051  10.177  0.1257 -0.6985 -0.0220
    6CHL1   C19  410   0.659   3.911  10.160 -0.2343 -0.6593 -0.5308
    6CHL1  H19A  411   0.557   3.909  10.117 -0.4245 -2.0948 -0.0604
    6CHL1  H19B  412   0.730   3.849  10.100  0.9860 -0.1948  0.3812
    6CHL1  H19C  413   0.658   3.846  10.249  0.7278  1.1435  0.8708
    6CHL1    C1  414   0.856   4.034  10.241 -0.7159  0.5711 -1.1440
    6CHL1   H1A  415   0.922   3.967  10.183  0.3979  0.1691  0.5352
    6CHL1   H1B  416   0.908   4.128  10.271 -1.6757  0.3129  1.6033
    6CHL1    C2  417   0.849   3.990  10.394 -0.4943  0.4693  0.5949
    6CHL1   H2A  418   0.949   3.984  10.442  0.7810 -0.0940 -1.9488
    6CHL1   H2B  419   0.810   3.886  10.398 -1.8392  0.9117 -0.3846
    6CHL1   C20  420   0.691   4.230   9.485 -0.3491  0.4001 -0.1599
    6CHL1   H20  421   0.605   4.174   9.443 -1.0883  1.1249  0.3424
    6CHL1   C21  422   0.812   4.132   9.476  0.5440  0.2056  0.1291
    6CHL1  H21A  423   0.857   4.115   9.376 -0.5776  0.7355 -0.4844
    6CHL1  H21B  424   0.774   4.036   9.518 -0.2059 -0.0031 -0.9950
    6CHL1  H21C  425   0.894   4.177   9.536 -1.0090  1.3325  1.5081
    6CHL1   C22  426   0.722   4.350   9.395  0.4026 -0.8067 -0.0074
    6CHL1  H22A  427   0.668   4.439   9.435 -0.2228 -0.8615 -0.7154
    6CHL1  H22B  428   0.832   4.360   9.407  0.4253  0.0454 -0.8289
    6CHL1   C23  429   0.694   4.330   9.249  0.0386  0.5366 -0.8179
    6CHL1  H23A  430   0.741   4.237   9.210  0.7303  1.4831 -2.3603
    6CHL1  H23B  431   0.584   4.325   9.234 -0.0872  1.6511 -0.3274
    6CHL1   C24  432   0.749   4.454   9.177  0.2263 -0.3328  0.1569
    6CHL1  H24A  433   0.686   4.541   9.204 -0.8947 -1.1433  0.2048
    6CHL1  H24B  434   0.850   4.478   9.218 -1.0564  2.2367  2.0975
    6CHL1   C25  435   0.774   4.439   9.026  0.3997  0.0747  0.2666
    6CHL1   H25  436   0.810   4.335   9.008 -1.1703 -0.6422  1.0706
    6CHL1   C26  437   0.646   4.429   8.940  0.5920 -0.4267 -0.4456
    6CHL1  H26A  438   0.672   4.420   8.832 -1.3054  2.3614 -1.2609
    6CHL1  H26B  439   0.579   4.347   8.973  0.4842  0.3520  1.3759
    6CHL1  H26C  440   0.595   4.527   8.952  1.4570  0.0844 -0.8375
    6CHL1   C27  441   0.866   4.552   8.975  0.1826  0.7154 -0.2737
    6CHL1  H27A  442   0.907   4.527   8.875  1.3402  2.4695 -0.2924
    6CHL1  H27B  443   0.814   4.650   8.965 -0.6748  0.2815 -0.1706
    6CHL1  H27C  444   0.952   4.557   9.045  0.3747  1.0553 -0.5307
    7CHL1    C3  445   3.674   6.143  10.540 -0.2536 -0.4799  0.0533
    7CHL1    H3  446   3.749   6.061  10.532  1.4230  1.1800 -2.8610
    7CHL1    O3  447   3.640   6.153  10.681 -0.6900 -0.2281 -0.4942
    7CHL1   H3'  448   3.554   6.195  10.687 -0.5331 -0.1014  1.0177
    7CHL1    C4  449   3.739   6.283  10.499  0.2100 -0.2293  0.1295
    7CHL1   H4A  450   3.683   6.369  10.542  0.8642 -0.4453  1.4817
    7CHL1   H4B  451   3.843   6.279  10.538  0.1696  2.4141  0.6824
    7CHL1    C5  452   3.752   6.301  10.348 -0.8901 -0.6371  0.8755
    7CHL1    C6  453   3.871   6.334  10.281 -0.2299  0.2064  0.8786
    7CHL1    H6  454   3.960   6.354  10.342  2.0118  0.0908 -2.1146
    7CHL1    C7  455   3.892   6.364  10.135  0.1072  0.6268  0.0633
    7CHL1   H7A  456   3.944   6.460  10.118  1.3140 -0.3711 -2.2970
    7CHL1   H7B  457   3.954   6.286  10.086 -0.4852  0.1307  0.0934
    7CHL1    C8  458   3.755   6.384  10.060  0.1620 -0.0807 -0.9136
    7CHL1    H8  459   3.719   6.487  10.083 -1.0050 -1.2610  3.4050
    7CHL1   C14  460   3.759   6.373   9.907  0.5043 -0.2533  0.0862
    7CHL1   H14  461   3.807   6.274   9.892  0.6415 -0.5159  1.9670
    7CHL1   C15  462   3.851   6.479   9.842  0.1047 -0.8776  0.6650
    7CHL1  H15A  463   3.826   6.583   9.874 -0.4428 -0.6220 -0.5341
    7CHL1  H15B  464   3.958   6.462   9.863  0.8702  1.0485 -1.2436
    7CHL1   C16  465   3.814   6.466   9.692  0.0058 -0.2567  0.2728
    7CHL1  H16A  466   3.785   6.568   9.661  0.4853  0.5853  2.4055
    7CHL1  H16B  467   3.896   6.412   9.639 -1.8987 -4.1194  0.8804
    7CHL1   C17  468   3.685   6.372   9.684  0.5187 -0.1441 -0.2346
    7CHL1   H17  469   3.721   6.268   9.669 -1.2829 -0.5787 -1.8657
    7CHL1   C13  470   3.632   6.388   9.829  0.5398  0.5245 -0.1719
    7CHL1   C18  471   3.558   6.527   9.848 -1.0715  0.0566  0.0900
    7CHL1  H18A  472   3.452   6.528   9.817 -1.0905 -0.3582  0.1380
    7CHL1  H18B  473   3.559   6.557   9.954 -1.7376 -0.9927  0.4074
    7CHL1  H18C  474   3.615   6.602   9.790 -1.5386  1.2640  1.1487
    7CHL1   C12  475   3.546   6.270   9.880  0.2769  1.0799  0.1706
    7CHL1  H12A  476   3.449   6.268   9.827  0.3186 -0.0205  0.1223
    7CHL1  H12B  477   3.589   6.174   9.845 -0.0076  1.6474 -1.8874
    7CHL1   C11  478   3.525   6.270  10.027  0.1668  0.2346  0.9599
    7CHL1  H11A  479   3.462   6.360  10.048  0.2737  0.1033  1.8807
    7CHL1  H11B  480   3.477   6.176  10.062  0.6436 -0.9579 -1.4224
    7CHL1    C9  481   3.652   6.277  10.114  0.1088 -0.0660  0.7530
    7CHL1    H9  482   3.696   6.175  10.104 -2.5067 -1.1104 -1.1727
    7CHL1   C10  483   3.623   6.277  10.266 -0.0912  0.0970 -0.3410
    7CHL1   C19  484   3.522   6.389  10.300 -0.4465 -0.2501 -0.1815
    7CHL1  H19A  485   3.418   6.363  10.274 -1.0351  0.6828  1.1406
    7CHL1  H19B  486   3.525   6.421  10.407  1.4221 -0.0670 -0.2531
    7CHL1  H19C  487   3.549   6.481  10.244  0.2831 -0.8426 -0.8369
    7CHL1    C1  488   3.572   6.140  10.310  0.1216 -0.3052  0.4195
    7CHL1   H1A  489   3.473   6.129  10.259  0.4733  1.8181 -0.8598
    7CHL1   H1B  490   3.645   6.063  10.277 -0.0117 -0.0250 -0.5755
    7CHL1    C2  491   3.541   6.125  10.458 -0.1937 -0.6909  0.8750
    7CHL1   H2A  492   3.504   6.022  10.477 -0.8931 -1.0060 -1.7114
    7CHL1   H2B  493   3.464   6.198  10.491  0.5069  0.5340 -0.0912
    7CHL1   C20  494   3.599   6.401   9.558 -0.2707  0.4312 -0.4137
    7CHL1   H20  495   3.547   6.496   9.582 -0.0456  0.6485 -0.7762
    7CHL1   C21  496   3.502   6.283   9.544  0.1723 -0.1069 -0.3751
    7CHL1  H21A  497   3.435   6.304   9.458 -0.2306  0.6154  0.1039
    7CHL1  H21B  498   3.432   6.290   9.631  0.6153  2.0055 -0.1205
    7CHL1  H21C  499   3.547   6.183   9.533 -0.2903 -0.2677 -0.8465
    7CHL1   C22  500   3.677   6.420   9.425 -0.1552 -0.6463 -0.8967
    7CHL1  H22A  501   3.778   6.466   9.431 -1.2676  1.8073  0.3992
    7CHL1  H22B  502   3.695   6.320   9.379  0.2134 -0.8611 -0.2921
    7CHL1   C23  503   3.603   6.494   9.313  0.8109 -0.0447 -0.4250
    7CHL1  H23A  504   3.504   6.443   9.308  0.6042  0.1924  0.9298
    7CHL1  H23B  505   3.584   6.599   9.343 -0.6230 -0.6250  0.8019
    7CHL1   C24  506   3.676   6.486   9.180  0.2102  0.0872  0.3544
    7CHL1  H24A  507   3.775   6.532   9.199 -0.2792  0.6348  1.6693
    7CHL1  H24B  508   3.672   6.376   9.162 -0.7471  0.0100  0.9656
    7CHL1   C25  509   3.605   6.542   9.056 -0.2742 -0.3511  0.3228
    7CHL1   H25  510   3.509   6.488   9.050 -0.4483 -0.1994  1.4715
    7CHL1   C26  511   3.580   6.695   9.074  0.0401  0.1770 -0.5163
    7CHL1  H26A  512   3.678   6.747   9.081  0.9324 -1.5551  0.7749
    7CHL1  H26B  513   3.530   6.727   8.980  3.1146  0.7209 -2.1039
    7CHL1  H26C  514   3.509   6.718   9.156 -0.9166 -0.8223 -1.0367
    7CHL1   C27  515   3.677   6.511   8.919 -0.3011  0.1569 -0.3591
    7CHL1  H27A  516   3.593   6.523   8.847  0.5649 -1.0003 -1.6086
    7CHL1  H27B  517   3.761   6.582   8.904  2.2328 -2.7334 -0.8221
    7CHL1  H27C  518   3.704   6.404   8.929 -1.6119 -0.3142 -1.4618
    8CHL1    C3  519   3.187   6.730  10.419 -0.0108 -0.8434  0.3103
    8CHL1    H3  520   3.267   6.807  10.417  2.4116 -3.1387  2.3528
    8CHL1    O3  521   3.161   6.692  10.554 -0.3301  0.2606  0.0732
    8CHL1   H3'  522   3.066   6.700  10.566 -0.3187 -0.2432  0.5158
    8CHL1    C4  523   3.054   6.779  10.355 -0.1114 -0.7600 -0.5897
    8CHL1   H4A  524   2.973   6.704  10.372 -0.1048 -0.9272 -1.2560
    8CHL1   H4B  525   3.032   6.869  10.415  0.1271 -1.6335  0.8507
    8CHL1    C5  526   3.073   6.811  10.210 -0.2673 -0.2623 -0.6498
    8CHL1    C6  527   3.046   6.935  10.158  0.1660  0.3362  0.4514
    8CHL1    H6  528   3.013   7.018  10.222  1.3598  1.0484  0.1736
    8CHL1    C7  529   3.063   6.981  10.015 -0.9114 -0.2225 -0.2044
    8CHL1   H7A  530   2.986   7.053   9.979  1.6545  1.8558 -1.8977
    8CHL1   H7B  531   3.162   7.027   9.996 -1.5543  0.6864 -1.4944
    8CHL1    C8  532   3.069   6.856   9.923  0.2077  0.8218  0.0774
    8CHL1    H8  533   2.963   6.823   9.910  0.3683 -0.1327  1.0216
    8CHL1   C14  534   3.119   6.889   9.777 -0.4754 -0.0355  0.0139
    8CHL1   H14  535   3.225   6.921   9.786 -0.4294  0.3394 -1.5657
    8CHL1   C15  536   3.030   7.005   9.707 -0.6220  0.4372  0.3715
    8CHL1  H15A  537   2.922   6.984   9.715 -0.8938  1.2069 -0.9607
    8CHL1  H15B  538   3.064   7.105   9.741  4.8765 -0.8116 -0.4540
    8CHL1   C16  539   3.072   6.984   9.554 -0.6137  0.9194  0.3741
    8CHL1  H16A  540   2.982   6.968   9.490  0.5061  0.8568 -1.2527
    8CHL1  H16B  541   3.127   7.070   9.512 -1.0641  0.1728 -1.9090
    8CHL1   C17  542   3.168   6.862   9.551 -0.5371 -0.0121  0.2626
    8CHL1   H17  543   3.272   6.890   9.579 -0.0391 -1.1178 -0.3942
    8CHL1   C13  544   3.113   6.781   9.668 -0.6767  0.4288  0.2270
    8CHL1   C18  545   2.974   6.717   9.646 -0.4054 -0.7906  0.2465
    8CHL1  H18A  546   2.913   6.696   9.737 -0.9135 -0.3169  0.0166
    8CHL1  H18B  547   2.915   6.785   9.581 -1.2952 -1.3419  0.4656
    8CHL1  H18C  548   2.990   6.619   9.597 -1.0961 -1.0398  0.5009
    8CHL1   C12  549   3.204   6.668   9.721 -0.1410  0.6171  0.0867
    8CHL1  H12A  550   3.195   6.572   9.665 -0.8757  0.3217  0.6995
    8CHL1  H12B  551   3.310   6.701   9.728  0.9627 -2.3731 -0.7475
    8CHL1   C11  552   3.167   6.622   9.874 -0.4313  0.0448  0.3883
    8CHL1  H11A  553   3.068   6.573   9.863 -0.1887 -0.4569  0.4306
    8CHL1  H11B  554   3.252   6.561   9.911 -0.1224  0.0779 -0.2645
    8CHL1    C9  555   3.153   6.737   9.976 -0.5194  0.5696  0.7603
    8CHL1    H9  556   3.251   6.789   9.982  0.0516 -0.5578  1.5491
    8CHL1   C10  557   3.123   6.694  10.123  0.9720  0.2896 -0.0760
    8CHL1   C19  558   3.015   6.582  10.119  0.2113 -0.0907 -0.5915
    8CHL1  H19A  559   2.915   6.616  10.086 -0.9595 -2.6116  0.1311
    8CHL1  H19B  560   3.044   6.503  10.047  0.5650  0.6218 -1.2496
    8CHL1  H19C  561   3.012   6.526  10.215  2.4493 -0.5087 -0.6964
    8CHL1    C1  562   3.252   6.645  10.189 -0.0465  0.5425  0.4741
    8CHL1   H1A  563   3.277   6.553  10.132  0.0325 -0.0153  1.3900
    8CHL1   H1B  564   3.328   6.726  10.182  0.1620  0.2720 -0.7354
    8CHL1    C2  565   3.234   6.603  10.338  0.1610  0.2715 -0.2051
    8CHL1   H2A  566   3.337   6.576  10.367  0.3054  0.4748 -0.5205
    8CHL1   H2B  567   3.174   6.511  10.352 -2.1658  1.6826 -0.2128
    8CHL1   C20  568   3.158   6.795   9.409 -1.0241 -0.0496 -0.4556
    8CHL1   H20  569   3.066   6.737   9.386  0.6269 -2.5565 -1.1540
    8CHL1   C21  570   3.270   6.696   9.393 -0.6224  0.2472  0.2623
    8CHL1  H21A  571   3.259   6.632   9.302 -0.5159  2.8188 -1.6587
    8CHL1  H21B  572   3.283   6.622   9.475  0.8935  0.1112 -0.0741
    8CHL1  H21C  573   3.368   6.748   9.396  0.6253 -1.7021 -2.2974
    8CHL1   C22  574   3.179   6.901   9.291 -0.3591 -0.0753  0.1841
    8CHL1  H22A  575   3.113   6.990   9.306 -0.5514 -0.3147  0.8195
    8CHL1  H22B  576   3.281   6.944   9.290 -0.6921  0.7718  1.0430
    8CHL1   C23  577   3.149   6.853   9.146  0.3889 -0.3179  0.1505
    8CHL1  H23A  578   3.185   6.748   9.144 -1.7537 -1.1537  1.7294
    8CHL1  H23B  579   3.039   6.854   9.137  0.5750  1.6111 -4.0703
    8CHL1   C24  580   3.211   6.943   9.041  0.1242  0.7001  0.2688
    8CHL1  H24A  581   3.202   7.049   9.074  2.0052  0.9583  0.0489
    8CHL1  H24B  582   3.320   6.926   9.037  0.0541  0.3426 -0.3189
    8CHL1   C25  583   3.155   6.929   8.903  0.6017  0.5600 -0.3255
    8CHL1   H25  584   3.208   6.991   8.827  1.0833 -0.2743 -0.6855
    8CHL1   C26  585   3.158   6.788   8.859 -0.0278  0.0880 -0.4903
    8CHL1  H26A  586   3.260   6.744   8.859  0.0485  0.2636 -0.1513
    8CHL1  H26B  587   3.094   6.730   8.929 -0.8849  1.4824 -0.0773
    8CHL1  H26C  588   3.116   6.765   8.758 -0.4143 -2.6460  0.1986
    8CHL1   C27  589   3.008   6.980   8.907 -0.7801 -0.0945 -0.3171
    8CHL1  H27A  590   2.937   6.906   8.950 -1.5211  0.8570  0.1391
    8CHL1  H27B  591   2.996   7.080   8.956 -1.8287 -1.2611  1.9624
    8CHL1  H27C  592   2.986   6.995   8.800  2.1411  0.7926 -0.8733
    9CHL1    C3  593   0.090   4.574  10.206  0.7483 -0.1844  1.2175
    9CHL1    H3  594   0.137   4.672  10.185  1.2524 -0.2454  2.0342
    9CHL1    O3  595   0.069   4.561  10.343  0.3883  0.5774  0.4261
    9CHL1   H3'  596  -0.013   4.607  10.362 -0.7407 -0.8428 -0.7293
    9CHL1    C4  597  -0.050   4.569  10.128  0.3658  0.3047  0.4945
    9CHL1   H4A  598  -0.117   4.483  10.147 -0.7262  0.8433 -0.7519
    9CHL1   H4B  599  -0.112   4.650  10.172 -0.6215 -0.3221  0.2782
    9CHL1    C5  600  -0.028   4.593   9.981 -0.1787 -0.4269  0.4583
    9CHL1    C6  601  -0.081   4.693   9.914  0.1852  0.2516 -0.3407
    9CHL1    H6  602  -0.148   4.759   9.972 -1.3877 -1.0817 -0.5619
    9CHL1    C7  603  -0.082   4.708   9.765 -0.6296  0.2930  0.1116
    9CHL1   H7A  604  -0.186   4.717   9.729 -0.7159  0.7127  0.4575
    9CHL1   H7B  605  -0.034   4.801   9.728  0.7937 -0.0875  0.9240
    9CHL1    C8  606  -0.022   4.578   9.695  0.1931 -0.3796  0.1367
    9CHL1    H8  607  -0.093   4.492   9.685  2.7202 -2.7095  0.9379
    9CHL1   C14  608   0.015   4.615   9.556 -0.3135 -0.2233  0.5547
    9CHL1   H14  609   0.096   4.689   9.567  0.4489 -0.7838 -1.0638
    9CHL1   C15  610  -0.074   4.699   9.464  0.0894 -1.0931  0.6350
    9CHL1  H15A  611  -0.178   4.659   9.468 -0.8058  0.6832 -1.8366
    9CHL1  H15B  612  -0.073   4.807   9.489  0.2789 -0.6203 -1.2685
    9CHL1   C16  613  -0.025   4.671   9.321  0.1203  0.1978  0.1766
    9CHL1  H16A  614  -0.112   4.628   9.267  1.3863  1.4473 -3.1228
    9CHL1  H16B  615   0.006   4.759   9.261 -0.5614  0.4650  0.2137
    9CHL1   C17  616   0.092   4.572   9.338  0.3595  0.5089  0.7066
    9CHL1   H17  617   0.176   4.642   9.357 -0.4032  2.9386 -3.4602
    9CHL1   C13  618   0.071   4.500   9.467  0.0329 -0.4554  0.5199
    9CHL1   C18  619  -0.037   4.391   9.445  0.5336 -0.6915  0.3997
    9CHL1  H18A  620  -0.077   4.352   9.541  0.8008  1.7030  1.5575
    9CHL1  H18B  621  -0.127   4.427   9.391  0.9302  1.5118  1.1331
    9CHL1  H18C  622   0.001   4.310   9.379  0.4088 -0.5408  0.1439
    9CHL1   C12  623   0.186   4.437   9.539  0.2779 -0.8680 -0.2640
    9CHL1  H12A  624   0.220   4.350   9.479 -3.0111 -2.7446  0.3643
    9CHL1  H12B  625   0.274   4.505   9.547  2.3291 -3.4784  0.9156
    9CHL1   C11  626   0.148   4.388   9.682 -0.0334  0.1071 -0.5800
    9CHL1  H11A  627   0.075   4.305   9.679  1.0448 -1.3053  4.1101
    9CHL1  H11B  628   0.240   4.349   9.731  0.8846  2.1467 -0.5411
    9CHL1    C9  629   0.092   4.513   9.768 -0.7186 -0.1939  0.5746
    9CHL1    H9  630   0.177   4.584   9.757 -1.6469  0.7838 -0.7380
    9CHL1   C10  631   0.061   4.488   9.916 -0.2657  0.4746 -0.2464
    9CHL1   C19  632  -0.024   4.360   9.922 -0.3221  0.4804  0.0096
    9CHL1  H19A  633  -0.107   4.353   9.848 -0.1617  0.0888 -0.1349
    9CHL1  H19B  634   0.045   4.277   9.896  2.0461  0.9456  3.9393
    9CHL1  H19C  635  -0.055   4.323  10.022 -0.8035 -0.7971 -0.5934
    9CHL1    C1  636   0.194   4.473   9.994 -0.2514 -0.2160  0.4092
    9CHL1   H1A  637   0.244   4.378   9.969  3.0446  1.5629 -0.3561
    9CHL1   H1B  638   0.277   4.546   9.979  1.6675 -2.3467  0.1986
    9CHL1    C2  639   0.174   4.458  10.146 -1.1348 -0.3564 -0.0001
    9CHL1   H2A  640   0.277   4.469  10.185 -1.2360 -0.2740  0.2438
    9CHL1   H2B  641   0.142   4.354  10.168  3.8913 -2.9007 -2.9907
    9CHL1   C20  642   0.141   4.499   9.204 -0.0150 -0.1117 -0.2006
    9CHL1   H20  643   0.089   4.402   9.191  0.7720 -0.4981 -0.5322
    9CHL1   C21  644   0.291   4.477   9.205  0.1838 -0.3815 -0.0428
    9CHL1  H21A  645   0.332   4.430   9.113  0.3500 -1.2520  0.4631
    9CHL1  H21B  646   0.328   4.421   9.294  2.5803  1.9237  0.5373
    9CHL1  H21C  647   0.345   4.573   9.216 -1.2105  0.1424  3.4325
    9CHL1   C22  648   0.104   4.572   9.071 -0.1707 -0.5333  0.2221
    9CHL1  H22A  649  -0.007   4.563   9.067 -0.1753  0.0178 -1.8702
    9CHL1  H22B  650   0.140   4.677   9.085  1.6364 -1.0405 -0.3468
    9CHL1   C23  651   0.157   4.519   8.942 -0.7905  0.4277 -0.6769
    9CHL1  H23A  652   0.266   4.537   8.939 -0.3174 -1.8601  0.0982
    9CHL1  H23B  653   0.151   4.410   8.921  2.5120 -0.0805  0.4407
    9CHL1   C24  654   0.105   4.588   8.811 -0.2838 -0.0372  0.0396
    9CHL1  H24A  655  -0.001   4.561   8.793 -0.3031 -1.4056  1.8818
    9CHL1  H24B  656   0.114   4.696   8.835  0.5307 -0.1208  0.1289
    9CHL1   C25  657   0.198   4.575   8.688 -0.1259 -0.6449  0.5325
    9CHL1   H25  658   0.301   4.600   8.722 -0.8740  1.1215  1.7038
    9CHL1   C26  659   0.210   4.436   8.632  0.7555  0.0498  0.1395
    9CHL1  H26A  660   0.251   4.443   8.528  5.0284 -2.8546  1.3664
    9CHL1  H26B  661   0.278   4.393   8.709 -0.9411 -0.7400  1.2581
    9CHL1  H26C  662   0.111   4.386   8.628  0.0446  1.3356  1.0300
    9CHL1   C27  663   0.152   4.676   8.583 -0.3383  0.3934 -0.2020
    9CHL1  H27A  664   0.158   4.780   8.622 -0.4637  0.6910 -0.9513
    9CHL1  H27B  665   0.214   4.673   8.491 -0.1658  1.2139 -0.1212
    9CHL1  H27C  666   0.045   4.654   8.562 -0.3999 -0.3165  0.7735
   10CHL1    C3  667   6.733   1.314  10.250 -1.1360 -0.4636 -0.9256
   10CHL1    H3  668   6.679   1.410  10.240 -0.5076 -0.1936 -1.9409
   10CHL1    O3  669   6.792   1.301  10.378  0.3550  0.0821 -0.1229
   10CHL1   H3'  670   6.823   1.211  10.392 -0.5544 -0.3627 -0.8710
   10CHL1    C4  671   6.635   1.199  10.228  0.0287 -0.2071  0.0928
   10CHL1   H4A  672   6.693   1.105  10.238 -1.3588 -1.1345 -0.3262
   10CHL1   H4B  673   6.568   1.183  10.315 -0.9427 -2.3056 -0.9845
   10CHL1    C5  674   6.560   1.217  10.098 -0.1642  0.3407 -0.0812
   10CHL1    C6  675   6.423   1.212  10.092 -0.0890 -0.4031 -0.0254
   10CHL1    H6  676   6.371   1.202  10.188 -0.3658  0.3160 -0.0903
   10CHL1    C7  677   6.350   1.228   9.967 -0.0678  0.3567 -0.3351
   10CHL1   H7A  678   6.267   1.154   9.967  1.3323 -1.3068  0.8660
   10CHL1   H7B  679   6.304   1.329   9.975 -1.9060 -0.5220  1.1104
   10CHL1    C8  680   6.429   1.214   9.840 -0.5996  0.1200  0.9330
   10CHL1    H8  681   6.454   1.106   9.828  2.8459  0.9567 -0.6645
   10CHL1   C14  682   6.360   1.264   9.711  0.7041 -0.2824  0.0201
   10CHL1   H14  683   6.357   1.375   9.723 -3.0490 -0.1856 -0.6522
   10CHL1   C15  684   6.222   1.218   9.684  0.1136  0.4658 -0.1333
   10CHL1  H15A  685   6.224   1.107   9.686  0.3821  0.4661 -0.2696
   10CHL1  H15B  686   6.152   1.264   9.756  1.0158  2.3394 -0.3941
   10CHL1   C16  687   6.190   1.269   9.541  0.0958  0.4383  0.8152
   10CHL1  H16A  688   6.138   1.193   9.480  2.6495  0.2233 -1.2649
   10CHL1  H16B  689   6.123   1.358   9.545  1.7339  1.8104 -0.6606
   10CHL1   C17  690   6.334   1.302   9.481 -0.3946 -0.3356  0.4868
   10CHL1   H17  691   6.352   1.410   9.502 -0.4195  0.9620 -4.8899
   10CHL1   C13  692   6.432   1.237   9.577  0.7439 -0.3332 -0.1639
   10CHL1   C18  693   6.450   1.092   9.536 -0.3375 -0.2154 -0.4170
   10CHL1  H18A  694   6.537   1.082   9.468 -0.2579 -0.3804 -0.2906
   10CHL1  H18B  695   6.484   1.034   9.624 -0.3301  1.2689  0.5961
   10CHL1  H18C  696   6.355   1.049   9.498 -0.2764 -1.9194  1.2242
   10CHL1   C12  697   6.563   1.304   9.587 -0.5448  0.6134 -0.0819
   10CHL1  H12A  698   6.634   1.290   9.503 -1.0587 -4.6398  0.0001
   10CHL1  H12B  699   6.555   1.414   9.598  2.5659  0.9296 -0.0770
   10CHL1   C11  700   6.641   1.259   9.710 -0.6641  0.3249  0.0232
   10CHL1  H11A  701   6.677   1.155   9.698 -2.1706 -0.2603  0.4683
   10CHL1  H11B  702   6.740   1.310   9.703  0.5172 -1.8763 -0.0600
   10CHL1    C9  703   6.565   1.275   9.842 -0.3998 -0.3376  0.1427
   10CHL1    H9  704   6.545   1.384   9.850 -3.1173 -0.4332 -2.9469
   10CHL1   C10  705   6.653   1.228   9.966  0.3446  0.3796 -0.0719
   10CHL1   C19  706   6.719   1.087   9.932 -0.2985 -0.0034 -0.3347
   10CHL1  H19A  707   6.801   1.098   9.859 -1.6431  0.7410 -1.7861
   10CHL1  H19B  708   6.744   1.018  10.016  0.2401  1.0967  0.4406
   10CHL1  H19C  709   6.643   1.020   9.888  0.7089 -1.3530 -0.0615
   10CHL1    C1  710   6.765   1.335   9.997 -0.7173  0.3100  0.5538
   10CHL1   H1A  711   6.839   1.347   9.915  0.1738  1.9708  1.5425
   10CHL1   H1B  712   6.717   1.436   9.999 -0.9962  0.4304 -3.3510
   10CHL1    C2  713   6.838   1.323  10.133 -1.3308 -0.4661 -0.1865
   10CHL1   H2A  714   6.903   1.412  10.144  1.7235 -2.7544  1.6784
   10CHL1   H2B  715   6.894   1.228  10.127  0.8678  0.8017 -0.9610
   10CHL1   C20  716   6.331   1.279   9.324 -0.1698  0.3101 -0.3219
   10CHL1   H20  717   6.326   1.170   9.302 -0.5822  0.4800 -1.0954
   10CHL1   C21  718   6.465   1.321   9.260  0.1876 -0.9563  0.5341
   10CHL1  H21A  719   6.453   1.340   9.151  1.7898  1.5094  0.7286
   10CHL1  H21B  720   6.536   1.240   9.286 -1.4382 -2.3169  0.9546
   10CHL1  H21C  721   6.494   1.422   9.295 -2.2603 -0.0428  0.1723
   10CHL1   C22  722   6.206   1.346   9.251  0.0168 -0.1924  0.4358
   10CHL1  H22A  723   6.118   1.286   9.285 -0.7876  0.2810 -0.7531
   10CHL1  H22B  724   6.187   1.448   9.288  0.3537 -0.1009  0.3594
   10CHL1   C23  725   6.213   1.347   9.096  0.4478  0.6059  0.6915
   10CHL1  H23A  726   6.112   1.385   9.069  0.6628 -0.2558 -1.5569
   10CHL1  H23B  727   6.293   1.415   9.059 -0.9732  1.8799 -0.1097
   10CHL1   C24  728   6.226   1.205   9.057 -0.0079 -0.2801  0.4279
   10CHL1  H24A  729   6.329   1.165   9.072 -0.2198 -0.8510  0.3714
   10CHL1  H24B  730   6.160   1.137   9.115  0.8231  0.3528  2.2064
   10CHL1   C25  731   6.187   1.169   8.910 -0.1973 -0.0784  0.8774
   10CHL1   H25  732   6.221   1.064   8.915 -1.4166 -0.4413  3.0610
   10CHL1   C26  733   6.029   1.174   8.898 -0.0979 -0.0391  1.1237
   10CHL1  H26A  734   5.985   1.151   8.997  0.2439  0.1147  1.3096
   10CHL1  H26B  735   5.994   1.270   8.853 -0.9462  0.3205  2.4928
   10CHL1  H26C  736   6.000   1.091   8.830 -1.7651 -1.5402  3.4953
   10CHL1   C27  737   6.253   1.252   8.802  0.1971 -0.3620  0.3837
   10CHL1  H27A  738   6.215   1.356   8.804  0.4524 -0.2212 -0.8705
   10CHL1  H27B  739   6.364   1.249   8.809  0.1586 -3.4053  1.0174
   10CHL1  H27C  740   6.226   1.208   8.703  1.7622  0.0600 -0.2698
   11CHL1    C3  741   2.883   3.506  10.167 -0.6201 -0.7055  0.4732
   11CHL1    H3  742   2.797   3.554  10.116 -1.1739 -0.0920  1.9221
   11CHL1    O3  743   2.849   3.475  10.299 -0.2304 -0.0131 -0.0275
   11CHL1   H3'  744   2.813   3.386  10.301  0.7431 -0.4151  2.2493
   11CHL1    C4  745   2.937   3.380  10.094  0.5537 -0.4858  0.4056
   11CHL1   H4A  746   3.027   3.353  10.154 -0.9576  0.4394  3.2812
   11CHL1   H4B  747   2.861   3.299  10.097 -2.3024  1.8572 -2.4915
   11CHL1    C5  748   2.955   3.415   9.947  0.0468 -0.0030 -0.5235
   11CHL1    C6  749   2.883   3.364   9.852 -0.1366  0.2387  0.2104
   11CHL1    H6  750   2.816   3.280   9.873  0.1039  0.7557  3.7180
   11CHL1    C7  751   2.902   3.387   9.705  0.2245  0.0771  0.1394
   11CHL1   H7A  752   2.893   3.289   9.653 -1.0210 -0.4249  1.2313
   11CHL1   H7B  753   2.822   3.456   9.667 -0.2032 -2.1174 -3.4472
   11CHL1    C8  754   3.040   3.455   9.685  0.3340 -0.0851  0.5049
   11CHL1    H8  755   3.119   3.379   9.704  0.8329  0.9980  3.2815
   11CHL1   C14  756   3.056   3.504   9.539  0.2319  0.1879  0.0031
   11CHL1   H14  757   2.977   3.580   9.522 -0.4654  0.0473  2.2691
   11CHL1   C15  758   3.043   3.397   9.426  0.4291 -0.0666  0.3273
   11CHL1  H15A  759   3.102   3.309   9.459 -1.7849 -1.3157  1.1468
   11CHL1  H15B  760   2.937   3.365   9.427  0.5048 -0.3267  0.9555
   11CHL1   C16  761   3.108   3.468   9.302 -0.2540  0.1911  0.4688
   11CHL1  H16A  762   3.191   3.407   9.260 -3.0881 -2.6942 -1.4169
   11CHL1  H16B  763   3.032   3.479   9.222  0.4042 -1.4717 -0.4327
   11CHL1   C17  764   3.151   3.610   9.355 -0.2350  0.2949  0.4577
   11CHL1   H17  765   3.059   3.672   9.347  0.5176  1.2881 -0.9036
   11CHL1   C13  766   3.183   3.587   9.512  0.6056  0.0490 -0.2939
   11CHL1   C18  767   3.313   3.506   9.525  0.6133 -0.3683  0.9170
   11CHL1  H18A  768   3.317   3.416   9.460  2.3258  1.7059 -2.1490
   11CHL1  H18B  769   3.391   3.583   9.506  0.1800  0.4878  2.4119
   11CHL1  H18C  770   3.324   3.466   9.627 -0.0347 -0.4127  0.9765
   11CHL1   C12  771   3.171   3.713   9.604 -0.6978 -0.2266 -0.5254
   11CHL1  H12A  772   3.255   3.783   9.582 -2.7476  2.6829  0.2270
   11CHL1  H12B  773   3.080   3.773   9.582 -0.2482  1.3488  1.5309
   11CHL1   C11  774   3.172   3.676   9.749 -0.4064  0.3965 -0.3699
   11CHL1  H11A  775   3.273   3.637   9.776 -0.7345  0.7238  1.4330
   11CHL1  H11B  776   3.152   3.763   9.815 -1.0051 -0.4730  0.6222
   11CHL1    C9  777   3.053   3.573   9.779 -0.0222 -0.5176 -0.1703
   11CHL1    H9  778   2.962   3.633   9.757  2.3152  2.7036 -2.0055
   11CHL1   C10  779   3.052   3.534   9.924 -0.1934  0.4933  0.5908
   11CHL1   C19  780   3.188   3.471   9.966  0.6549  0.8415  0.0822
   11CHL1  H19A  781   3.204   3.383   9.900 -0.9967  0.0145  0.7173
   11CHL1  H19B  782   3.274   3.542   9.968  1.8032 -0.5143  0.8308
   11CHL1  H19C  783   3.181   3.441  10.073 -0.8717 -2.0748 -0.7195
   11CHL1    C1  784   3.022   3.656  10.015  0.4530  0.4496 -0.2298
   11CHL1   H1A  785   3.109   3.726  10.017 -0.4322  1.5784  0.3916
   11CHL1   H1B  786   2.929   3.704   9.978 -0.4183 -0.6696  0.4561
   11CHL1    C2  787   2.992   3.622  10.163 -0.7013 -0.0156  0.0977
   11CHL1   H2A  788   2.938   3.707  10.210 -0.0277  0.0224  0.8205
   11CHL1   H2B  789   3.074   3.583  10.227 -0.0788  3.1766  1.4336
   11CHL1   C20  790   3.256   3.674   9.267 -0.5087  0.2673  0.2803
   11CHL1   H20  791   3.356   3.626   9.277 -0.1451  0.3177 -2.3308
   11CHL1   C21  792   3.277   3.825   9.306  0.1194 -0.1535  0.0954
   11CHL1  H21A  793   3.341   3.879   9.233  0.4277  1.4271  1.4750
   11CHL1  H21B  794   3.333   3.827   9.402 -0.5882  0.7035  0.4987
   11CHL1  H21C  795   3.182   3.880   9.325 -0.7549 -1.3890 -0.5591
   11CHL1   C22  796   3.232   3.662   9.116  0.2561 -0.0819 -1.0669
   11CHL1  H22A  797   3.237   3.554   9.090 -0.3611 -0.5904  0.7474
   11CHL1  H22B  798   3.125   3.692   9.106  0.1743 -0.8075 -2.7615
   11CHL1   C23  799   3.329   3.742   9.033 -0.9073  0.2817  0.2445
   11CHL1  H23A  800   3.311   3.852   9.032 -0.1566  0.4352  1.6895
   11CHL1  H23B  801   3.431   3.716   9.068 -0.7198 -0.0039 -0.4809
   11CHL1   C24  802   3.316   3.703   8.886 -0.6761  0.1821 -0.4389
   11CHL1  H24A  803   3.329   3.594   8.875  3.9558  0.5187 -0.0561
   11CHL1  H24B  804   3.212   3.733   8.860 -0.3161  0.4188 -1.6543
   11CHL1   C25  805   3.416   3.777   8.801 -0.1474  0.2483 -0.2399
   11CHL1   H25  806   3.520   3.767   8.839 -0.6761  0.4744  1.3208
   11CHL1   C26  807   3.415   3.694   8.669 -0.3189  0.3079  0.3823
   11CHL1  H26A  808   3.491   3.726   8.595  0.9427 -0.3904  1.3501
   11CHL1  H26B  809   3.444   3.591   8.699 -0.0798  0.5581  1.0278
   11CHL1  H26C  810   3.314   3.701   8.622 -0.5143  2.1437  1.0222
   11CHL1   C27  811   3.392   3.934   8.783  0.1602 -0.5926  0.3098
   11CHL1  H27A  812   3.302   3.942   8.718 -0.2117  0.9404  0.9570
   11CHL1  H27B  813   3.367   3.981   8.881  4.7478 -0.3694  1.5753
   11CHL1  H27C  814   3.479   3.977   8.730 -0.4205 -1.9158 -1.8528
   12CHL1    C3  815   5.066   0.689  10.265 -0.1207  0.1151  0.2626
   12CHL1    H3  816   4.994   0.766  10.229  1.3551  1.3094 -0.2676
   12CHL1    O3  817   5.096   0.697  10.410  0.4842 -0.6188 -0.0280
   12CHL1   H3'  818   5.171   0.637  10.416  2.3320  1.1235 -2.8238
   12CHL1    C4  819   5.012   0.559  10.227 -0.0594  0.0603  0.0752
   12CHL1   H4A  820   5.076   0.478  10.268 -1.2713 -0.1549  1.6453
   12CHL1   H4B  821   4.914   0.541  10.278  0.4866  0.8261  1.4501
   12CHL1    C5  822   4.982   0.543  10.075 -0.3026  0.7701 -0.7463
   12CHL1    C6  823   4.862   0.506  10.028  1.1305 -0.2931 -0.0286
   12CHL1    H6  824   4.782   0.480  10.099 -0.2982  2.1661 -0.6182
   12CHL1    C7  825   4.835   0.467   9.888 -0.0170  0.5622 -0.0786
   12CHL1   H7A  826   4.798   0.363   9.892  1.2652  0.1036  0.5043
   12CHL1   H7B  827   4.759   0.533   9.841  0.4663  0.5801 -0.8453
   12CHL1    C8  828   4.961   0.465   9.800 -0.4156 -0.8096 -0.1084
   12CHL1    H8  829   5.014   0.370   9.824 -0.9371 -0.7750  1.2618
   12CHL1   C14  830   4.933   0.475   9.647  0.1042  0.4229  0.1630
   12CHL1   H14  831   4.884   0.571   9.620  0.2995  0.8901  1.3684
   12CHL1   C15  832   4.838   0.371   9.584 -1.0778  1.1053  0.0960
   12CHL1  H15A  833   4.859   0.266   9.615 -0.9827  1.1277  0.1071
   12CHL1  H15B  834   4.737   0.403   9.618 -0.7625  2.2966 -0.0454
   12CHL1   C16  835   4.864   0.376   9.434 -1.2165  0.1744 -0.4551
   12CHL1  H16A  836   4.886   0.273   9.399 -0.6824 -0.4793  1.6345
   12CHL1  H16B  837   4.783   0.423   9.375 -2.5022 -0.6656  0.5796
   12CHL1   C17  838   4.989   0.472   9.423  0.8505 -0.5137 -0.3052
   12CHL1   H17  839   4.943   0.570   9.400  1.7114 -0.2519 -0.9614
   12CHL1   C13  840   5.057   0.476   9.558  0.9178  0.2964  0.2329
   12CHL1   C18  841   5.132   0.342   9.574 -0.2183 -0.1443  0.0535
   12CHL1  H18A  842   5.150   0.330   9.683 -0.9731  3.2382  0.6457
   12CHL1  H18B  843   5.086   0.249   9.534 -0.0450  0.5254 -1.8091
   12CHL1  H18C  844   5.231   0.349   9.523  1.4460 -1.8461  2.7733
   12CHL1   C12  845   5.145   0.594   9.601 -0.2360 -0.0927  0.0847
   12CHL1  H12A  846   5.243   0.571   9.556 -0.6103 -2.4211  0.3268
   12CHL1  H12B  847   5.119   0.697   9.566 -1.1127 -0.5602 -0.7004
   12CHL1   C11  848   5.179   0.587   9.741 -0.1396  0.3416 -0.7419
   12CHL1  H11A  849   5.248   0.501   9.761  1.2273  0.6690 -3.6050
   12CHL1  H11B  850   5.235   0.681   9.762  1.5714 -0.6255 -0.7304
   12CHL1    C9  851   5.052   0.581   9.837 -0.7239 -0.6811 -0.3355
   12CHL1    H9  852   5.002   0.678   9.815  0.4119 -0.0302 -0.1223
   12CHL1   C10  853   5.099   0.576   9.988  0.3759  0.8096  0.4850
   12CHL1   C19  854   5.197   0.455  10.014  0.1550  0.5547 -0.1675
   12CHL1  H19A  855   5.296   0.486   9.974  0.3117  4.2325  2.5264
   12CHL1  H19B  856   5.217   0.451  10.123  1.0546  1.4625 -0.2894
   12CHL1  H19C  857   5.165   0.357   9.972 -0.4944  0.4978  0.4390
   12CHL1    C1  858   5.166   0.710  10.028  0.4480 -0.3495 -1.2123
   12CHL1   H1A  859   5.270   0.721   9.991  0.9681 -1.1139 -0.0152
   12CHL1   H1B  860   5.109   0.802  10.001 -0.3150 -0.0728  1.0756
   12CHL1    C2  861   5.188   0.723  10.186  0.5455  0.2689  0.5484
   12CHL1   H2A  862   5.223   0.819  10.227  0.1487  0.4522  0.4625
   12CHL1   H2B  863   5.262   0.646  10.216 -1.6815 -2.0686  0.4195
   12CHL1   C20  864   5.078   0.431   9.302 -0.8477  0.2088 -0.4368
   12CHL1   H20  865   5.139   0.340   9.324  0.1254  1.5657  3.1987
   12CHL1   C21  866   5.176   0.545   9.291  0.5957 -0.2741  0.0649
   12CHL1  H21A  867   5.266   0.538   9.356  1.2545  1.1319 -0.6486
   12CHL1  H21B  868   5.128   0.645   9.303  0.0542 -0.1869 -2.2935
   12CHL1  H21C  869   5.218   0.529   9.189  3.4728 -0.4641  1.1873
   12CHL1   C22  870   5.000   0.401   9.162 -0.3332 -0.2851 -0.8534
   12CHL1  H22A  871   5.070   0.372   9.081 -1.8779  0.4097 -2.5399
   12CHL1  H22B  872   4.921   0.323   9.161 -1.0024  0.3675 -2.1383
   12CHL1   C23  873   4.928   0.531   9.106 -0.2816  0.3191 -0.0041
   12CHL1  H23A  874   4.845   0.539   9.180 -0.9914 -1.5688 -0.5242
   12CHL1  H23B  875   5.002   0.613   9.114  1.8164 -1.5767  1.1929
   12CHL1   C24  876   4.862   0.511   8.968  0.0542 -0.7477  0.3170
   12CHL1  H24A  877   4.796   0.423   8.959  0.8348 -1.2584 -0.6111
   12CHL1  H24B  878   4.788   0.592   8.949  1.0288  0.1713  0.3432
   12CHL1   C25  879   4.964   0.498   8.855 -0.7876  0.4106 -0.3336
   12CHL1   H25  880   5.010   0.400   8.878  0.4942  1.2086  0.6368
   12CHL1   C26  881   4.895   0.494   8.714 -0.1972  0.2311 -0.2589
   12CHL1  H26A  882   4.961   0.440   8.643 -2.2319  0.0442 -2.1103
   12CHL1  H26B  883   4.800   0.437   8.724  0.7511 -1.4855 -0.6757
   12CHL1  H26C  884   4.879   0.595   8.670 -1.5294 -0.3819 -1.2709
   12CHL1   C27  885   5.074   0.597   8.853  0.4183 -0.4424  0.4080
   12CHL1  H27A  886   5.040   0.702   8.838  1.9812  0.0520  0.1044
   12CHL1  H27B  887   5.134   0.598   8.947  0.2446  1.2666  0.5266
   12CHL1  H27C  888   5.154   0.584   8.777 -1.0779 -2.8126 -0.8823
   13CHL1    C3  889   3.132   2.111   9.932 -0.1634 -0.7461  0.1034
   13CHL1    H3  890   3.086   2.211   9.917  3.2594  1.0042  0.1828
   13CHL1    O3  891   3.071   2.049  10.043  0.4434 -0.0126 -0.2543
   13CHL1   H3'  892   3.104   1.959  10.044  1.9988  0.4873 -1.8802
   13CHL1    C4  893   3.122   2.025   9.803 -0.3331  0.4436 -0.1189
   13CHL1   H4A  894   3.143   1.918   9.820  1.2998  0.8340  0.4927
   13CHL1   H4B  895   3.014   2.025   9.776 -0.4458 -0.3670  0.2996
   13CHL1    C5  896   3.203   2.076   9.690  0.1606  0.2582  0.7842
   13CHL1    C6  897   3.146   2.091   9.572  0.4627 -0.8756 -0.1996
   13CHL1    H6  898   3.037   2.079   9.560  0.2039  1.0912 -0.2307
   13CHL1    C7  899   3.216   2.133   9.450  0.0160 -0.5411  0.0890
   13CHL1   H7A  900   3.192   2.064   9.366  0.3171 -0.0264 -0.4247
   13CHL1   H7B  901   3.183   2.233   9.415  1.0884  0.1596  1.0154
   13CHL1    C8  902   3.365   2.131   9.466 -1.7393  0.4041  0.1334
   13CHL1    H8  903   3.391   2.024   9.455 -0.2327  0.5778  1.6060
   13CHL1   C14  904   3.437   2.199   9.357 -0.0070  0.0102  0.5284
   13CHL1   H14  905   3.417   2.307   9.375 -0.9236 -0.0235 -0.2659
   13CHL1   C15  906   3.381   2.175   9.220 -0.6942  0.0936 -0.0273
   13CHL1  H15A  907   3.352   2.070   9.202 -6.1019  1.1290  0.9058
   13CHL1  H15B  908   3.290   2.232   9.192 -2.7480 -2.1048  1.7385
   13CHL1   C16  909   3.498   2.203   9.121  0.0180 -0.3964 -0.9751
   13CHL1  H16A  910   3.523   2.111   9.064 -1.2717 -0.3779 -1.5917
   13CHL1  H16B  911   3.494   2.292   9.056 -2.4750  1.3116  1.3190
   13CHL1   C17  912   3.617   2.248   9.216 -0.3574  0.4328 -0.2381
   13CHL1   H17  913   3.595   2.355   9.233  2.2314  1.2168 -1.3832
   13CHL1   C13  914   3.586   2.186   9.354 -0.4569 -0.1035  0.0768
   13CHL1   C18  915   3.631   2.040   9.353  0.7058  0.8432  0.1326
   13CHL1  H18A  916   3.597   1.988   9.261 -2.1859 -0.5976  1.8871
   13CHL1  H18B  917   3.741   2.024   9.354  0.4524 -1.1124  0.2409
   13CHL1  H18C  918   3.592   1.983   9.441 -0.9628  0.1224 -1.0248
   13CHL1   C12  919   3.640   2.255   9.481  0.6107  0.1415  0.6669
   13CHL1  H12A  920   3.751   2.250   9.483  0.7439 -0.2253 -2.7678
   13CHL1  H12B  921   3.616   2.363   9.473  0.1937  0.1021  1.2975
   13CHL1   C11  922   3.572   2.198   9.604 -0.0403  0.1978  0.5876
   13CHL1  H11A  923   3.620   2.100   9.624 -0.2717 -0.1860 -0.6579
   13CHL1  H11B  924   3.603   2.252   9.696  0.2554 -1.6404  1.6047
   13CHL1    C9  925   3.414   2.182   9.599  0.1019  0.0819  0.0835
   13CHL1    H9  926   3.385   2.289   9.600  2.0749  0.6663 -0.9537
   13CHL1   C10  927   3.349   2.103   9.714 -0.1646  0.0456 -0.2776
   13CHL1   C19  928   3.425   1.970   9.741  0.3441 -0.4961  0.8380
   13CHL1  H19A  929   3.357   1.903   9.798 -1.0271 -0.6089 -0.8572
   13CHL1  H19B  930   3.435   1.908   9.650 -1.2329 -1.6908  1.4263
   13CHL1  H19C  931   3.527   1.993   9.779  1.0651  0.8613 -1.7092
   13CHL1    C1  932   3.354   2.190   9.841 -0.5870  0.3946  0.1148
   13CHL1   H1A  933   3.459   2.212   9.870 -0.3897 -0.7290  0.2904
   13CHL1   H1B  934   3.316   2.289   9.808  1.0188  0.8787 -0.4147
   13CHL1    C2  935   3.281   2.136   9.967  0.0314 -0.7978 -0.3271
   13CHL1   H2A  936   3.277   2.211  10.049 -1.5844  1.9974 -2.7586
   13CHL1   H2B  937   3.321   2.039  10.004 -2.3094 -1.7105  0.0326
   13CHL1   C20  938   3.763   2.244   9.154  0.1328 -0.4199 -0.2026
   13CHL1   H20  939   3.836   2.196   9.224  1.8021  2.5968  0.3122
   13CHL1   C21  940   3.819   2.389   9.145 -0.2948 -0.6015 -0.1604
   13CHL1  H21A  941   3.749   2.436   9.073 -0.8026 -0.4993  0.3827
   13CHL1  H21B  942   3.926   2.414   9.132 -0.0428 -1.0148  0.9789
   13CHL1  H21C  943   3.803   2.441   9.242 -1.9974  1.8323 -1.6203
   13CHL1   C22  944   3.783   2.165   9.018  0.5280 -0.2599  0.1214
   13CHL1  H22A  945   3.699   2.178   8.946  0.0746  0.2943  0.7413
   13CHL1  H22B  946   3.863   2.216   8.962 -0.0067 -0.7852 -1.1573
   13CHL1   C23  947   3.820   2.015   9.042  0.1372  0.2275 -0.6583
   13CHL1  H23A  948   3.925   2.002   9.075  0.0878 -2.2613 -1.2470
   13CHL1  H23B  949   3.760   1.972   9.125 -0.9672  1.2261 -0.9070
   13CHL1   C24  950   3.794   1.946   8.902  0.5277 -0.2234  0.3412
   13CHL1  H24A  951   3.845   2.001   8.820  1.4978 -2.7969 -0.9246
   13CHL1  H24B  952   3.847   1.849   8.918  0.0915 -0.1287  2.7763
   13CHL1   C25  953   3.646   1.911   8.870 -0.1050  0.4204 -0.1923
   13CHL1   H25  954   3.579   1.997   8.890 -0.5827  0.2690 -1.1018
   13CHL1   C26  955   3.622   1.871   8.729  0.2021  0.4301  0.2337
   13CHL1  H26A  956   3.534   1.805   8.719  2.1706 -2.2441 -0.3270
   13CHL1  H26B  957   3.605   1.962   8.667  3.7091  1.2066  0.1694
   13CHL1  H26C  958   3.709   1.815   8.690 -0.4479  0.3788 -1.1992
   13CHL1   C27  959   3.594   1.805   8.963 -0.2631  0.8671 -0.0893
   13CHL1  H27A  960   3.490   1.770   8.941 -0.3928  1.0180  0.2786
   13CHL1  H27B  961   3.658   1.714   8.962  1.2445  1.9017 -0.5481
   13CHL1  H27C  962   3.590   1.845   9.067  2.1924  0.6712  0.1367
   14CHL1    C3  963   3.752   5.610  10.438 -0.8010  0.1897 -1.1330
   14CHL1    H3  964   3.793   5.713  10.430  0.8276 -0.5127 -2.4074
   14CHL1    O3  965   3.776   5.568  10.571 -0.4679 -0.1303 -0.2757
   14CHL1   H3'  966   3.763   5.647  10.624  1.9661 -0.7788  1.4950
   14CHL1    C4  967   3.601   5.613  10.401 -0.6718 -0.2419 -0.1006
   14CHL1   H4A  968   3.555   5.514  10.422  1.2816 -0.7751  2.2040
   14CHL1   H4B  969   3.556   5.685  10.472 -2.3168  0.1887 -1.5094
   14CHL1    C5  970   3.591   5.660  10.260 -0.2556  0.0958  0.2347
   14CHL1    C6  971   3.521   5.770  10.234 -0.2811  0.1745 -0.8958
   14CHL1    H6  972   3.474   5.833  10.311 -0.4633 -0.2380 -0.6705
   14CHL1    C7  973   3.506   5.830  10.094 -0.3118  0.1869  0.1216
   14CHL1   H7A  974   3.411   5.887  10.081 -0.9563 -1.1050 -1.0764
   14CHL1   H7B  975   3.595   5.892  10.072  0.2607 -0.2617  1.0856
   14CHL1    C8  976   3.511   5.714   9.986 -0.0474 -0.8118 -0.1559
   14CHL1    H8  977   3.430   5.640   9.998  0.0352 -0.7504  0.9177
   14CHL1   C14  978   3.514   5.775   9.846  0.0852 -0.1176  0.1372
   14CHL1   H14  979   3.592   5.852   9.833 -0.3760  0.5570  1.2337
   14CHL1   C15  980   3.388   5.856   9.806 -0.1050  0.4063  0.0643
   14CHL1  H15A  981   3.299   5.797   9.835 -0.7100  0.9833 -0.5636
   14CHL1  H15B  982   3.392   5.952   9.862 -1.4602  2.7462 -3.5164
   14CHL1   C16  983   3.406   5.865   9.653 -0.4369 -0.4664 -0.3544
   14CHL1  H16A  984   3.324   5.829   9.588 -1.5642 -1.1211  1.3455
   14CHL1  H16B  985   3.411   5.973   9.627  2.1494 -1.0457 -2.7052
   14CHL1   C17  986   3.530   5.782   9.617  0.1852  0.7253 -0.6629
   14CHL1   H17  987   3.621   5.846   9.616  1.6224 -1.1806  0.7113
   14CHL1   C13  988   3.542   5.681   9.733 -0.2339 -0.2412  0.3063
   14CHL1   C18  989   3.423   5.575   9.721 -0.8008 -1.5660 -0.4182
   14CHL1  H18A  990   3.444   5.505   9.637  0.1297  0.3095 -1.8177
   14CHL1  H18B  991   3.421   5.505   9.808  2.3432  0.3350  1.3971
   14CHL1  H18C  992   3.323   5.613   9.692  0.2745  0.6166 -1.5104
   14CHL1   C12  993   3.678   5.609   9.753  0.2591 -0.1863  0.6303
   14CHL1  H12A  994   3.691   5.527   9.680 -2.2325 -0.9897  0.9710
   14CHL1  H12B  995   3.754   5.688   9.737 -0.6263  0.5396 -0.1517
   14CHL1   C11  996   3.680   5.547   9.893 -0.0409  0.1446  0.0529
   14CHL1  H11A  997   3.615   5.457   9.899  1.4996 -0.9606  0.9832
   14CHL1  H11B  998   3.779   5.499   9.910 -0.6549 -0.6160  1.7039
   14CHL1    C9  999   3.640   5.640  10.011 -0.1276  0.0964  0.9202
   14CHL1    H9 1000   3.716   5.720  10.012  0.8914 -0.8310  0.0896
   14CHL1   C10 1001   3.654   5.571  10.153  0.0955 -0.3284 -0.0779
   14CHL1   C19 1002   3.562   5.440  10.152  0.2303 -0.7744  0.1478
   14CHL1  H19A 1003   3.618   5.366  10.091 -1.0510 -2.8899  1.4075
   14CHL1  H19B 1004   3.552   5.394  10.252 -0.4392  1.0145  0.9518
   14CHL1  H19C 1005   3.461   5.462  10.111 -0.4398  1.4453  2.6941
   14CHL1    C1 1006   3.802   5.548  10.193  0.1586  0.0405  0.1736
   14CHL1   H1A 1007   3.843   5.482  10.113 -1.7333  0.2777 -1.0470
   14CHL1   H1B 1008   3.846   5.648  10.177 -3.6658  1.7725 -0.7037
   14CHL1    C2 1009   3.820   5.508  10.343  0.5051 -0.0239  1.5738
   14CHL1   H2A 1010   3.930   5.514  10.347  1.0543 -2.5696 -3.0863
   14CHL1   H2B 1011   3.789   5.403  10.365 -0.3567 -0.0453  0.3959
   14CHL1   C20 1012   3.516   5.722   9.470 -0.3862  0.6430 -0.5153
   14CHL1   H20 1013   3.426   5.658   9.460  0.1174 -0.1841  0.2094
   14CHL1   C21 1014   3.636   5.640   9.425  0.0189 -0.0513  0.7051
   14CHL1  H21A 1015   3.623   5.536   9.462 -3.2194 -0.6236 -1.5982
   14CHL1  H21B 1016   3.733   5.689   9.447  1.3874 -1.7081 -1.2043
   14CHL1  H21C 1017   3.637   5.612   9.317  2.0256 -1.2455  0.9747
   14CHL1   C22 1018   3.489   5.845   9.378 -0.0612 -0.1715 -0.4439
   14CHL1  H22A 1019   3.411   5.912   9.421  1.5266  0.4512  1.6469
   14CHL1  H22B 1020   3.587   5.897   9.375 -0.7876  1.2230 -0.7483
   14CHL1   C23 1021   3.461   5.805   9.232  0.4175  0.6583  0.6877
   14CHL1  H23A 1022   3.550   5.774   9.174 -1.8127 -2.8051 -1.2329
   14CHL1  H23B 1023   3.378   5.730   9.230 -1.8471  2.8738 -3.6490
   14CHL1   C24 1024   3.392   5.918   9.154 -0.5944 -0.4194  1.0018
   14CHL1  H24A 1025   3.289   5.938   9.190 -0.8082  0.3678 -0.0021
   14CHL1  H24B 1026   3.455   6.008   9.174 -0.0082 -0.6141  0.0713
   14CHL1   C25 1027   3.383   5.881   9.005 -0.0257  0.0381 -0.2441
   14CHL1   H25 1028   3.482   5.850   8.966 -0.4994 -0.9048 -0.7234
   14CHL1   C26 1029   3.278   5.773   8.983 -0.2789  0.0027  0.4756
   14CHL1  H26A 1030   3.312   5.672   9.015  0.9124  0.7365  1.6503
   14CHL1  H26B 1031   3.183   5.786   9.038  0.1338  1.1497  0.9494
   14CHL1  H26C 1032   3.258   5.775   8.874  2.6793 -0.9221 -0.2023
   14CHL1   C27 1033   3.348   6.002   8.912  0.6222  0.1745  0.1906
   14CHL1  H27A 1034   3.280   6.063   8.976 -2.3473 -2.8546  0.2404
   14CHL1  H27B 1035   3.439   6.054   8.876 -0.1069  0.1469 -1.8368
   14CHL1  H27C 1036   3.287   5.972   8.824  0.7343 -0.9759  0.4857
   15CHL1    C3 1037   4.465   3.915  10.312  0.1253 -0.6319  0.5317
   15CHL1    H3 1038   4.412   4.011  10.298 -0.1137 -0.8415 -0.0077
   15CHL1    O3 1039   4.415   3.861  10.435 -0.6104 -0.1788  0.0309
   15CHL1   H3' 1040   4.478   3.876  10.506 -0.2781 -2.0239  0.1740
   15CHL1    C4 1041   4.416   3.827  10.197  0.2095  0.2129  0.2932
   15CHL1   H4A 1042   4.453   3.724  10.211 -0.3970 -0.1150 -0.4426
   15CHL1   H4B 1043   4.306   3.813  10.188  0.3987 -0.0076 -2.3145
   15CHL1    C5 1044   4.474   3.902  10.080 -0.3558 -0.0026  0.1643
   15CHL1    C6 1045   4.384   3.957   9.994  0.0594  0.2446 -0.0223
   15CHL1    H6 1046   4.279   3.950  10.026  1.0973 -1.8905  3.4458
   15CHL1    C7 1047   4.412   4.014   9.856 -0.2512 -0.2573 -0.8719
   15CHL1   H7A 1048   4.338   3.977   9.782  2.9028 -0.9771 -3.9372
   15CHL1   H7B 1049   4.413   4.124   9.866  1.1433 -0.4194  1.5985
   15CHL1    C8 1050   4.552   3.971   9.815 -0.0450  0.2475 -0.0859
   15CHL1    H8 1051   4.543   3.864   9.786  1.2507  0.0736  0.0951
   15CHL1   C14 1052   4.602   4.052   9.694  0.1181 -0.1466 -0.2776
   15CHL1   H14 1053   4.609   4.153   9.739 -0.5557 -1.0154  1.8844
   15CHL1   C15 1054   4.517   4.058   9.566  0.1041  0.1840 -0.4675
   15CHL1  H15A 1055   4.465   3.971   9.521 -1.6003  1.1730 -0.4959
   15CHL1  H15B 1056   4.436   4.132   9.580  0.7660  1.0407 -1.0684
   15CHL1   C16 1057   4.612   4.107   9.453  0.2694  0.4105 -0.7731
   15CHL1  H16A 1058   4.603   4.048   9.360  0.0610  0.0948 -0.5520
   15CHL1  H16B 1059   4.603   4.215   9.426  0.1376 -0.1912 -3.3068
   15CHL1   C17 1060   4.756   4.091   9.512  1.1150  0.1424 -0.6973
   15CHL1   H17 1061   4.784   4.185   9.566  2.4528 -1.2663  1.1963
   15CHL1   C13 1062   4.740   4.007   9.641  0.5762 -0.2351 -0.3133
   15CHL1   C18 1063   4.737   3.859   9.595  0.4202 -0.4884 -0.1967
   15CHL1  H18A 1064   4.844   3.841   9.568  0.4146 -0.1542 -0.4502
   15CHL1  H18B 1065   4.693   3.799   9.677 -1.4304 -1.0673 -1.5539
   15CHL1  H18C 1066   4.674   3.842   9.505 -1.2132  0.5316  0.7092
   15CHL1   C12 1067   4.839   4.026   9.751  0.2178  0.1913 -0.4848
   15CHL1  H12A 1068   4.940   3.999   9.716 -0.3662 -2.1436 -0.5285
   15CHL1  H12B 1069   4.824   4.128   9.794 -1.8602 -0.7724  1.3338
   15CHL1   C11 1070   4.796   3.947   9.878 -0.3862 -0.2191 -0.6554
   15CHL1  H11A 1071   4.812   3.839   9.855 -3.4522 -1.1026  0.8158
   15CHL1  H11B 1072   4.865   3.967   9.962  0.3437 -2.6477 -0.6061
   15CHL1    C9 1073   4.654   3.978   9.929 -0.1617 -0.0775 -0.1355
   15CHL1    H9 1074   4.662   4.077   9.978 -1.3596 -0.4993  0.9479
   15CHL1   C10 1075   4.627   3.900  10.066 -0.2937  0.3541 -0.3741
   15CHL1   C19 1076   4.682   3.756  10.045 -0.7899  0.4687 -0.0396
   15CHL1  H19A 1077   4.788   3.759  10.076 -1.5212  0.3637  2.7773
   15CHL1  H19B 1078   4.641   3.690  10.125  0.0440  0.1719  0.1486
   15CHL1  H19C 1079   4.662   3.716   9.943 -0.4826 -0.7490  0.3623
   15CHL1    C1 1080   4.685   3.967  10.190 -0.2291 -0.5041 -0.5925
   15CHL1   H1A 1081   4.793   3.942  10.186 -0.6872 -3.3895  1.4416
   15CHL1   H1B 1082   4.663   4.076  10.192 -0.1057 -0.4581  1.9157
   15CHL1    C2 1083   4.615   3.918  10.323  0.0283 -0.4065  0.8154
   15CHL1   H2A 1084   4.655   3.988  10.399  0.3703 -1.6739  1.8299
   15CHL1   H2B 1085   4.656   3.824  10.367 -0.2947  0.2306  2.5438
   15CHL1   C20 1086   4.868   4.062   9.409  0.2381 -0.0310  0.0501
   15CHL1   H20 1087   4.856   3.960   9.367  0.1893 -0.2181  0.5041
   15CHL1   C21 1088   5.007   4.052   9.471  0.1003 -0.0065 -0.4122
   15CHL1  H21A 1089   5.089   4.049   9.397  0.3853  3.8305 -0.4824
   15CHL1  H21B 1090   5.029   3.970   9.542  3.4161  0.9513 -0.2027
   15CHL1  H21C 1091   5.033   4.144   9.527  0.4320  0.2043 -0.9048
   15CHL1   C22 1092   4.860   4.163   9.297  0.2643  0.0492 -0.0537
   15CHL1  H22A 1093   4.763   4.156   9.244  1.6502  0.0926 -2.7566
   15CHL1  H22B 1094   4.870   4.268   9.331 -0.1737 -0.0857  0.5042
   15CHL1   C23 1095   4.963   4.131   9.187 -0.8324  0.0854  0.2518
   15CHL1  H23A 1096   5.062   4.145   9.236 -1.4495  2.2716  1.0151
   15CHL1  H23B 1097   4.944   4.024   9.165 -1.3636  0.6125 -2.1625
   15CHL1   C24 1098   4.941   4.217   9.060  0.0711  0.3882  0.2388
   15CHL1  H24A 1099   4.839   4.188   9.026  0.1904 -0.4238  0.5396
   15CHL1  H24B 1100   4.943   4.324   9.090 -0.4720  0.6045 -0.4596
   15CHL1   C25 1101   5.024   4.180   8.937 -0.5160  0.5626  0.3403
   15CHL1   H25 1102   5.127   4.172   8.979 -1.1946  1.5308  2.2986
   15CHL1   C26 1103   4.982   4.047   8.874 -0.7736  0.2776 -0.2583
   15CHL1  H26A 1104   4.879   4.057   8.832 -1.3766 -0.9805  0.8614
   15CHL1  H26B 1105   5.051   4.023   8.790 -0.0402 -0.4321  0.5247
   15CHL1  H26C 1106   4.998   3.967   8.949  0.6493  0.3831 -0.4278
   15CHL1   C27 1107   5.011   4.284   8.826  0.3874  0.1126 -0.1512
   15CHL1  H27A 1108   4.902   4.294   8.809  0.3153  3.2519  1.4684
   15CHL1  H27B 1109   5.054   4.381   8.859 -0.2284  0.6377 -0.8666
   15CHL1  H27C 1110   5.063   4.246   8.736  0.0790  0.1224 -0.3335
   16CHL1    C3 1111   5.256   4.460  10.432 -0.3192  0.0406  0.4557
   16CHL1    H3 1112   5.289   4.565  10.413 -0.9938  0.7511  2.8806
   16CHL1    O3 1113   5.304   4.441  10.565  0.1663  0.0903  0.6948
   16CHL1   H3' 1114   5.374   4.505  10.579 -0.1484  0.4328  0.7281
   16CHL1    C4 1115   5.108   4.442  10.424 -0.5900 -0.0505  0.7165
   16CHL1   H4A 1116   5.083   4.342  10.466  0.7973 -0.1606  1.3189
   16CHL1   H4B 1117   5.058   4.514  10.492 -0.5222 -0.5096  1.2619
   16CHL1    C5 1118   5.077   4.474  10.278  0.1082  0.1955  0.0874
   16CHL1    C6 1119   5.006   4.584  10.251  0.1168 -0.2051  0.5011
   16CHL1    H6 1120   4.958   4.631  10.338  1.8645  0.8751  0.9473
   16CHL1    C7 1121   4.964   4.644  10.119  0.7613 -0.1061 -0.7006
   16CHL1   H7A 1122   4.854   4.659  10.125  1.1709  3.2922  0.6931
   16CHL1   H7B 1123   5.031   4.730  10.098  1.9884 -0.5796  0.9997
   16CHL1    C8 1124   4.995   4.539  10.003  0.6805  0.0388 -0.6470
   16CHL1    H8 1125   4.915   4.462  10.000  1.2578 -0.5790 -0.5691
   16CHL1   C14 1126   4.996   4.606   9.864  0.2196 -0.1890  0.2844
   16CHL1   H14 1127   5.079   4.679   9.869 -0.0285  0.1560 -0.4848
   16CHL1   C15 1128   4.877   4.691   9.821 -0.1500  0.0847  0.8078
   16CHL1  H15A 1129   4.791   4.630   9.856  0.6819 -1.6097  0.0503
   16CHL1  H15B 1130   4.875   4.791   9.869  4.4954  1.6085 -1.4838
   16CHL1   C16 1131   4.897   4.714   9.669  0.2317 -0.0829 -0.1810
   16CHL1  H16A 1132   4.802   4.691   9.617 -0.1243  1.4131 -0.2488
   16CHL1  H16B 1133   4.936   4.817   9.656 -0.2993  0.1030 -0.3052
   16CHL1   C17 1134   5.012   4.616   9.625 -0.4523  0.5254  0.2980
   16CHL1   H17 1135   5.105   4.678   9.625  1.6718 -2.4457  1.0697
   16CHL1   C13 1136   5.021   4.513   9.743 -0.2339  0.6438  0.2632
   16CHL1   C18 1137   4.905   4.409   9.726 -0.5663  0.3701  0.0066
   16CHL1  H18A 1138   4.877   4.358   9.821  1.7534 -0.6823  0.2086
   16CHL1  H18B 1139   4.808   4.448   9.688 -2.5009 -4.5743 -0.9269
   16CHL1  H18C 1140   4.943   4.336   9.652 -1.3256  1.1049 -1.1261
   16CHL1   C12 1141   5.153   4.431   9.766  0.3350  0.3204 -0.4604
   16CHL1  H12A 1142   5.158   4.338   9.705 -0.4517 -0.0433  0.0103
   16CHL1  H12B 1143   5.245   4.493   9.763  0.5966  0.0260  0.7506
   16CHL1   C11 1144   5.163   4.363   9.905 -0.0316 -0.1051 -0.4915
   16CHL1  H11A 1145   5.102   4.271   9.890 -0.0821 -0.4076  1.3216
   16CHL1  H11B 1146   5.266   4.327   9.922 -0.3578 -0.0717  1.8068
   16CHL1    C9 1147   5.123   4.456  10.025  0.9136 -0.3082 -0.4447
   16CHL1    H9 1148   5.197   4.540  10.026  1.8539 -1.0363  2.2663
   16CHL1   C10 1149   5.139   4.388  10.170 -0.7691  0.3129  0.0799
   16CHL1   C19 1150   5.069   4.260  10.175  0.5477  0.3516  0.4425
   16CHL1  H19A 1151   4.960   4.270  10.155  0.0616 -2.1174  1.3981
   16CHL1  H19B 1152   5.101   4.195  10.091  0.6814  1.6036 -0.4932
   16CHL1  H19C 1153   5.080   4.199  10.268  2.5333 -0.9618 -0.5874
   16CHL1    C1 1154   5.293   4.386  10.203 -0.2425 -0.2163 -0.1313
   16CHL1   H1A 1155   5.340   4.315  10.131 -0.7857 -1.4365  0.7012
   16CHL1   H1B 1156   5.331   4.487  10.175 -1.0959 -0.1814 -1.2761
   16CHL1    C2 1157   5.327   4.364  10.341  0.3294  0.3115  0.4273
   16CHL1   H2A 1158   5.435   4.367  10.367  0.5956  0.7656 -0.6811
   16CHL1   H2B 1159   5.299   4.260  10.367 -2.0404  1.2725  2.0844
   16CHL1   C20 1160   4.993   4.559   9.477 -0.5069 -0.9252 -0.4987
   16CHL1   H20 1161   4.892   4.513   9.472 -0.5163 -1.0353  0.5826
   16CHL1   C21 1162   5.090   4.444   9.438 -0.5144 -0.1985 -0.5715
   16CHL1  H21A 1163   5.196   4.477   9.442 -0.9007  1.1041 -0.6785
   16CHL1  H21B 1164   5.066   4.389   9.345 -0.8335 -3.4100  1.2625
   16CHL1  H21C 1165   5.074   4.362   9.512  0.1250  0.8588  0.7900
   16CHL1   C22 1166   5.002   4.667   9.366 -0.4523 -0.4378  0.0137
   16CHL1  H22A 1167   4.985   4.608   9.274  1.9293  0.6829 -1.2557
   16CHL1  H22B 1168   4.922   4.742   9.380  0.8410  0.7243  1.5004
   16CHL1   C23 1169   5.145   4.734   9.349 -0.1158  0.2504 -0.8083
   16CHL1  H23A 1170   5.149   4.809   9.431 -1.9602 -1.1115  0.6192
   16CHL1  H23B 1171   5.224   4.656   9.345 -1.5021 -1.1755 -1.7409
   16CHL1   C24 1172   5.157   4.809   9.214  0.3409 -0.3809 -0.3430
   16CHL1  H24A 1173   5.054   4.837   9.183  0.5493  0.2192 -0.5074
   16CHL1  H24B 1174   5.211   4.905   9.225  2.6449 -1.7810  1.7459
   16CHL1   C25 1175   5.246   4.737   9.110 -0.1303  0.1101 -0.0595
   16CHL1   H25 1176   5.349   4.733   9.152  0.8942 -1.8520 -2.5276
   16CHL1   C26 1177   5.199   4.596   9.065 -0.4202  0.4657 -0.4936
   16CHL1  H26A 1178   5.269   4.548   8.994  0.7089 -0.3173  1.0748
   16CHL1  H26B 1179   5.199   4.518   9.144 -0.6165 -0.6039 -1.5360
   16CHL1  H26C 1180   5.099   4.610   9.019  0.3505  2.3196 -1.7184
   16CHL1   C27 1181   5.256   4.826   8.985  0.2569  0.2582 -0.1730
   16CHL1  H27A 1182   5.313   4.772   8.907 -0.5005 -1.5622  0.4958
   16CHL1  H27B 1183   5.152   4.834   8.948 -0.9608 -2.7232  2.2542
   16CHL1  H27C 1184   5.302   4.925   9.007  0.1141  0.1536  0.6208
   17CHL1    C3 1185   0.698   3.545  10.353 -0.7617  0.0583  0.5546
   17CHL1    H3 1186   0.723   3.654  10.348 -1.4684  0.2354  0.8009
   17CHL1    O3 1187   0.701   3.522  10.493  0.4399 -0.0861 -0.0232
   17CHL1   H3' 1188   0.638   3.580  10.536  2.2144  0.5457  1.8269
   17CHL1    C4 1189   0.568   3.515  10.298 -0.4902 -0.3021  0.7758
   17CHL1   H4A 1190   0.541   3.407  10.301  0.1080 -0.4615  0.5435
   17CHL1   H4B 1191   0.490   3.571  10.354 -0.9623 -0.6233  0.4481
   17CHL1    C5 1192   0.561   3.558  10.154  0.8810  0.0482  0.0653
   17CHL1    C6 1193   0.472   3.649  10.110 -0.4168  0.2606  0.1854
   17CHL1    H6 1194   0.409   3.702  10.183  0.0922  0.3682  0.5556
   17CHL1    C7 1195   0.459   3.692   9.967  0.3809 -1.0214 -0.8302
   17CHL1   H7A 1196   0.356   3.695   9.928 -1.0726 -0.4856  2.6789
   17CHL1   H7B 1197   0.499   3.792   9.939  0.4660 -1.2609 -1.5831
   17CHL1    C8 1198   0.529   3.592   9.873 -0.7609  0.0382 -0.8749
   17CHL1    H8 1199   0.473   3.498   9.851 -0.8750  0.2774 -1.6564
   17CHL1   C14 1200   0.545   3.663   9.732 -0.1473 -0.5093  0.3616
   17CHL1   H14 1201   0.586   3.763   9.759  1.1859 -1.1926  0.9126
   17CHL1   C15 1202   0.409   3.696   9.653 -0.4990  0.3798 -0.4518
   17CHL1  H15A 1203   0.346   3.607   9.635  0.2529 -0.5252  1.1464
   17CHL1  H15B 1204   0.356   3.783   9.697 -2.2967 -0.2886 -1.2414
   17CHL1   C16 1205   0.473   3.746   9.522  0.5347 -0.0513  0.1369
   17CHL1  H16A 1206   0.401   3.720   9.441  0.4597  0.4935  0.0211
   17CHL1  H16B 1207   0.476   3.857   9.529  1.8149 -0.1600  2.2224
   17CHL1   C17 1208   0.626   3.701   9.506  0.5640 -0.1644 -0.1260
   17CHL1   H17 1209   0.695   3.787   9.520 -0.9868  1.2033 -0.6088
   17CHL1   C13 1210   0.636   3.601   9.625  0.6511 -0.3584  0.4133
   17CHL1   C18 1211   0.582   3.461   9.585 -0.0190 -0.0240 -0.0477
   17CHL1  H18A 1212   0.479   3.477   9.548 -0.0033 -2.1896 -1.1697
   17CHL1  H18B 1213   0.644   3.420   9.503  0.1223  1.9019 -0.9556
   17CHL1  H18C 1214   0.573   3.383   9.664  0.8266  0.7973  0.8999
   17CHL1   C12 1215   0.775   3.589   9.678 -1.2784 -0.4456  0.1039
   17CHL1  H12A 1216   0.834   3.533   9.602  0.1977  2.6827 -1.2419
   17CHL1  H12B 1217   0.817   3.692   9.684 -0.6999 -0.6977  0.4456
   17CHL1   C11 1218   0.775   3.518   9.816 -0.1241 -0.4062  0.3725
   17CHL1  H11A 1219   0.754   3.414   9.782 -1.0292  0.0200 -0.4198
   17CHL1  H11B 1220   0.874   3.513   9.866 -0.3567 -2.0452  0.7233
   17CHL1    C9 1221   0.672   3.568   9.924 -0.5721  0.3200 -0.2980
   17CHL1    H9 1222   0.702   3.670   9.955 -3.5105  1.4278 -0.7747
   17CHL1   C10 1223   0.662   3.494  10.058 -0.6180 -0.1039 -0.2623
   17CHL1   C19 1224   0.630   3.341  10.033 -0.3954 -0.3560 -0.1008
   17CHL1  H19A 1225   0.536   3.324   9.977  1.1348 -1.5777 -2.4616
   17CHL1  H19B 1226   0.717   3.306   9.973  0.6950  3.9359 -1.4061
   17CHL1  H19C 1227   0.637   3.286  10.129  0.0957 -0.6590 -0.3028
   17CHL1    C1 1228   0.801   3.494  10.127  0.5597 -0.1821  0.4121
   17CHL1   H1A 1229   0.873   3.426  10.077  1.2185  0.8864 -0.1204
   17CHL1   H1B 1230   0.843   3.596  10.117  3.0297 -1.1950 -0.1769
   17CHL1    C2 1231   0.803   3.460  10.278 -0.0999 -0.0701 -0.9734
   17CHL1   H2A 1232   0.907   3.460  10.318 -0.3972 -0.9098 -0.1817
   17CHL1   H2B 1233   0.766   3.357  10.298  0.3192  0.0318  0.4821
   17CHL1   C20 1234   0.651   3.649   9.355 -0.3867  0.4722  0.5964
   17CHL1   H20 1235   0.597   3.554   9.335  0.2413  0.4336 -1.0925
   17CHL1   C21 1236   0.798   3.629   9.316  0.3768 -0.0687 -0.0252
   17CHL1  H21A 1237   0.848   3.728   9.321 -0.2796  0.2375  0.5742
   17CHL1  H21B 1238   0.806   3.590   9.212  0.5359  1.2377 -0.5250
   17CHL1  H21C 1239   0.851   3.564   9.389  1.3035 -0.0407 -0.6411
   17CHL1   C22 1240   0.590   3.749   9.250 -0.2987 -0.7026  0.0058
   17CHL1  H22A 1241   0.483   3.774   9.262 -0.1106  1.5001 -2.1329
   17CHL1  H22B 1242   0.638   3.848   9.260 -3.1591  0.8871 -0.8664
   17CHL1   C23 1243   0.613   3.709   9.099  0.0808  0.0501  0.0027
   17CHL1  H23A 1244   0.572   3.799   9.049  0.0752  1.3161  2.1278
   17CHL1  H23B 1245   0.719   3.706   9.064  0.4011 -0.2203  0.9602
   17CHL1   C24 1246   0.534   3.583   9.065 -0.6078 -0.4787 -0.0166
   17CHL1  H24A 1247   0.586   3.499   9.117  0.5679 -0.0232 -0.4194
   17CHL1  H24B 1248   0.432   3.590   9.107 -0.0840  0.8687  1.0964
   17CHL1   C25 1249   0.518   3.558   8.914 -0.1601 -0.1563 -0.8925
   17CHL1   H25 1250   0.424   3.502   8.899  1.0397 -2.3838 -0.5405
   17CHL1   C26 1251   0.501   3.684   8.834 -1.0624  0.5843  0.5667
   17CHL1  H26A 1252   0.472   3.653   8.732 -1.9327 -0.4475  1.1096
   17CHL1  H26B 1253   0.420   3.746   8.876 -2.5429 -2.9835  3.6261
   17CHL1  H26C 1254   0.600   3.735   8.828 -1.4689  1.2264 -1.0404
   17CHL1   C27 1255   0.640   3.480   8.862 -0.9691  0.8037 -0.1122
   17CHL1  H27A 1256   0.631   3.373   8.891  2.5131  0.6277  0.7598
   17CHL1  H27B 1257   0.649   3.471   8.751  0.2545  0.3142  0.0103
   17CHL1  H27C 1258   0.736   3.529   8.891 -0.7296  0.6091 -0.5551
   18CHL1    C3 1259   0.615   1.104  10.228  0.4791 -0.4905 -0.1512
   18CHL1    H3 1260   0.700   1.173  10.208  1.1751  0.0435  3.7236
   18CHL1    O3 1261   0.629   1.052  10.363  0.9018 -0.3964  0.0702
   18CHL1   H3' 1262   0.627   1.120  10.431 -0.2085 -0.8920  0.5524
   18CHL1    C4 1263   0.479   1.176  10.225  0.1816 -0.4350 -0.1571
   18CHL1   H4A 1264   0.394   1.113  10.258 -0.2791  0.1189 -0.2629
   18CHL1   H4B 1265   0.484   1.254  10.305  1.1686  0.6992 -1.2793
   18CHL1    C5 1266   0.446   1.218  10.080  0.7839  0.4302 -0.1329
   18CHL1    C6 1267   0.427   1.349  10.045 -0.0855 -0.2903  0.2002
   18CHL1    H6 1268   0.436   1.416  10.132 -0.5089 -1.1103  0.8991
   18CHL1    C7 1269   0.393   1.396   9.903  0.4798  0.1728  0.4463
   18CHL1   H7A 1270   0.308   1.465   9.921 -0.1578 -0.3460 -0.5210
   18CHL1   H7B 1271   0.472   1.467   9.868 -0.9792  1.5341 -0.2317
   18CHL1    C8 1272   0.359   1.290   9.802 -0.3290  0.4731  0.2275
   18CHL1    H8 1273   0.257   1.260   9.834  1.1374 -4.3221  1.2483
   18CHL1   C14 1274   0.358   1.345   9.660  0.0713  0.1337  0.2563
   18CHL1   H14 1275   0.461   1.379   9.632 -0.3013  0.7391 -0.4366
   18CHL1   C15 1276   0.258   1.460   9.626 -0.7203  0.1408 -0.5750
   18CHL1  H15A 1277   0.162   1.433   9.674  0.5711  0.9280  2.6732
   18CHL1  H15B 1278   0.298   1.558   9.662  0.9956 -0.6981 -0.0786
   18CHL1   C16 1279   0.240   1.444   9.474  0.3569 -0.3143  0.1710
   18CHL1  H16A 1280   0.135   1.421   9.446  0.3288 -0.2251  0.2049
   18CHL1  H16B 1281   0.278   1.533   9.420 -0.6043  0.3628  0.5718
   18CHL1   C17 1282   0.310   1.313   9.429 -0.2707  0.6212  0.3957
   18CHL1   H17 1283   0.403   1.356   9.385 -0.5015  0.2313 -0.5027
   18CHL1   C13 1284   0.333   1.234   9.556 -0.1599  0.2941  0.1673
   18CHL1   C18 1285   0.205   1.155   9.587 -0.8270 -0.6794  0.5538
   18CHL1  H18A 1286   0.120   1.226   9.578  2.9001  4.1264 -1.2722
   18CHL1  H18B 1287   0.203   1.070   9.515 -1.3552  0.4869 -0.8636
   18CHL1  H18C 1288   0.208   1.115   9.690  0.0387 -0.8936  0.4545
   18CHL1   C12 1289   0.452   1.147   9.563  0.2063  0.4190  0.2288
   18CHL1  H12A 1290   0.447   1.062   9.491  0.4250  0.6109 -0.0149
   18CHL1  H12B 1291   0.541   1.210   9.545 -1.3703  2.4743 -0.8339
   18CHL1   C11 1292   0.460   1.067   9.694  0.5254  0.4645  0.0095
   18CHL1  H11A 1293   0.376   0.995   9.699  0.0214  0.9600 -1.1103
   18CHL1  H11B 1294   0.554   1.010   9.710  0.6071  1.0926  2.0705
   18CHL1    C9 1295   0.454   1.165   9.820 -0.1911 -1.0654  0.1042
   18CHL1    H9 1296   0.554   1.211   9.804 -0.7850  0.1480 -0.2822
   18CHL1   C10 1297   0.455   1.104   9.969 -0.0565  0.5668  0.6116
   18CHL1   C19 1298   0.333   1.012   9.991  0.3820  0.4006 -0.2767
   18CHL1  H19A 1299   0.312   0.978  10.095  2.1074 -0.9596 -0.3278
   18CHL1  H19B 1300   0.237   1.061   9.963 -0.8302 -0.5436  1.9079
   18CHL1  H19C 1301   0.359   0.917   9.938  2.0045  0.5236  0.2499
   18CHL1    C1 1302   0.590   1.031   9.996  0.0013  0.0949  0.1280
   18CHL1   H1A 1303   0.578   0.934   9.944 -0.5629  0.5454 -0.5970
   18CHL1   H1B 1304   0.676   1.088   9.955 -0.0463  0.4063  0.4530
   18CHL1    C2 1305   0.615   0.985  10.135  0.2903 -0.0154 -0.0879
   18CHL1   H2A 1306   0.710   0.930  10.150  0.1796 -0.5354 -1.2386
   18CHL1   H2B 1307   0.533   0.925  10.181  1.3172  1.0308  3.4067
   18CHL1   C20 1308   0.247   1.247   9.306  0.2133 -0.3603 -0.7572
   18CHL1   H20 1309   0.147   1.211   9.337  0.0566 -0.1307 -1.0021
   18CHL1   C21 1310   0.310   1.119   9.253  0.4322 -0.5111  0.0194
   18CHL1  H21A 1311   0.416   1.136   9.223  0.9355 -0.4751  1.7407
   18CHL1  H21B 1312   0.245   1.084   9.169 -1.1345 -1.1100  1.4259
   18CHL1  H21C 1313   0.324   1.036   9.325  2.0573 -1.8849 -1.7566
   18CHL1   C22 1314   0.211   1.353   9.199 -0.5159  0.1860  0.1828
   18CHL1  H22A 1315   0.165   1.446   9.237 -0.4170  0.2995  0.0256
   18CHL1  H22B 1316   0.309   1.375   9.150 -0.2033  0.0558  0.7396
   18CHL1   C23 1317   0.120   1.300   9.083 -0.5402  0.9494 -0.9327
   18CHL1  H23A 1318   0.166   1.240   9.002 -0.4118 -0.9595  0.4793
   18CHL1  H23B 1319   0.045   1.232   9.129  0.5165  1.2918  1.4695
   18CHL1   C24 1320   0.035   1.415   9.028  0.2205 -0.3458 -0.4003
   18CHL1  H24A 1321  -0.010   1.470   9.114  0.7613 -1.6279  0.7592
   18CHL1  H24B 1322   0.096   1.493   8.979 -2.1891  1.6138 -0.4928
   18CHL1   C25 1323  -0.076   1.367   8.930  0.0384 -0.1980  0.0547
   18CHL1   H25 1324  -0.129   1.297   8.998  0.3250 -0.2665  0.2062
   18CHL1   C26 1325  -0.173   1.473   8.882  0.0006 -0.3073 -0.2854
   18CHL1  H26A 1326  -0.262   1.427   8.833 -0.2421  0.1183 -0.2535
   18CHL1  H26B 1327  -0.211   1.521   8.974  0.2701 -1.7979  0.6308
   18CHL1  H26C 1328  -0.129   1.544   8.808  1.2664  0.7477  1.4007
   18CHL1   C27 1329  -0.025   1.293   8.810  0.3701 -0.3237 -0.1433
   18CHL1  H27A 1330  -0.100   1.269   8.732  0.6593 -0.0687 -0.5020
   18CHL1  H27B 1331   0.059   1.358   8.776  0.0977  0.4775  0.6581
   18CHL1  H27C 1332  -0.002   1.189   8.843 -0.3271 -0.2167  0.7353
   19CHL1    C3 1333   3.440   3.656  10.275 -0.4441  0.5819 -0.1618
   19CHL1    H3 1334   3.354   3.601  10.230  0.7743 -2.2627  0.7589
   19CHL1    O3 1335   3.431   3.621  10.408  0.3175 -0.1604 -0.0364
   19CHL1   H3' 1336   3.429   3.701  10.461  0.3074  0.4113 -0.8858
   19CHL1    C4 1337   3.573   3.604  10.220  0.7042 -0.1003 -0.4935
   19CHL1   H4A 1338   3.656   3.644  10.283  0.6723 -1.6369  0.5680
   19CHL1   H4B 1339   3.579   3.494  10.231  0.3149 -0.2538 -1.6559
   19CHL1    C5 1340   3.575   3.642  10.072 -0.7579  0.4646 -0.5756
   19CHL1    C6 1341   3.585   3.546   9.978 -0.7158 -0.4562  0.1840
   19CHL1    H6 1342   3.586   3.438  10.000  0.3410 -0.2959  0.9953
   19CHL1    C7 1343   3.594   3.565   9.828  1.0428 -0.4112 -0.2497
   19CHL1   H7A 1344   3.661   3.490   9.781  0.0669 -0.6534 -1.3004
   19CHL1   H7B 1345   3.492   3.563   9.786  1.1689  0.4187 -0.6169
   19CHL1    C8 1346   3.636   3.717   9.806  0.0152  1.0084  0.2505
   19CHL1    H8 1347   3.738   3.745   9.839  0.0114  0.6048  0.6084
   19CHL1   C14 1348   3.611   3.742   9.653  0.1648 -0.5998 -0.5644
   19CHL1   H14 1349   3.502   3.729   9.636  0.1010 -0.3488 -0.3539
   19CHL1   C15 1350   3.666   3.652   9.547  0.1142  0.4226  0.4953
   19CHL1  H15A 1351   3.775   3.649   9.569  0.0225  1.6675  1.1900
   19CHL1  H15B 1352   3.633   3.546   9.539 -4.0174  1.6926 -2.4591
   19CHL1   C16 1353   3.644   3.727   9.419  0.3453  0.7193  0.1941
   19CHL1  H16A 1354   3.731   3.716   9.350  0.3791 -2.5550  0.6158
   19CHL1  H16B 1355   3.554   3.681   9.373 -1.0028  3.5501 -0.2202
   19CHL1   C17 1356   3.622   3.873   9.458 -0.2312  0.6060 -0.0511
   19CHL1   H17 1357   3.514   3.892   9.445 -0.4663 -1.6443 -2.2017
   19CHL1   C13 1358   3.653   3.886   9.609  0.3234 -0.3700  0.4416
   19CHL1   C18 1359   3.804   3.902   9.633  0.7513 -0.1461 -0.0694
   19CHL1  H18A 1360   3.834   4.003   9.601 -1.0829  0.4012 -0.1907
   19CHL1  H18B 1361   3.836   3.905   9.739  0.3432  0.4106  0.0410
   19CHL1  H18C 1362   3.877   3.837   9.580  0.8034 -0.0535 -0.1103
   19CHL1   C12 1363   3.555   3.973   9.690 -0.3272 -0.3409 -0.8933
   19CHL1  H12A 1364   3.566   4.076   9.651  1.1535  0.2755  1.0006
   19CHL1  H12B 1365   3.452   3.942   9.659 -0.1139  0.3030 -2.2972
   19CHL1   C11 1366   3.568   3.968   9.846  0.3198  0.1996 -0.6788
   19CHL1  H11A 1367   3.663   4.021   9.865  0.8966  1.3037 -5.4487
   19CHL1  H11B 1368   3.479   4.022   9.885 -0.6937 -1.6175 -0.3439
   19CHL1    C9 1369   3.552   3.817   9.891 -0.6677  0.6533 -0.2819
   19CHL1    H9 1370   3.446   3.796   9.868 -1.8871  2.3445  3.1457
   19CHL1   C10 1371   3.565   3.795  10.042  0.5344  0.1725  0.3763
   19CHL1   C19 1372   3.697   3.867  10.093  0.4146  0.2695 -0.0620
   19CHL1  H19A 1373   3.789   3.817  10.056 -0.1874 -1.1362  0.2711
   19CHL1  H19B 1374   3.703   3.977  10.081 -0.8813  0.2033 -1.6926
   19CHL1  H19C 1375   3.705   3.846  10.202  1.1256  0.2720 -0.1082
   19CHL1    C1 1376   3.440   3.859  10.114 -0.5970 -0.1836  0.2622
   19CHL1   H1A 1377   3.420   3.969  10.111 -4.2583 -0.7595 -2.4185
   19CHL1   H1B 1378   3.350   3.826  10.058 -1.2750  0.7862  0.7540
   19CHL1    C2 1379   3.434   3.813  10.257 -0.1559 -0.0559 -0.4811
   19CHL1   H2A 1380   3.345   3.851  10.311  0.6119  1.8116 -0.4555
   19CHL1   H2B 1381   3.527   3.857  10.297  1.5598 -2.8882 -1.0775
   19CHL1   C20 1382   3.695   3.967   9.373  0.5336 -0.5704  0.8498
   19CHL1   H20 1383   3.803   3.948   9.391  0.4220 -2.8796 -0.5069
   19CHL1   C21 1384   3.665   4.114   9.415  0.0097  0.0417  0.7556
   19CHL1  H21A 1385   3.711   4.137   9.513 -0.1341  1.0083  0.6048
   19CHL1  H21B 1386   3.555   4.124   9.418 -0.0310  0.3296 -0.8128
   19CHL1  H21C 1387   3.704   4.191   9.345 -1.0589  2.3265  2.5317
   19CHL1   C22 1388   3.658   3.964   9.222 -0.1120  0.2060 -0.4649
   19CHL1  H22A 1389   3.645   3.855   9.200  1.7312 -0.2876  0.7145
   19CHL1  H22B 1390   3.561   4.017   9.206  0.0421  0.5576 -0.2314
   19CHL1   C23 1391   3.763   4.022   9.135 -0.2888  0.3527  0.3368
   19CHL1  H23A 1392   3.764   4.133   9.133  1.1002  0.3482 -0.4435
   19CHL1  H23B 1393   3.866   3.994   9.165  1.1445  2.2628 -2.3666
   19CHL1   C24 1394   3.740   3.978   8.989  0.2517  0.5778 -0.2577
   19CHL1  H24A 1395   3.758   3.869   8.988  1.3512  0.7492 -1.3698
   19CHL1  H24B 1396   3.641   3.994   8.942  0.9307  1.6141 -1.3965
   19CHL1   C25 1397   3.853   4.030   8.894 -0.0762  0.2486  0.6773
   19CHL1   H25 1398   3.867   4.137   8.919 -2.2676  0.3254  1.8865
   19CHL1   C26 1399   3.979   3.958   8.917  0.0266  0.9080 -0.3360
   19CHL1  H26A 1400   3.956   3.851   8.897  1.6196  0.2057  1.3144
   19CHL1  H26B 1401   4.055   4.000   8.848  1.1028 -2.1374 -1.1540
   19CHL1  H26C 1402   4.014   3.976   9.021 -1.4074  2.0147 -0.0024
   19CHL1   C27 1403   3.801   4.018   8.747  0.5216  0.2261 -0.5898
   19CHL1  H27A 1404   3.711   4.082   8.742 -1.7444 -2.5391  1.6094
   19CHL1  H27B 1405   3.876   4.059   8.675  2.0859 -1.4481 -0.0086
   19CHL1  H27C 1406   3.768   3.915   8.719  0.8361 -0.1102  0.2493
   20CHL1    C3 1407   5.679   4.750  10.309  0.7324  0.0537  0.5063
   20CHL1    H3 1408   5.688   4.853  10.269 -0.2447 -0.2147 -0.4410
   20CHL1    O3 1409   5.665   4.749  10.453 -0.7174 -0.2213  0.2473
   20CHL1   H3' 1410   5.746   4.787  10.488 -1.7231  0.7428  1.6569
   20CHL1    C4 1411   5.546   4.696  10.256  0.0723 -1.1993 -0.0485
   20CHL1   H4A 1412   5.539   4.602  10.315  2.8437 -0.4725  1.6280
   20CHL1   H4B 1413   5.465   4.762  10.293  1.3435  1.1730 -1.2492
   20CHL1    C5 1414   5.551   4.677  10.106 -0.3287  0.3950  0.1400
   20CHL1    C6 1415   5.448   4.724  10.030  0.0200  0.2911  0.3433
   20CHL1    H6 1416   5.364   4.777  10.077 -1.3600 -1.5571  0.1078
   20CHL1    C7 1417   5.438   4.707   9.880 -0.2615 -0.0516  0.3906
   20CHL1   H7A 1418   5.333   4.686   9.849 -1.2727  2.1896  1.9627
   20CHL1   H7B 1419   5.461   4.804   9.832  0.2652 -0.8203 -0.9616
   20CHL1    C8 1420   5.539   4.601   9.826 -0.7141  0.2170 -0.1277
   20CHL1    H8 1421   5.504   4.499   9.851  0.6889 -0.4902 -0.9627
   20CHL1   C14 1422   5.563   4.632   9.682  0.7379  0.8599 -0.2079
   20CHL1   H14 1423   5.603   4.735   9.665 -0.8984  1.1381 -2.8925
   20CHL1   C15 1424   5.438   4.634   9.591 -0.1648  0.0082  0.1050
   20CHL1  H15A 1425   5.374   4.548   9.619  0.2349  0.4244  2.5024
   20CHL1  H15B 1426   5.373   4.723   9.579  1.7934  1.0896 -5.0107
   20CHL1   C16 1427   5.502   4.615   9.450  0.5297 -0.8147  0.3258
   20CHL1  H16A 1428   5.445   4.537   9.396 -1.1486  0.3610  0.3085
   20CHL1  H16B 1429   5.487   4.704   9.385  1.0270 -1.7432 -1.0967
   20CHL1   C17 1430   5.650   4.561   9.472 -0.3172 -0.3385  0.9141
   20CHL1   H17 1431   5.708   4.652   9.446 -1.5361  0.1243 -0.3251
   20CHL1   C13 1432   5.663   4.533   9.616 -0.4281  0.2311  0.1311
   20CHL1   C18 1433   5.610   4.389   9.640  0.0880 -0.6402 -0.4939
   20CHL1  H18A 1434   5.676   4.312   9.595  0.8241  0.5905 -1.6259
   20CHL1  H18B 1435   5.600   4.358   9.746  0.4912  1.3165  0.1596
   20CHL1  H18C 1436   5.513   4.382   9.587  0.9881 -0.1155 -2.3161
   20CHL1   C12 1437   5.804   4.558   9.683 -0.3352 -0.0963 -0.5857
   20CHL1  H12A 1438   5.881   4.492   9.637 -0.9737 -0.0935 -1.6912
   20CHL1  H12B 1439   5.838   4.664   9.675  0.7772 -0.3867  0.0884
   20CHL1   C11 1440   5.795   4.530   9.832  0.2387  1.0088 -0.7376
   20CHL1  H11A 1441   5.787   4.420   9.848 -2.0157  1.3177  0.6134
   20CHL1  H11B 1442   5.895   4.568   9.863  0.3559  0.4122 -0.3606
   20CHL1    C9 1443   5.679   4.611   9.900 -0.2033 -0.3948 -0.6673
   20CHL1    H9 1444   5.705   4.716   9.877 -2.4599  0.2649 -0.4857
   20CHL1   C10 1445   5.672   4.600  10.051  0.6046 -0.3786  0.8719
   20CHL1   C19 1446   5.656   4.452  10.085 -0.0677 -0.4837 -0.4257
   20CHL1  H19A 1447   5.747   4.401  10.048  1.9717  2.5239  0.0925
   20CHL1  H19B 1448   5.644   4.434  10.194  0.7911 -1.3598 -0.4655
   20CHL1  H19C 1449   5.567   4.408  10.035 -1.4049 -0.1537  1.5667
   20CHL1    C1 1450   5.803   4.655  10.111 -0.3405  0.3983 -0.8320
   20CHL1   H1A 1451   5.889   4.585  10.097 -0.9676 -0.8446  1.1478
   20CHL1   H1B 1452   5.830   4.753  10.065  1.9829 -0.4539 -1.4506
   20CHL1    C2 1453   5.797   4.672  10.264 -0.0671 -0.1926  0.0932
   20CHL1   H2A 1454   5.895   4.718  10.290  0.3879  0.7972 -2.9181
   20CHL1   H2B 1455   5.797   4.575  10.317 -2.6752 -0.7946 -0.8822
   20CHL1   C20 1456   5.696   4.456   9.364 -0.0835  0.1763  0.2415
   20CHL1   H20 1457   5.654   4.361   9.401  1.3235 -0.0049  1.5049
   20CHL1   C21 1458   5.849   4.442   9.360  0.5048  0.3912  0.7280
   20CHL1  H21A 1459   5.892   4.393   9.450  0.4066 -0.5862  0.2610
   20CHL1  H21B 1460   5.889   4.545   9.364  1.1827  0.3540 -2.3741
   20CHL1  H21C 1461   5.889   4.410   9.261 -0.9286 -0.6974  0.4749
   20CHL1   C22 1462   5.651   4.496   9.218  0.6805 -0.0388 -0.3787
   20CHL1  H22A 1463   5.681   4.410   9.155 -0.7805 -0.0586 -1.0829
   20CHL1  H22B 1464   5.541   4.498   9.205  0.7238 -0.1794 -0.7810
   20CHL1   C23 1465   5.712   4.630   9.159 -0.2694 -0.0513 -0.4178
   20CHL1  H23A 1466   5.653   4.710   9.209  0.3828 -0.9024  1.7954
   20CHL1  H23B 1467   5.813   4.651   9.201 -0.0638 -0.7978 -0.5196
   20CHL1   C24 1468   5.703   4.626   9.005  0.0706 -0.5371 -0.0397
   20CHL1  H24A 1469   5.595   4.623   8.979 -0.2279  0.2810  1.0537
   20CHL1  H24B 1470   5.745   4.721   8.967 -0.5892  0.7510  2.2472
   20CHL1   C25 1471   5.780   4.509   8.934  0.3078 -0.1279  0.4481
   20CHL1   H25 1472   5.733   4.412   8.962  1.5210 -1.3846 -1.6450
   20CHL1   C26 1473   5.754   4.511   8.777  0.9101 -0.2290 -0.8334
   20CHL1  H26A 1474   5.777   4.613   8.740  0.2811 -0.5291 -2.1355
   20CHL1  H26B 1475   5.816   4.435   8.726  0.6960 -0.8450 -0.1970
   20CHL1  H26C 1476   5.647   4.487   8.761  1.1239  0.4415 -3.8918
   20CHL1   C27 1477   5.923   4.513   8.966 -0.2349 -0.1490 -0.1124
   20CHL1  H27A 1478   5.968   4.419   8.930  1.9022  0.7334  0.1126
   20CHL1  H27B 1479   5.970   4.602   8.917 -0.0162 -0.6577 -0.8394
   20CHL1  H27C 1480   5.943   4.522   9.075 -2.3527  1.0568  0.2301
   21CHL1    C3 1481   5.612   0.667  10.221 -0.3487  1.0261 -0.3781
   21CHL1    H3 1482   5.508   0.634  10.243 -0.2038 -0.2553 -1.5073
   21CHL1    O3 1483   5.668   0.706  10.347 -0.2427 -0.0525 -0.6572
   21CHL1   H3' 1484   5.649   0.799  10.362 -2.2338 -0.5658  0.4637
   21CHL1    C4 1485   5.686   0.535  10.175  0.3978  0.1686  0.1232
   21CHL1   H4A 1486   5.796   0.538  10.191  0.6426 -1.9174 -0.8208
   21CHL1   H4B 1487   5.651   0.449  10.236  0.2069  0.1534 -0.0054
   21CHL1    C5 1488   5.669   0.503  10.024 -0.1229  0.4560 -0.2302
   21CHL1    C6 1489   5.620   0.379   9.983 -0.6740 -0.1384 -0.3002
   21CHL1    H6 1490   5.599   0.303  10.059  0.6194  0.1933  0.4261
   21CHL1    C7 1491   5.614   0.340   9.842 -0.1446  0.4898  0.4656
   21CHL1   H7A 1492   5.660   0.239   9.835  1.9337  1.3631  0.6719
   21CHL1   H7B 1493   5.510   0.331   9.806 -0.1858  3.1857 -0.3019
   21CHL1    C8 1494   5.678   0.447   9.746 -0.3444 -0.0323  0.4429
   21CHL1    H8 1495   5.787   0.434   9.761  0.1944  3.4444  0.3781
   21CHL1   C14 1496   5.640   0.426   9.598 -0.3635 -0.3276  0.2881
   21CHL1   H14 1497   5.533   0.455   9.599 -0.4638 -0.5749  2.8917
   21CHL1   C15 1498   5.639   0.280   9.542  0.1501  0.2025  0.2973
   21CHL1  H15A 1499   5.740   0.233   9.547  0.1661  0.3707  2.1457
   21CHL1  H15B 1500   5.565   0.208   9.583  1.0294 -0.9836 -0.1360
   21CHL1   C16 1501   5.594   0.307   9.396 -0.0662 -0.9594  0.2618
   21CHL1  H16A 1502   5.637   0.241   9.318 -0.0953  0.7705 -1.3217
   21CHL1  H16B 1503   5.484   0.292   9.397 -0.7122  2.8180  1.1591
   21CHL1   C17 1504   5.632   0.453   9.364  0.0550  0.0525  0.2316
   21CHL1   H17 1505   5.534   0.505   9.359 -0.0967 -0.3553 -2.0168
   21CHL1   C13 1506   5.700   0.516   9.491  1.0658  0.4939  0.1444
   21CHL1   C18 1507   5.846   0.503   9.497 -0.2615 -0.7392  0.0108
   21CHL1  H18A 1508   5.877   0.397   9.504  1.1525 -0.4879 -1.7857
   21CHL1  H18B 1509   5.899   0.549   9.411 -0.0541 -0.4317  0.2994
   21CHL1  H18C 1510   5.891   0.535   9.594  0.2617 -1.9985  0.2055
   21CHL1   C12 1511   5.664   0.662   9.527  0.3196 -0.0767 -0.3154
   21CHL1  H12A 1512   5.721   0.738   9.471  0.0026 -0.2730 -0.9117
   21CHL1  H12B 1513   5.553   0.668   9.524  0.2798 -0.6802 -0.2364
   21CHL1   C11 1514   5.688   0.693   9.680  0.0528  0.2162 -0.2352
   21CHL1  H11A 1515   5.793   0.724   9.697 -0.3819  1.7729 -0.2355
   21CHL1  H11B 1516   5.616   0.775   9.702 -0.9587 -1.3376  2.8400
   21CHL1    C9 1517   5.640   0.592   9.783 -0.1291  0.8972 -0.0917
   21CHL1    H9 1518   5.530   0.607   9.777  0.0588  2.0315 -1.1443
   21CHL1   C10 1519   5.683   0.625   9.927 -0.1386  0.0861  0.1578
   21CHL1   C19 1520   5.843   0.652   9.939 -0.0469  0.0292 -0.8044
   21CHL1  H19A 1521   5.903   0.562   9.912 -2.0200 -1.4165 -0.6179
   21CHL1  H19B 1522   5.880   0.732   9.871 -0.6900  1.7360  0.7750
   21CHL1  H19C 1523   5.863   0.679  10.044 -1.0773 -0.1766 -0.5361
   21CHL1    C1 1524   5.596   0.734   9.980 -0.1235  0.1385 -0.2254
   21CHL1   H1A 1525   5.598   0.821   9.910  0.3239  1.3500  1.2406
   21CHL1   H1B 1526   5.486   0.717   9.981 -0.0662 -0.2888 -0.7636
   21CHL1    C2 1527   5.623   0.778  10.128 -0.0959 -0.1513  0.2883
   21CHL1   H2A 1528   5.565   0.869  10.156 -1.5908 -1.2800  0.9520
   21CHL1   H2B 1529   5.728   0.814  10.138 -0.5384  1.0943  0.6953
   21CHL1   C20 1530   5.700   0.476   9.231  0.2039  0.3294 -0.0183
   21CHL1   H20 1531   5.799   0.426   9.237  1.1487  1.6874 -2.8452
   21CHL1   C21 1532   5.706   0.621   9.195 -0.5987 -0.1136 -0.2192
   21CHL1  H21A 1533   5.613   0.683   9.205 -0.7059 -0.5493  2.3701
   21CHL1  H21B 1534   5.754   0.632   9.096  4.4060 -0.6057  1.8407
   21CHL1  H21C 1535   5.782   0.657   9.268  0.8232  2.7283 -2.8497
   21CHL1   C22 1536   5.628   0.412   9.113  0.0878  0.2301 -0.3464
   21CHL1  H22A 1537   5.681   0.443   9.020 -0.7437  1.4217 -0.4440
   21CHL1  H22B 1538   5.643   0.302   9.118 -1.9003 -0.2751 -3.2569
   21CHL1   C23 1539   5.479   0.435   9.098  0.3040 -0.6752  0.0326
   21CHL1  H23A 1540   5.427   0.401   9.190 -2.0035  0.5642 -0.7217
   21CHL1  H23B 1541   5.451   0.542   9.086 -0.7224 -0.9179  0.1253
   21CHL1   C24 1542   5.413   0.366   8.974  0.0064  0.1290 -0.1455
   21CHL1  H24A 1543   5.308   0.400   8.966 -1.1093 -2.0425  3.0987
   21CHL1  H24B 1544   5.469   0.411   8.890 -2.8137  3.1017 -0.6250
   21CHL1   C25 1545   5.404   0.215   8.988  0.0468 -0.1687  0.0741
   21CHL1   H25 1546   5.507   0.177   9.000 -0.5517 -1.7115  0.5767
   21CHL1   C26 1547   5.318   0.175   9.106  0.6249 -0.4039 -0.0569
   21CHL1  H26A 1548   5.220   0.228   9.112 -0.1856 -1.9966  2.0309
   21CHL1  H26B 1549   5.296   0.066   9.100 -1.1272 -0.0965  0.1923
   21CHL1  H26C 1550   5.382   0.198   9.194  2.0635  0.9782 -1.4183
   21CHL1   C27 1551   5.330   0.162   8.856 -0.3812  1.0257 -0.0735
   21CHL1  H27A 1552   5.301   0.056   8.874  0.8473  0.7520  0.4080
   21CHL1  H27B 1553   5.233   0.214   8.838 -2.7682 -3.1772 -0.6541
   21CHL1  H27C 1554   5.411   0.176   8.781  0.6289  0.0203  0.7994
   22CHL1    C3 1555   4.112   0.947  10.153 -0.0215  0.6089 -0.2974
   22CHL1    H3 1556   4.146   0.845  10.127  1.7166  0.7858  1.1276
   22CHL1    O3 1557   4.085   0.938  10.287 -0.0525 -0.3083 -0.2744
   22CHL1   H3' 1558   4.062   1.026  10.317 -3.0267 -0.9756 -0.2837
   22CHL1    C4 1559   4.227   1.033  10.118  0.7219  0.2475  0.3882
   22CHL1   H4A 1560   4.214   1.136  10.157  0.9508 -0.4124  2.3038
   22CHL1   H4B 1561   4.318   1.010  10.178  0.4355 -1.6888  0.1421
   22CHL1    C5 1562   4.262   1.038   9.969  0.1735 -0.1291 -0.3320
   22CHL1    C6 1563   4.384   1.008   9.919 -0.4351 -0.9115 -0.5083
   22CHL1    H6 1564   4.468   0.999   9.989 -0.4238  1.1072 -0.1821
   22CHL1    C7 1565   4.417   1.027   9.771  0.2431  0.1933 -0.4157
   22CHL1   H7A 1566   4.517   1.073   9.756  1.0762 -0.5067  2.3569
   22CHL1   H7B 1567   4.425   0.926   9.725  0.5126  0.1996 -0.3858
   22CHL1    C8 1568   4.310   1.105   9.692 -0.6257  0.1536 -0.0462
   22CHL1    H8 1569   4.316   1.216   9.699 -1.0825  0.1002  1.7448
   22CHL1   C14 1570   4.325   1.071   9.539  0.1523 -0.6428 -0.3355
   22CHL1   H14 1571   4.310   0.961   9.536  0.4126 -0.6756 -0.4458
   22CHL1   C15 1572   4.458   1.106   9.470  0.2729  0.0825  0.3839
   22CHL1  H15A 1573   4.476   1.215   9.483 -0.9270  0.4780 -0.9911
   22CHL1  H15B 1574   4.537   1.032   9.495  2.1758  1.2980 -1.7301
   22CHL1   C16 1575   4.425   1.095   9.319 -0.1467  0.7110  0.6939
   22CHL1  H16A 1576   4.462   1.168   9.245  0.1983 -0.0989  0.0429
   22CHL1  H16B 1577   4.460   0.998   9.276 -0.5214  1.2342 -0.8136
   22CHL1   C17 1578   4.266   1.085   9.309 -0.1154  0.3243 -0.1458
   22CHL1   H17 1579   4.248   0.975   9.306  1.9573 -0.0591  0.2951
   22CHL1   C13 1580   4.214   1.130   9.449 -0.1578 -0.3340  0.4726
   22CHL1   C18 1581   4.220   1.285   9.453 -0.3325  0.1517  0.1499
   22CHL1  H18A 1582   4.310   1.331   9.407  0.3851  0.7997  2.0939
   22CHL1  H18B 1583   4.133   1.326   9.398  0.6769  0.4623 -1.2783
   22CHL1  H18C 1584   4.223   1.333   9.553  0.5394 -2.2757  1.3645
   22CHL1   C12 1585   4.083   1.085   9.500  0.2775 -0.3647  0.2483
   22CHL1  H12A 1586   4.007   1.138   9.438  1.4774 -0.2204 -1.1334
   22CHL1  H12B 1587   4.062   0.976   9.492 -0.8656 -0.2031  0.7601
   22CHL1   C11 1588   4.062   1.130   9.649  0.2095  0.3348  0.7187
   22CHL1  H11A 1589   4.053   1.240   9.662 -2.7941  0.2471  0.0988
   22CHL1  H11B 1590   3.960   1.102   9.682  0.2232  0.6823  1.0669
   22CHL1    C9 1591   4.174   1.066   9.734  0.1026 -0.1178  0.0029
   22CHL1    H9 1592   4.168   0.957   9.716 -0.7149  0.1559 -1.5838
   22CHL1   C10 1593   4.143   1.075   9.884  0.2365  0.1617 -0.6323
   22CHL1   C19 1594   4.105   1.225   9.915  0.2506  0.0944  0.8311
   22CHL1  H19A 1595   4.095   1.235  10.025 -1.9791 -2.0379  0.9089
   22CHL1  H19B 1596   4.178   1.294   9.867 -0.3723  0.3713  0.2665
   22CHL1  H19C 1597   4.013   1.264   9.866  0.8105  1.1433  0.5944
   22CHL1    C1 1598   4.021   0.989   9.920  0.5417  0.0214 -0.1852
   22CHL1   H1A 1599   3.931   1.005   9.857  0.7980 -2.4787 -1.3101
   22CHL1   H1B 1600   4.047   0.884   9.891 -2.3806 -0.5360 -1.1055
   22CHL1    C2 1601   3.990   0.981  10.068  0.2973  0.1378  0.1929
   22CHL1   H2A 1602   3.911   0.905  10.085  0.7028 -0.5897 -1.0459
   22CHL1   H2B 1603   3.949   1.080  10.098 -2.9778 -1.0734  0.1592
   22CHL1   C20 1604   4.205   1.152   9.181  0.1071 -0.1093  0.2474
   22CHL1   H20 1605   4.218   1.263   9.182 -1.9443  0.2458 -1.7541
   22CHL1   C21 1606   4.058   1.117   9.169  0.0287 -0.3531 -0.1085
   22CHL1  H21A 1607   4.037   1.009   9.185  1.8931 -0.6746  0.4588
   22CHL1  H21B 1608   4.017   1.134   9.067 -0.3576  0.3644  0.1615
   22CHL1  H21C 1609   3.991   1.177   9.235  0.1811 -1.3760  1.0162
   22CHL1   C22 1610   4.267   1.100   9.049 -0.2178  0.1693 -0.3515
   22CHL1  H22A 1611   4.374   1.076   9.061 -0.3686  0.5635  2.2979
   22CHL1  H22B 1612   4.224   1.000   9.028  0.4368 -0.1189 -0.3295
   22CHL1   C23 1613   4.245   1.194   8.930  0.2618 -0.2216 -0.1323
   22CHL1  H23A 1614   4.138   1.201   8.903  0.8846 -2.9149 -4.1897
   22CHL1  H23B 1615   4.280   1.296   8.959 -3.6333  1.5095 -0.9571
   22CHL1   C24 1616   4.311   1.145   8.798 -0.4853 -0.6326  0.2584
   22CHL1  H24A 1617   4.307   1.229   8.725  0.1488  0.3435  1.3244
   22CHL1  H24B 1618   4.416   1.115   8.818  0.0808 -0.2833 -1.8916
   22CHL1   C25 1619   4.249   1.023   8.730 -0.0935 -0.2193  0.0237
   22CHL1   H25 1620   4.248   0.947   8.811  1.9118  1.8864  2.1824
   22CHL1   C26 1621   4.105   1.057   8.685 -0.2759 -0.0123  0.2436
   22CHL1  H26A 1622   4.067   0.969   8.627  3.3952 -0.3599 -1.9009
   22CHL1  H26B 1623   4.052   1.071   8.782  0.5540 -1.1468  0.8961
   22CHL1  H26C 1624   4.085   1.147   8.624 -0.2783  1.9101  2.9216
   22CHL1   C27 1625   4.329   0.987   8.601 -0.3960  1.1279  0.1407
   22CHL1  H27A 1626   4.271   0.916   8.537  2.5089 -2.3592  0.9871
   22CHL1  H27B 1627   4.342   1.080   8.541 -0.6600  0.0620 -1.6600
   22CHL1  H27C 1628   4.424   0.930   8.610  0.0699  1.0696 -3.4816
   23CHL1    C3 1629   1.721   3.765  10.114  0.3065  0.5045  0.8252
   23CHL1    H3 1630   1.825   3.805  10.107  0.4128  0.1370  0.2292
   23CHL1    O3 1631   1.679   3.802  10.248  0.4949 -0.0853  0.1124
   23CHL1   H3' 1632   1.632   3.721  10.271  0.6722 -1.2044 -3.0107
   23CHL1    C4 1633   1.625   3.832  10.015 -0.3889  0.5862 -0.1798
   23CHL1   H4A 1634   1.518   3.811  10.039 -0.0624 -1.2107 -0.1949
   23CHL1   H4B 1635   1.633   3.941  10.034 -2.1105  0.5826  0.7525
   23CHL1    C5 1636   1.645   3.787   9.869 -0.3545 -0.3593 -0.3059
   23CHL1    C6 1637   1.667   3.872   9.779  0.0770 -0.1272  0.1712
   23CHL1    H6 1638   1.649   3.977   9.806  0.1669  0.8278 -3.0195
   23CHL1    C7 1639   1.675   3.847   9.635  0.1290  0.3893  0.6032
   23CHL1   H7A 1640   1.595   3.901   9.580  1.8353  1.6297 -0.8070
   23CHL1   H7B 1641   1.768   3.890   9.591 -0.1404 -0.3268 -0.7513
   23CHL1    C8 1642   1.656   3.696   9.593 -0.1206  0.2803  0.5276
   23CHL1    H8 1643   1.547   3.676   9.590  0.0853 -0.7708 -0.4789
   23CHL1   C14 1644   1.724   3.655   9.460  0.0065 -0.2462  0.5994
   23CHL1   H14 1645   1.833   3.654   9.479  0.0429 -2.4789  0.5035
   23CHL1   C15 1646   1.697   3.748   9.335  0.3473  0.6621  0.1195
   23CHL1  H15A 1647   1.586   3.755   9.339  0.3252 -0.1111  1.7804
   23CHL1  H15B 1648   1.746   3.847   9.346 -0.4874  0.9754  1.1817
   23CHL1   C16 1649   1.744   3.660   9.220 -0.9967 -0.1808 -0.8727
   23CHL1  H16A 1650   1.661   3.649   9.147 -0.9259 -1.8451 -0.7462
   23CHL1  H16B 1651   1.833   3.693   9.162 -0.0335  0.0860  0.6902
   23CHL1   C17 1652   1.772   3.521   9.279 -0.6585  0.5437 -0.0598
   23CHL1   H17 1653   1.880   3.521   9.304 -0.8066  0.0563  0.5997
   23CHL1   C13 1654   1.699   3.509   9.414  0.1249 -0.3154 -0.3350
   23CHL1   C18 1655   1.550   3.484   9.385  0.0160  0.3743 -0.3417
   23CHL1  H18A 1656   1.535   3.376   9.365  0.3627  0.4658 -1.1384
   23CHL1  H18B 1657   1.487   3.516   9.471 -0.2173  1.5646 -0.9309
   23CHL1  H18C 1658   1.523   3.540   9.292  3.2119  1.6109 -0.6636
   23CHL1   C12 1659   1.763   3.417   9.519 -0.1839 -0.8529 -0.0433
   23CHL1  H12A 1660   1.760   3.306   9.507  1.8585 -0.7284 -2.4771
   23CHL1  H12B 1661   1.873   3.432   9.521 -0.0158 -1.1775 -2.9081
   23CHL1   C11 1662   1.705   3.446   9.661  0.1097  0.1673 -0.1693
   23CHL1  H11A 1663   1.599   3.410   9.661 -0.1126  0.8012  0.9814
   23CHL1  H11B 1664   1.773   3.389   9.727  0.9267  1.2298 -0.0754
   23CHL1    C9 1665   1.712   3.597   9.699  0.7631 -1.1214 -0.6429
   23CHL1    H9 1666   1.817   3.630   9.719  1.0525 -2.9675  1.1659
   23CHL1   C10 1667   1.659   3.632   9.843  0.1138 -0.0475 -0.0659
   23CHL1   C19 1668   1.517   3.574   9.871 -0.1716  0.1659  0.3080
   23CHL1  H19A 1669   1.465   3.606   9.964  1.0589  0.5190  0.8894
   23CHL1  H19B 1670   1.445   3.588   9.787  1.4522 -0.2465 -1.2087
   23CHL1  H19C 1671   1.527   3.464   9.882 -0.1546  0.0955 -0.3799
   23CHL1    C1 1672   1.761   3.565   9.951 -0.3096  0.5148  0.6755
   23CHL1   H1A 1673   1.755   3.455   9.943  0.1114  0.6093 -1.8322
   23CHL1   H1B 1674   1.864   3.592   9.921 -0.5575  1.8286  0.9472
   23CHL1    C2 1675   1.721   3.613  10.097 -0.0407 -0.6133 -0.0999
   23CHL1   H2A 1676   1.788   3.568  10.173 -0.7350  0.3925  1.1396
   23CHL1   H2B 1677   1.621   3.570  10.120 -0.5370 -0.5467 -1.9436
   23CHL1   C20 1678   1.747   3.413   9.172  0.4240  0.0647  0.1459
   23CHL1   H20 1679   1.639   3.389   9.158  0.0785  2.8480 -3.4168
   23CHL1   C21 1680   1.804   3.279   9.238  0.8520 -0.6956 -0.3348
   23CHL1  H21A 1681   1.734   3.239   9.314  1.9490  1.3464  1.8613
   23CHL1  H21B 1682   1.903   3.302   9.282 -0.1931  2.8585  0.5065
   23CHL1  H21C 1683   1.797   3.203   9.157 -0.7661 -0.2475 -0.6506
   23CHL1   C22 1684   1.803   3.437   9.035  0.3039 -0.6824 -0.1202
   23CHL1  H22A 1685   1.781   3.352   8.967  1.1461 -0.4718 -0.6780
   23CHL1  H22B 1686   1.750   3.525   8.992 -0.6372 -0.7030  0.9557
   23CHL1   C23 1687   1.960   3.449   9.029 -0.1498  0.3643  0.3741
   23CHL1  H23A 1688   1.995   3.544   9.075 -1.1090  0.0554  1.8285
   23CHL1  H23B 1689   2.003   3.370   9.094  1.8944  0.5216 -0.7219
   23CHL1   C24 1690   2.013   3.444   8.880  0.0567 -0.4761 -0.1998
   23CHL1  H24A 1691   1.941   3.501   8.816 -0.1314 -0.5240 -0.0316
   23CHL1  H24B 1692   2.111   3.496   8.874  1.3624 -2.6370  1.3329
   23CHL1   C25 1693   2.034   3.301   8.824  0.5012  0.1778  0.4428
   23CHL1   H25 1694   1.935   3.250   8.829 -0.4385  1.8097 -0.5075
   23CHL1   C26 1695   2.080   3.314   8.677 -0.1112  0.6198 -0.2360
   23CHL1  H26A 1696   1.999   3.346   8.608 -1.8885 -1.7858  0.5652
   23CHL1  H26B 1697   2.169   3.379   8.667  0.5106 -0.1173  0.3802
   23CHL1  H26C 1698   2.119   3.214   8.646  1.2194  0.8291  0.6920
   23CHL1   C27 1699   2.141   3.224   8.901 -0.6749  0.1076  0.1534
   23CHL1  H27A 1700   2.181   3.140   8.841  0.9584  0.9067  0.0691
   23CHL1  H27B 1701   2.224   3.292   8.929  0.0186 -0.4583 -0.4961
   23CHL1  H27C 1702   2.110   3.185   9.000  3.7487  0.1815  1.7804
   24CHL1    C3 1703   2.362   3.605  10.264 -0.0413  0.2240  0.0542
   24CHL1    H3 1704   2.339   3.713  10.255  1.1847  0.3877 -1.4205
   24CHL1    O3 1705   2.361   3.571  10.400  0.4373 -0.4337 -0.7257
   24CHL1   H3' 1706   2.370   3.476  10.394  1.0147 -0.3486 -1.4124
   24CHL1    C4 1707   2.251   3.522  10.195  0.3060  0.1653  0.1021
   24CHL1   H4A 1708   2.274   3.417  10.226 -0.2163  0.1848  0.5737
   24CHL1   H4B 1709   2.158   3.561  10.241 -0.4180  0.5804 -1.6299
   24CHL1    C5 1710   2.265   3.536  10.043  0.1810  0.1609  0.4162
   24CHL1    C6 1711   2.156   3.547   9.970  0.8180 -0.2872 -0.7197
   24CHL1    H6 1712   2.056   3.553  10.015  1.0178  2.0699 -0.4942
   24CHL1    C7 1713   2.157   3.557   9.818 -0.7321  0.4229  0.5621
   24CHL1   H7A 1714   2.067   3.507   9.774  0.3570  0.4615 -1.8538
   24CHL1   H7B 1715   2.161   3.664   9.791  0.0022  0.3174  0.2451
   24CHL1    C8 1716   2.285   3.501   9.753  0.0312 -0.2986 -1.0698
   24CHL1    H8 1717   2.280   3.390   9.766  1.7207 -0.1895  1.1955
   24CHL1   C14 1718   2.300   3.540   9.603  0.4704 -0.4920  0.0254
   24CHL1   H14 1719   2.305   3.651   9.603 -3.6718 -0.1566 -0.2702
   24CHL1   C15 1720   2.184   3.503   9.515  0.1174 -0.4748  0.2830
   24CHL1  H15A 1721   2.167   3.393   9.517 -0.7219 -0.3460  1.7774
   24CHL1  H15B 1722   2.093   3.566   9.529 -0.2633 -0.8352 -0.4920
   24CHL1   C16 1723   2.241   3.541   9.374  0.0337 -0.0209  0.0726
   24CHL1  H16A 1724   2.199   3.468   9.302  0.6595 -1.0431  0.7192
   24CHL1  H16B 1725   2.201   3.641   9.347 -2.2275 -1.3251 -1.8276
   24CHL1   C17 1726   2.400   3.538   9.383 -0.7126 -0.3935 -0.2157
   24CHL1   H17 1727   2.423   3.647   9.381 -0.0772 -0.4836  1.2334
   24CHL1   C13 1728   2.425   3.493   9.530 -0.0192 -0.0440 -0.0644
   24CHL1   C18 1729   2.436   3.340   9.537 -0.4013  0.3594 -0.2943
   24CHL1  H18A 1730   2.365   3.305   9.459 -0.3656  2.0354 -1.1106
   24CHL1  H18B 1731   2.539   3.309   9.510 -0.9404 -1.7374 -0.1739
   24CHL1  H18C 1732   2.425   3.300   9.640  1.3018  0.8683  0.1126
   24CHL1   C12 1733   2.537   3.559   9.606 -0.6552 -0.6190  0.1288
   24CHL1  H12A 1734   2.638   3.532   9.569 -1.4176 -1.2222 -1.5828
   24CHL1  H12B 1735   2.530   3.669   9.593  0.6624 -0.3224  1.5320
   24CHL1   C11 1736   2.538   3.512   9.760 -0.7148 -0.2037 -0.0609
   24CHL1  H11A 1737   2.555   3.402   9.768 -1.2811 -0.2378  0.7890
   24CHL1  H11B 1738   2.629   3.559   9.802  1.2211 -1.4842 -2.5244
   24CHL1    C9 1739   2.407   3.551   9.833 -0.4966  0.3270  0.2440
   24CHL1    H9 1740   2.390   3.660   9.827 -2.2627  0.1557  1.3433
   24CHL1   C10 1741   2.406   3.515   9.985  0.9616 -0.3593  0.0604
   24CHL1   C19 1742   2.433   3.365  10.009  0.0319  0.2558  0.2662
   24CHL1  H19A 1743   2.371   3.303   9.940 -0.4116  0.0348  0.8503
   24CHL1  H19B 1744   2.539   3.334   9.993 -0.5301 -0.6690 -2.0706
   24CHL1  H19C 1745   2.413   3.339  10.115 -0.5557 -0.3605  0.0118
   24CHL1    C1 1746   2.495   3.611  10.059 -0.5557  0.1060 -0.0420
   24CHL1   H1A 1747   2.596   3.588  10.019 -0.0205  1.1481  0.6685
   24CHL1   H1B 1748   2.468   3.716  10.033 -4.0165 -0.8787 -0.8895
   24CHL1    C2 1749   2.501   3.583  10.209  0.3901 -0.6768 -0.1399
   24CHL1   H2A 1750   2.565   3.654  10.266  0.4913 -0.4678 -0.5127
   24CHL1   H2B 1751   2.533   3.477  10.224  1.2603 -0.4656 -0.4346
   24CHL1   C20 1752   2.474   3.474   9.265  0.9486  0.0300  0.0078
   24CHL1   H20 1753   2.456   3.364   9.263  0.2471  0.0999  1.1739
   24CHL1   C21 1754   2.615   3.500   9.284 -0.2136 -0.4768 -0.4208
   24CHL1  H21A 1755   2.633   3.610   9.285 -0.2920 -0.4556  1.1393
   24CHL1  H21B 1756   2.664   3.450   9.198 -2.6996  0.3751 -2.4604
   24CHL1  H21C 1757   2.650   3.451   9.377  0.0094  0.6798  0.1249
   24CHL1   C22 1758   2.419   3.540   9.136 -0.8701  0.1621  0.3261
   24CHL1  H22A 1759   2.314   3.505   9.124 -0.0965 -2.3565  0.5431
   24CHL1  H22B 1760   2.420   3.651   9.148 -2.1741  0.1115  1.0940
   24CHL1   C23 1761   2.488   3.489   9.005  0.0407  0.2017  0.4240
   24CHL1  H23A 1762   2.599   3.486   9.011 -0.0389  0.3684  2.4980
   24CHL1  H23B 1763   2.457   3.383   8.995 -0.4431  0.4883 -1.4747
   24CHL1   C24 1764   2.427   3.554   8.879  0.2471 -0.1118  0.2564
   24CHL1  H24A 1765   2.319   3.531   8.868  0.3624 -0.5015 -0.0617
   24CHL1  H24B 1766   2.432   3.665   8.888  0.5883 -0.0804 -0.2747
   24CHL1   C25 1767   2.503   3.513   8.750  0.2157 -0.2323  0.1778
   24CHL1   H25 1768   2.609   3.542   8.766  0.1078  0.5705 -0.5043
   24CHL1   C26 1769   2.501   3.360   8.729 -0.1043 -0.3371  0.0453
   24CHL1  H26A 1770   2.552   3.333   8.634 -0.2296 -0.7617  0.0964
   24CHL1  H26B 1771   2.569   3.315   8.805  0.2101  0.1168  0.0327
   24CHL1  H26C 1772   2.393   3.333   8.734  0.1019 -1.4850 -1.0020
   24CHL1   C27 1773   2.455   3.600   8.634 -0.7379 -0.1039  0.2919
   24CHL1  H27A 1774   2.430   3.703   8.667 -0.0336  0.3340 -0.4995
   24CHL1  H27B 1775   2.532   3.611   8.555 -1.3594  2.5724 -0.0287
   24CHL1  H27C 1776   2.365   3.556   8.587 -0.3802 -1.9274  1.2387
   25CHL1    C3 1777   4.386   5.437  10.433  0.3233  0.0227  0.2022
   25CHL1    H3 1778   4.455   5.512  10.388  0.0123  0.3794  0.3149
   25CHL1    O3 1779   4.400   5.446  10.575 -0.6954 -0.5737  0.2029
   25CHL1   H3' 1780   4.337   5.513  10.603 -0.4321 -0.2221 -0.0427
   25CHL1    C4 1781   4.235   5.485  10.390 -0.5640  0.4835  0.9349
   25CHL1   H4A 1782   4.169   5.426  10.457 -1.4982 -0.1023 -0.4641
   25CHL1   H4B 1783   4.233   5.589  10.430  1.4861  0.1966  1.9479
   25CHL1    C5 1784   4.213   5.482  10.242 -0.7314  0.5716 -0.0999
   25CHL1    C6 1785   4.173   5.591  10.172  0.6087 -0.5595 -0.2300
   25CHL1    H6 1786   4.153   5.685  10.226  0.6735  0.1868 -1.4869
   25CHL1    C7 1787   4.159   5.587  10.026  0.1850  0.6338 -0.7088
   25CHL1   H7A 1788   4.064   5.643  10.010 -0.9713 -0.6583  1.2194
   25CHL1   H7B 1789   4.252   5.628   9.982  0.8209  1.6628  1.4306
   25CHL1    C8 1790   4.153   5.439   9.973 -0.2464  0.1266 -0.4517
   25CHL1    H8 1791   4.052   5.398   9.993  0.7207 -1.0786  2.4680
   25CHL1   C14 1792   4.170   5.449   9.828  0.9346  0.3217  0.8922
   25CHL1   H14 1793   4.266   5.500   9.807  1.7354 -1.3632  0.2269
   25CHL1   C15 1794   4.068   5.528   9.757 -0.6290 -0.9943 -0.0295
   25CHL1  H15A 1795   3.963   5.505   9.785 -1.6590  1.8337 -1.1737
   25CHL1  H15B 1796   4.075   5.638   9.775 -1.6283 -0.9891  0.3983
   25CHL1   C16 1797   4.096   5.506   9.605  0.2252  0.3593 -0.3345
   25CHL1  H16A 1798   3.997   5.500   9.556 -0.7641  2.4376  1.2680
   25CHL1  H16B 1799   4.157   5.592   9.570  0.2071  0.8609  0.8291
   25CHL1   C17 1800   4.175   5.371   9.607 -0.4714  0.1341 -0.1099
   25CHL1   H17 1801   4.281   5.402   9.600 -0.8206  1.7871  1.3242
   25CHL1   C13 1802   4.172   5.317   9.752 -0.1874 -0.7672  0.5970
   25CHL1   C18 1803   4.036   5.236   9.770 -0.1282 -0.1199  0.1537
   25CHL1  H18A 1804   4.022   5.218   9.878  1.6019 -1.2592  0.2122
   25CHL1  H18B 1805   3.948   5.283   9.719 -1.0887 -0.1740  1.6969
   25CHL1  H18C 1806   4.040   5.135   9.724 -0.6673 -0.1065  0.0711
   25CHL1   C12 1807   4.301   5.247   9.796 -0.0092 -0.0944  0.3383
   25CHL1  H12A 1808   4.314   5.144   9.756 -1.2972  0.1631 -0.8418
   25CHL1  H12B 1809   4.393   5.307   9.786 -0.3828  0.9095  2.4562
   25CHL1   C11 1810   4.282   5.216   9.947 -0.5543 -0.1472  0.3113
   25CHL1  H11A 1811   4.186   5.161   9.961  0.5872 -1.7064  2.7859
   25CHL1  H11B 1812   4.365   5.154   9.987 -0.3663  0.2191  0.4865
   25CHL1    C9 1813   4.262   5.352  10.027 -0.2726  0.0804 -0.5927
   25CHL1    H9 1814   4.354   5.408  10.002 -0.0630  0.3283  0.6735
   25CHL1   C10 1815   4.253   5.344  10.181 -0.1672  0.2698  0.7650
   25CHL1   C19 1816   4.143   5.242  10.215 -0.3311  0.1839  0.5652
   25CHL1  H19A 1817   4.044   5.286  10.189 -1.8244 -1.8215  2.3877
   25CHL1  H19B 1818   4.160   5.141  10.170 -2.8333  0.2333 -0.6819
   25CHL1  H19C 1819   4.146   5.230  10.325  0.9417  0.7784  0.6108
   25CHL1    C1 1820   4.393   5.299  10.225 -0.3589  0.0948  0.1495
   25CHL1   H1A 1821   4.426   5.198  10.193  1.5391  0.5624  0.5499
   25CHL1   H1B 1822   4.462   5.379  10.190  1.7843 -0.8126  2.0734
   25CHL1    C2 1823   4.423   5.302  10.373  0.2845  0.4234 -0.7289
   25CHL1   H2A 1824   4.532   5.282  10.388  0.3711  1.9211  0.9490
   25CHL1   H2B 1825   4.373   5.220  10.428 -0.7094  1.3050 -0.2854
   25CHL1   C20 1826   4.144   5.278   9.496  0.2699 -0.2403  0.0959
   25CHL1   H20 1827   4.034   5.258   9.498  0.1434  0.1529 -1.7288
   25CHL1   C21 1828   4.217   5.145   9.507 -0.0149 -0.2295 -0.1542
   25CHL1  H21A 1829   4.326   5.165   9.512 -0.0508 -0.0212 -0.1957
   25CHL1  H21B 1830   4.198   5.074   9.424 -1.1713 -0.5263  0.3342
   25CHL1  H21C 1831   4.186   5.095   9.602  0.0721 -0.2859 -0.1551
   25CHL1   C22 1832   4.166   5.350   9.360 -0.4201  0.4396  0.1599
   25CHL1  H22A 1833   4.136   5.457   9.354  0.0819  0.5003 -2.5568
   25CHL1  H22B 1834   4.270   5.347   9.323 -0.7679 -1.2226 -0.7768
   25CHL1   C23 1835   4.089   5.274   9.251 -0.4630 -0.1395  0.1793
   25CHL1  H23A 1836   4.078   5.169   9.285 -0.6388  0.6235  2.6583
   25CHL1  H23B 1837   3.983   5.306   9.258 -0.5113 -0.0944 -0.6631
   25CHL1   C24 1838   4.156   5.278   9.114  0.0614 -0.0701  0.1844
   25CHL1  H24A 1839   4.258   5.237   9.128  0.7521  1.6987  0.5904
   25CHL1  H24B 1840   4.109   5.192   9.061  1.2990 -1.2668  0.9374
   25CHL1   C25 1841   4.134   5.415   9.037 -0.3916  0.3637  0.2250
   25CHL1   H25 1842   4.210   5.479   9.087  0.7205 -0.2369 -0.6577
   25CHL1   C26 1843   4.192   5.406   8.894 -0.1416  0.1054 -0.4662
   25CHL1  H26A 1844   4.302   5.388   8.893 -0.5519 -2.8811 -1.6464
   25CHL1  H26B 1845   4.144   5.333   8.826  1.3008  1.2741 -2.8747
   25CHL1  H26C 1846   4.188   5.508   8.849  1.0999  1.6466  2.5788
   25CHL1   C27 1847   3.999   5.481   9.036 -0.9214 -0.0738 -0.5406
   25CHL1  H27A 1848   3.969   5.502   9.141 -0.0652 -0.4973 -0.2012
   25CHL1  H27B 1849   4.003   5.581   8.988 -0.4465  0.7958  1.2285
   25CHL1  H27C 1850   3.920   5.416   8.994 -0.6107 -1.7189  1.3032
   26CHL1    C3 1851   6.211   1.737  10.349 -0.5995 -0.4830 -0.3513
   26CHL1    H3 1852   6.277   1.826  10.355 -1.6677  0.2999  0.2243
   26CHL1    O3 1853   6.175   1.712  10.484  0.4043 -0.0930  0.0556
   26CHL1   H3' 1854   6.124   1.631  10.494  1.8349 -0.8838  1.4815
   26CHL1    C4 1855   6.073   1.767  10.275 -0.5301  0.3655 -0.2780
   26CHL1   H4A 1856   6.020   1.670  10.279 -0.0899  0.0412 -1.5954
   26CHL1   H4B 1857   6.009   1.841  10.328 -1.4624 -0.7833  0.2307
   26CHL1    C5 1858   6.095   1.796  10.125  0.3198  0.3562  0.4839
   26CHL1    C6 1859   6.057   1.908  10.068  0.6259 -0.4325 -0.3282
   26CHL1    H6 1860   6.018   1.985  10.136 -1.3360 -2.1908  0.6649
   26CHL1    C7 1861   6.060   1.942   9.921 -0.2999  0.3742 -0.1402
   26CHL1   H7A 1862   5.959   1.966   9.882 -0.0872 -0.2894 -1.1494
   26CHL1   H7B 1863   6.117   2.030   9.885 -0.8043  0.5370 -0.5447
   26CHL1    C8 1864   6.109   1.825   9.831 -0.3901  0.5278  0.5986
   26CHL1    H8 1865   6.029   1.750   9.815 -0.2300  0.1614  1.4486
   26CHL1   C14 1866   6.158   1.869   9.691 -0.5010  0.2933 -0.3626
   26CHL1   H14 1867   6.242   1.934   9.722  0.2134 -1.4699  1.6233
   26CHL1   C15 1868   6.070   1.958   9.603 -0.0106  0.4041 -0.4445
   26CHL1  H15A 1869   5.967   1.916   9.609 -0.2670  0.6411 -2.4165
   26CHL1  H15B 1870   6.070   2.063   9.640  0.0113  0.4690 -0.6284
   26CHL1   C16 1871   6.127   1.947   9.467  0.0812 -0.1042  0.0176
   26CHL1  H16A 1872   6.045   1.915   9.400 -0.4978 -0.8647  1.0674
   26CHL1  H16B 1873   6.165   2.044   9.427  1.8564 -0.4593  0.7593
   26CHL1   C17 1874   6.235   1.839   9.480  1.0721  0.1769 -0.4115
   26CHL1   H17 1875   6.330   1.895   9.491  0.8735  0.7581 -1.5256
   26CHL1   C13 1876   6.220   1.759   9.609 -0.5238 -0.3120  0.5468
   26CHL1   C18 1877   6.108   1.656   9.577 -0.0079  0.0036  0.5856
   26CHL1  H18A 1878   6.061   1.612   9.668 -1.1570  1.3650  0.6950
   26CHL1  H18B 1879   6.023   1.699   9.520 -0.0006 -0.8971 -0.1266
   26CHL1  H18C 1880   6.143   1.571   9.515 -4.8515  0.1560 -2.9670
   26CHL1   C12 1881   6.342   1.708   9.685 -0.3933  0.3664 -0.3161
   26CHL1  H12A 1882   6.399   1.630   9.629 -1.2527  0.1380 -0.8969
   26CHL1  H12B 1883   6.414   1.789   9.710 -1.3042  1.6580 -1.6813
   26CHL1   C11 1884   6.301   1.647   9.818  0.7929 -0.5185 -0.5699
   26CHL1  H11A 1885   6.243   1.555   9.795 -1.0263  1.2067 -3.5183
   26CHL1  H11B 1886   6.395   1.615   9.867  0.4432 -0.9751 -0.1828
   26CHL1    C9 1887   6.222   1.744   9.911 -0.1954 -0.3398  0.4366
   26CHL1    H9 1888   6.304   1.813   9.941 -0.6370 -0.1321  1.2022
   26CHL1   C10 1889   6.169   1.683  10.046  0.9050 -0.2349  0.6417
   26CHL1   C19 1890   6.074   1.563  10.023  0.2391  0.3023  0.2679
   26CHL1  H19A 1891   6.080   1.508   9.927  0.7641 -1.5471  1.2940
   26CHL1  H19B 1892   6.087   1.490  10.106 -0.9977  1.0311  1.1337
   26CHL1  H19C 1893   5.967   1.593  10.016  0.6325  1.5271 -0.8339
   26CHL1    C1 1894   6.296   1.650  10.130 -0.8872 -0.0168 -1.0204
   26CHL1   H1A 1895   6.334   1.559  10.079  0.1565  0.2479 -0.7383
   26CHL1   H1B 1896   6.373   1.730  10.121 -0.4133 -0.5844 -2.3848
   26CHL1    C2 1897   6.276   1.619  10.278  0.7263 -0.1118 -0.4154
   26CHL1   H2A 1898   6.377   1.608  10.321  1.3105 -2.1203 -2.1424
   26CHL1   H2B 1899   6.218   1.532  10.313 -2.7518  1.3990 -1.9249
   26CHL1   C20 1900   6.254   1.770   9.346 -0.5467  0.1644  0.4516
   26CHL1   H20 1901   6.160   1.714   9.323 -0.9759  0.6863  0.9050
   26CHL1   C21 1902   6.372   1.668   9.352  0.1598 -0.5902  0.3435
   26CHL1  H21A 1903   6.338   1.581   9.413 -1.2175 -0.3973 -0.1302
   26CHL1  H21B 1904   6.452   1.716   9.413  0.7408 -1.7554  0.5415
   26CHL1  H21C 1905   6.405   1.644   9.249 -2.3207  2.0503 -1.2073
   26CHL1   C22 1906   6.271   1.869   9.225 -0.0583  0.5063 -0.3850
   26CHL1  H22A 1907   6.197   1.953   9.230  1.0618  1.4412  1.5483
   26CHL1  H22B 1908   6.372   1.913   9.236  0.7322 -1.2078 -0.5286
   26CHL1   C23 1909   6.259   1.799   9.090 -0.2796 -0.3573 -0.1747
   26CHL1  H23A 1910   6.362   1.771   9.059  0.4506  1.4382  0.5149
   26CHL1  H23B 1911   6.206   1.702   9.103 -1.6526  0.1642 -1.6201
   26CHL1   C24 1912   6.198   1.880   8.984 -0.1325  1.3920  0.7713
   26CHL1  H24A 1913   6.102   1.917   9.025 -0.5559  0.6159  0.5088
   26CHL1  H24B 1914   6.269   1.957   8.948 -0.9788  0.3726 -3.7030
   26CHL1   C25 1915   6.169   1.784   8.866  0.0062  0.0324  0.3465
   26CHL1   H25 1916   6.087   1.714   8.892  0.2837 -0.0460  1.0187
   26CHL1   C26 1917   6.094   1.856   8.746  0.3950  0.0448 -0.1869
   26CHL1  H26A 1918   6.158   1.894   8.665  0.6292 -1.6514 -0.8386
   26CHL1  H26B 1919   6.033   1.779   8.693  1.7708 -1.9212  0.9419
   26CHL1  H26C 1920   6.031   1.933   8.796 -0.2212 -1.2931  1.2252
   26CHL1   C27 1921   6.296   1.716   8.815 -0.1910  0.5782  0.1076
   26CHL1  H27A 1922   6.265   1.639   8.742 -0.2601 -1.3670  2.0662
   26CHL1  H27B 1923   6.369   1.795   8.784  1.3390 -0.7420  0.2114
   26CHL1  H27C 1924   6.349   1.650   8.887  2.1051  2.0651 -0.0976
   27CHL1    C3 1925   4.663   5.776  10.411  0.6125 -0.4798  0.3916
   27CHL1    H3 1926   4.679   5.667  10.398 -0.0296 -0.6575  1.0586
   27CHL1    O3 1927   4.704   5.813  10.546  0.0222  0.0625 -0.1176
   27CHL1   H3' 1928   4.678   5.904  10.565 -2.0797 -0.6789  0.8188
   27CHL1    C4 1929   4.767   5.843  10.316  0.0088 -0.4226  0.7932
   27CHL1   H4A 1930   4.790   5.950  10.335 -1.7149 -0.1434  1.4922
   27CHL1   H4B 1931   4.866   5.795  10.326 -0.8252 -2.3415  0.4113
   27CHL1    C5 1932   4.730   5.830  10.170  0.0302  0.1711 -0.1129
   27CHL1    C6 1933   4.818   5.790  10.078  0.3280 -0.0225  0.3364
   27CHL1    H6 1934   4.921   5.770  10.109  0.5384  0.2647 -0.1612
   27CHL1    C7 1935   4.802   5.802   9.929  0.3756  0.6004 -0.1421
   27CHL1   H7A 1936   4.890   5.857   9.891  1.4837  0.2471  1.7689
   27CHL1   H7B 1937   4.793   5.699   9.888  0.2834 -0.1263  1.5798
   27CHL1    C8 1938   4.667   5.878   9.897 -0.7617  0.3017  0.2089
   27CHL1    H8 1939   4.696   5.985   9.901  1.2132 -0.1277 -1.1832
   27CHL1   C14 1940   4.626   5.835   9.754  0.5586 -0.2029 -1.3141
   27CHL1   H14 1941   4.608   5.726   9.743 -0.5208  0.1582 -3.7568
   27CHL1   C15 1942   4.720   5.870   9.638  0.2179  0.5294 -0.1484
   27CHL1  H15A 1943   4.753   5.976   9.645 -3.4089  1.7232  1.0216
   27CHL1  H15B 1944   4.805   5.798   9.646 -1.4264 -1.5012 -0.2766
   27CHL1   C16 1945   4.632   5.848   9.513  0.3255 -0.3794  0.1854
   27CHL1  H16A 1946   4.646   5.939   9.450 -0.4923 -0.2983  0.1107
   27CHL1  H16B 1947   4.673   5.756   9.466  2.3764  0.6289 -0.1249
   27CHL1   C17 1948   4.486   5.834   9.563 -0.5302  0.3659  0.1452
   27CHL1   H17 1949   4.469   5.724   9.572 -0.6498  0.4133  0.5334
   27CHL1   C13 1950   4.495   5.890   9.709 -0.4360 -0.1501  0.0943
   27CHL1   C18 1951   4.509   6.049   9.701 -0.0984 -0.0141 -0.2333
   27CHL1  H18A 1952   4.410   6.099   9.699  0.3656  1.0022 -3.3232
   27CHL1  H18B 1953   4.570   6.095   9.782 -0.1298  1.9223 -1.2507
   27CHL1  H18C 1954   4.558   6.081   9.606 -1.3987  0.5335 -0.7411
   27CHL1   C12 1955   4.379   5.852   9.798 -0.6348 -1.7046  0.1928
   27CHL1  H12A 1956   4.278   5.888   9.769 -1.0637 -1.2804  2.0425
   27CHL1  H12B 1957   4.375   5.741   9.800 -3.0821 -1.6731  1.0787
   27CHL1   C11 1958   4.409   5.898   9.943 -0.5385  1.0272 -0.1479
   27CHL1  H11A 1959   4.404   6.008   9.957 -1.3734  1.0301 -0.3705
   27CHL1  H11B 1960   4.327   5.842   9.994  1.0840 -2.2402 -0.8416
   27CHL1    C9 1961   4.552   5.847   9.984  0.0559 -0.0163  0.1959
   27CHL1    H9 1962   4.551   5.736   9.995  2.3920  0.0133  1.2511
   27CHL1   C10 1963   4.589   5.878  10.129 -0.1374 -0.3476 -0.1088
   27CHL1   C19 1964   4.598   6.028  10.154 -1.1251 -0.0313 -0.2451
   27CHL1  H19A 1965   4.613   6.059  10.260 -2.3422 -2.1257  0.5827
   27CHL1  H19B 1966   4.675   6.080  10.092 -2.6733  3.4513  0.5152
   27CHL1  H19C 1967   4.505   6.076  10.119 -2.1959 -3.0957 -1.9566
   27CHL1    C1 1968   4.481   5.812  10.219  0.3546 -0.2650  0.0134
   27CHL1   H1A 1969   4.384   5.864  10.212  2.1177  3.5651  1.1764
   27CHL1   H1B 1970   4.477   5.706  10.186 -3.4996  0.0086 -0.7773
   27CHL1    C2 1971   4.521   5.827  10.368  0.4213  0.0006 -0.2260
   27CHL1   H2A 1972   4.444   5.760  10.413  1.3149 -0.3037  0.9043
   27CHL1   H2B 1973   4.499   5.930  10.401 -1.4135 -0.2369 -0.5918
   27CHL1   C20 1974   4.382   5.884   9.457  0.5441  0.0501  0.1940
   27CHL1   H20 1975   4.409   5.984   9.419 -2.4999  0.7660 -0.3023
   27CHL1   C21 1976   4.235   5.892   9.502  0.3862 -0.3807 -0.8560
   27CHL1  H21A 1977   4.198   5.794   9.539 -2.0782 -0.2210 -2.5925
   27CHL1  H21B 1978   4.169   5.930   9.420 -0.8275  2.5946  1.3279
   27CHL1  H21C 1979   4.231   5.968   9.582  0.4199  1.1866 -2.2782
   27CHL1   C22 1980   4.378   5.789   9.322  0.2201 -0.0184 -0.1515
   27CHL1  H22A 1981   4.487   5.772   9.307  0.2969 -0.9744  1.2973
   27CHL1  H22B 1982   4.319   5.699   9.349  0.8770 -0.6518 -0.8117
   27CHL1   C23 1983   4.326   5.854   9.195  0.0934  0.2574  0.8363
   27CHL1  H23A 1984   4.215   5.861   9.203 -0.1589  0.0004 -1.6826
   27CHL1  H23B 1985   4.353   5.961   9.200  2.3054 -0.2089 -0.0473
   27CHL1   C24 1986   4.379   5.792   9.056  0.8578 -0.6561  0.1874
   27CHL1  H24A 1987   4.489   5.787   9.064  1.1755  1.9115 -1.4646
   27CHL1  H24B 1988   4.342   5.688   9.041 -2.5180  0.6004 -1.4735
   27CHL1   C25 1989   4.337   5.869   8.927  0.0779 -0.5022  0.2034
   27CHL1   H25 1990   4.376   5.972   8.942 -0.6623 -0.0901 -0.5955
   27CHL1   C26 1991   4.399   5.801   8.804  0.3300 -0.2297 -0.9157
   27CHL1  H26A 1992   4.507   5.818   8.785  0.3151 -0.9710 -1.7427
   27CHL1  H26B 1993   4.388   5.691   8.816  2.5746 -0.5678 -1.4220
   27CHL1  H26C 1994   4.337   5.839   8.721 -1.5834  1.5143  1.1802
   27CHL1   C27 1995   4.188   5.878   8.901 -0.6152  0.3140 -0.7850
   27CHL1  H27A 1996   4.145   5.787   8.854  0.3232 -0.6491  0.1439
   27CHL1  H27B 1997   4.140   5.891   9.000 -0.2701 -2.0362 -0.2605
   27CHL1  H27C 1998   4.168   5.969   8.840  0.9395  1.8523  0.8612
   28CHL1    C3 1999   4.039   3.437  10.227 -0.6469  0.0702 -0.3446
   28CHL1    H3 2000   4.078   3.335  10.202  3.2787  1.5254 -0.8211
   28CHL1    O3 2001   3.999   3.441  10.360 -0.3925 -0.2627 -0.3324
   28CHL1   H3' 2002   3.964   3.530  10.369 -0.4836 -0.2761 -0.5497
   28CHL1    C4 2003   4.155   3.526  10.206  0.0817 -0.8376 -0.2059
   28CHL1   H4A 2004   4.124   3.628  10.238  2.1199  0.0450 -0.8917
   28CHL1   H4B 2005   4.241   3.495  10.270  0.1167 -1.3004 -0.4740
   28CHL1    C5 2006   4.200   3.542  10.057  1.2986 -0.6087 -0.4448
   28CHL1    C6 2007   4.317   3.505  10.014 -0.3994 -0.5094  0.2874
   28CHL1    H6 2008   4.391   3.479  10.091 -1.5514  0.3664  1.7474
   28CHL1    C7 2009   4.377   3.532   9.875  0.1064 -1.0631  0.0035
   28CHL1   H7A 2010   4.470   3.592   9.879 -0.1680 -0.6600  0.4009
   28CHL1   H7B 2011   4.398   3.432   9.831  1.4588 -1.2615  1.0360
   28CHL1    C8 2012   4.275   3.613   9.781  0.0589  0.2758 -0.0237
   28CHL1    H8 2013   4.286   3.716   9.821  1.3278  0.0238  0.3090
   28CHL1   C14 2014   4.306   3.593   9.638  0.7941 -0.1296  0.2523
   28CHL1   H14 2015   4.287   3.485   9.617  1.0241 -0.4268  1.5447
   28CHL1   C15 2016   4.446   3.626   9.588  0.8093 -0.2917 -0.2673
   28CHL1  H15A 2017   4.490   3.720   9.628  2.8792 -1.0901 -0.5759
   28CHL1  H15B 2018   4.514   3.542   9.611  1.9699  1.1162  1.8190
   28CHL1   C16 2019   4.434   3.634   9.427 -0.7512 -0.0163 -0.9703
   28CHL1  H16A 2020   4.474   3.726   9.380 -1.2754  1.3453  1.0817
   28CHL1  H16B 2021   4.481   3.544   9.383  1.0353 -0.6857  1.9842
   28CHL1   C17 2022   4.274   3.632   9.407 -0.2948 -0.2598  0.6152
   28CHL1   H17 2023   4.256   3.523   9.389  2.1320 -0.9468  1.8837
   28CHL1   C13 2024   4.206   3.657   9.543  0.2867  0.1217 -0.0909
   28CHL1   C18 2025   4.213   3.806   9.576  0.5803 -0.2572 -0.5988
   28CHL1  H18A 2026   4.318   3.842   9.582 -0.0711  1.4822  2.1202
   28CHL1  H18B 2027   4.167   3.864   9.494 -0.6818 -1.4484 -0.7663
   28CHL1  H18C 2028   4.154   3.818   9.669 -0.9011 -2.2855 -1.2023
   28CHL1   C12 2029   4.063   3.593   9.569  0.0177 -0.4402 -0.5474
   28CHL1  H12A 2030   3.983   3.629   9.500  1.0851  1.3512 -0.9098
   28CHL1  H12B 2031   4.074   3.484   9.553  0.0016 -0.5162 -0.0655
   28CHL1   C11 2032   4.021   3.623   9.717  0.5049 -0.2419  0.6841
   28CHL1  H11A 2033   3.995   3.728   9.743 -0.6558 -0.0470 -1.1172
   28CHL1  H11B 2034   3.924   3.576   9.741 -0.0910  1.0635  0.8919
   28CHL1    C9 2035   4.130   3.568   9.815  0.1090  0.1015 -0.1838
   28CHL1    H9 2036   4.134   3.457   9.805  0.0594  0.0916 -0.0926
   28CHL1   C10 2037   4.088   3.587   9.967  0.6134 -0.1647  0.1268
   28CHL1   C19 2038   4.055   3.733   9.992 -0.1480 -0.0310 -0.1248
   28CHL1  H19A 2039   4.044   3.761  10.099  0.7868  0.1808 -0.0770
   28CHL1  H19B 2040   4.136   3.800   9.958 -0.8313  0.1795 -1.4104
   28CHL1  H19C 2041   3.967   3.763   9.932  0.3792  0.3540 -0.7161
   28CHL1    C1 2042   3.965   3.496   9.996  0.1950 -0.3466  0.3898
   28CHL1   H1A 2043   3.873   3.527   9.942 -0.0278 -0.5311  0.6582
   28CHL1   H1B 2044   3.970   3.396   9.948 -2.7868 -1.4777  2.1410
   28CHL1    C2 2045   3.925   3.472  10.136 -0.3067  0.2886 -0.4741
   28CHL1   H2A 2046   3.852   3.388  10.137 -0.8824  0.6836 -2.9243
   28CHL1   H2B 2047   3.865   3.558  10.173 -1.0945 -0.4485  0.0090
   28CHL1   C20 2048   4.226   3.713   9.283  0.4033  0.7520 -0.4330
   28CHL1   H20 2049   4.272   3.814   9.296 -0.0835  1.1485 -1.6344
   28CHL1   C21 2050   4.074   3.730   9.270 -1.3664  0.7819  0.1499
   28CHL1  H21A 2051   4.030   3.633   9.238  0.2198  0.1824 -0.3491
   28CHL1  H21B 2052   4.081   3.803   9.187  1.6460 -0.3195 -0.7374
   28CHL1  H21C 2053   4.027   3.775   9.359  0.4912  0.9314  1.1186
   28CHL1   C22 2054   4.290   3.657   9.158  0.3808  0.0682 -1.0029
   28CHL1  H22A 2055   4.398   3.649   9.183  0.1773  1.7767  0.6118
   28CHL1  H22B 2056   4.251   3.553   9.144  2.3078 -0.7426 -0.7078
   28CHL1   C23 2057   4.282   3.747   9.033  0.0676 -0.2952  0.1311
   28CHL1  H23A 2058   4.317   3.681   8.950 -0.8098  0.0562 -0.5282
   28CHL1  H23B 2059   4.185   3.790   9.002  0.1744 -0.4185 -0.3866
   28CHL1   C24 2060   4.373   3.869   9.047 -0.7771 -0.3361  0.4259
   28CHL1  H24A 2061   4.332   3.945   9.117  1.2713 -1.4731  3.0094
   28CHL1  H24B 2062   4.472   3.837   9.085 -0.8439 -0.3534  0.5868
   28CHL1   C25 2063   4.400   3.940   8.917 -0.6489 -0.2119 -0.2063
   28CHL1   H25 2064   4.302   3.977   8.878 -0.2839  1.7096  0.5488
   28CHL1   C26 2065   4.497   4.067   8.928  0.4678 -0.3071 -0.4492
   28CHL1  H26A 2066   4.444   4.145   8.986 -0.2308  0.1210 -1.6216
   28CHL1  H26B 2067   4.588   4.032   8.980 -0.6548 -2.0023  0.4762
   28CHL1  H26C 2068   4.512   4.106   8.825 -0.1894 -0.7599 -0.7295
   28CHL1   C27 2069   4.475   3.850   8.817  0.2708 -0.1324 -0.6420
   28CHL1  H27A 2070   4.549   3.786   8.868 -1.8918 -1.1073  1.4907
   28CHL1  H27B 2071   4.396   3.793   8.763 -1.4258  1.1966  0.3151
   28CHL1  H27C 2072   4.529   3.907   8.738 -0.4452 -1.6800 -2.3349
   29CHL1    C3 2073   0.007   1.539   6.670 -0.0115  0.0797  0.2763
   29CHL1    H3 2074  -0.093   1.493   6.653  1.0901 -1.4705 -2.7341
   29CHL1    O3 2075   0.066   1.561   6.545 -0.2006  0.0160  0.5171
   29CHL1   H3' 2076   0.158   1.584   6.561  0.1142  0.2620 -1.4342
   29CHL1    C4 2077  -0.009   1.670   6.755  0.2621 -0.1412  0.2105
   29CHL1   H4A 2078   0.082   1.733   6.751 -0.4475  0.9295  0.4364
   29CHL1   H4B 2079  -0.083   1.731   6.699  0.8428 -1.7757 -2.4858
   29CHL1    C5 2080  -0.052   1.653   6.897  0.9040  0.1785 -0.0161
   29CHL1    C6 2081  -0.159   1.710   6.957 -0.0140  0.5599 -0.3309
   29CHL1    H6 2082  -0.207   1.790   6.899 -1.7573 -2.2280 -3.0427
   29CHL1    C7 2083  -0.197   1.680   7.098  0.8850 -0.3892 -0.9283
   29CHL1   H7A 2084  -0.239   1.772   7.145 -2.3412 -1.9282 -0.5146
   29CHL1   H7B 2085  -0.275   1.601   7.102  0.9854 -0.4384  0.5845
   29CHL1    C8 2086  -0.076   1.632   7.185  0.7074 -0.2961  0.8677
   29CHL1    H8 2087   0.001   1.711   7.200 -2.7938  3.4025  1.0762
   29CHL1   C14 2088  -0.133   1.588   7.320  0.5140  0.6441 -0.1583
   29CHL1   H14 2089  -0.202   1.504   7.298 -0.6275  0.8497  2.3258
   29CHL1   C15 2090  -0.219   1.683   7.412 -0.2350  0.7544  0.0697
   29CHL1  H15A 2091  -0.161   1.778   7.411  3.4649 -1.2122  2.4069
   29CHL1  H15B 2092  -0.318   1.692   7.364 -0.3934 -3.1217 -0.6447
   29CHL1   C16 2093  -0.224   1.609   7.546  0.5709 -0.0913  0.5412
   29CHL1  H16A 2094  -0.187   1.673   7.629 -0.3027 -0.0363  0.9023
   29CHL1  H16B 2095  -0.327   1.573   7.571  1.1414 -0.6695  2.2192
   29CHL1   C17 2096  -0.132   1.476   7.530  0.1698  0.4998  0.3471
   29CHL1   H17 2097  -0.202   1.398   7.493  2.0489 -0.9587 -0.3395
   29CHL1   C13 2098  -0.034   1.509   7.411  0.1635  0.2412  0.4075
   29CHL1   C18 2099   0.070   1.613   7.462 -0.0219 -0.5819 -0.9691
   29CHL1  H18A 2100   0.136   1.577   7.544 -0.4965  0.2306 -0.2100
   29CHL1  H18B 2101   0.134   1.642   7.376 -0.1366 -1.6117 -1.4147
   29CHL1  H18C 2102   0.012   1.698   7.505 -0.4953 -1.9554  1.2588
   29CHL1   C12 2103   0.025   1.391   7.335 -0.3586 -0.8360 -0.2495
   29CHL1  H12A 2104   0.110   1.335   7.380  0.2953 -0.3339 -0.8440
   29CHL1  H12B 2105  -0.063   1.323   7.324 -0.5284 -0.5642 -0.5772
   29CHL1   C11 2106   0.082   1.423   7.195  0.4234  0.1577 -0.4659
   29CHL1  H11A 2107   0.181   1.472   7.207  1.0770 -1.1374 -0.2804
   29CHL1  H11B 2108   0.114   1.326   7.151 -0.2665 -0.9686  1.3668
   29CHL1    C9 2109  -0.016   1.512   7.111  0.0835 -0.3046 -0.5847
   29CHL1    H9 2110  -0.099   1.441   7.089 -0.6854  0.8341 -1.4594
   29CHL1   C10 2111   0.024   1.548   6.967 -0.4030 -0.3114  0.0175
   29CHL1   C19 2112   0.170   1.586   6.988 -0.5160  0.2136 -0.2012
   29CHL1  H19A 2113   0.173   1.672   7.058 -1.1164  0.5883 -0.6160
   29CHL1  H19B 2114   0.233   1.505   7.030  3.7488  3.7021  0.8431
   29CHL1  H19C 2115   0.222   1.615   6.894 -1.1712  0.3751 -0.5285
   29CHL1    C1 2116   0.022   1.418   6.889  0.4147 -0.5541 -0.2145
   29CHL1   H1A 2117   0.092   1.348   6.940  1.8172 -0.3259 -1.7393
   29CHL1   H1B 2118  -0.082   1.381   6.881  0.1226 -0.6097  2.6966
   29CHL1    C2 2119   0.083   1.430   6.745 -0.3039  0.0183 -0.3602
   29CHL1   H2A 2120   0.073   1.338   6.683  0.9119  0.8225 -1.8351
   29CHL1   H2B 2121   0.191   1.448   6.758 -0.5114 -0.5892  2.8992
   29CHL1   C20 2122  -0.073   1.430   7.663 -0.2156  0.0891  0.0761
   29CHL1   H20 2123  -0.002   1.507   7.700  1.4373 -1.4084  0.1405
   29CHL1   C21 2124   0.020   1.310   7.638  0.1649 -0.0028  0.2996
   29CHL1  H21A 2125   0.061   1.272   7.734  1.8111 -0.4954 -0.5486
   29CHL1  H21B 2126   0.104   1.342   7.573 -0.1280  1.0526  0.4201
   29CHL1  H21C 2127  -0.028   1.224   7.587 -0.7586 -0.1201  1.3312
   29CHL1   C22 2128  -0.179   1.414   7.774  0.2002  0.4772 -0.3624
   29CHL1  H22A 2129  -0.280   1.418   7.727  1.3287 -0.2235 -3.0443
   29CHL1  H22B 2130  -0.169   1.307   7.803 -1.1754  0.0916 -1.1746
   29CHL1   C23 2131  -0.184   1.515   7.892  0.1380 -0.1826  0.6749
   29CHL1  H23A 2132  -0.085   1.523   7.941 -0.3555  0.6502  1.5703
   29CHL1  H23B 2133  -0.212   1.616   7.854 -1.4993 -1.2429 -1.1149
   29CHL1   C24 2134  -0.269   1.467   8.010  0.4429 -0.2236  0.8851
   29CHL1  H24A 2135  -0.360   1.428   7.960  0.7019  2.0577 -1.6155
   29CHL1  H24B 2136  -0.217   1.383   8.061  1.5635  0.0013  0.1550
   29CHL1   C25 2137  -0.311   1.582   8.104 -0.1858 -0.8738 -0.1109
   29CHL1   H25 2138  -0.378   1.655   8.053 -0.5562  0.7307  2.5063
   29CHL1   C26 2139  -0.400   1.536   8.225 -0.0408  0.4634 -0.7978
   29CHL1  H26A 2140  -0.363   1.443   8.273  1.3705  1.3322 -0.1392
   29CHL1  H26B 2141  -0.412   1.615   8.303 -3.5857  1.8394 -2.5171
   29CHL1  H26C 2142  -0.505   1.516   8.193 -0.8784  2.2489  0.6155
   29CHL1   C27 2143  -0.190   1.669   8.151  0.5709  0.4359 -0.2468
   29CHL1  H27A 2144  -0.106   1.600   8.176 -0.7236 -0.7817  0.8725
   29CHL1  H27B 2145  -0.165   1.748   8.076 -0.4449  4.3226  3.1288
   29CHL1  H27C 2146  -0.215   1.728   8.242  0.8032  0.2187 -0.0391
   30CHL1    C3 2147   3.760   5.646   7.222 -0.6076  0.2116  0.7891
   30CHL1    H3 2148   3.656   5.685   7.224 -0.4979  0.7333 -1.4113
   30CHL1    O3 2149   3.803   5.620   7.090  0.1579 -0.2627  0.1506
   30CHL1   H3' 2150   3.899   5.627   7.088  0.1183  0.1895 -0.6770
   30CHL1    C4 2151   3.860   5.750   7.289  0.9227  0.7739 -0.1933
   30CHL1   H4A 2152   3.961   5.706   7.305  0.9103  0.8695  0.1361
   30CHL1   H4B 2153   3.861   5.835   7.217  0.0882  0.8729 -0.0968
   30CHL1    C5 2154   3.809   5.789   7.427  0.0178  0.1308  0.0891
   30CHL1    C6 2155   3.767   5.915   7.451 -0.3902  0.5468 -0.1404
   30CHL1    H6 2156   3.773   5.992   7.372 -0.0811  1.6188  0.8881
   30CHL1    C7 2157   3.733   5.955   7.589 -0.2626  0.1620  0.0980
   30CHL1   H7A 2158   3.804   6.038   7.610  3.2658 -1.7571 -3.1085
   30CHL1   H7B 2159   3.628   5.986   7.612 -2.0915 -4.9666 -0.1425
   30CHL1    C8 2160   3.765   5.851   7.700  0.3944 -0.3323  0.0716
   30CHL1    H8 2161   3.875   5.855   7.713  0.3005 -1.0587  1.3502
   30CHL1   C14 2162   3.697   5.887   7.829 -0.5398 -0.3305 -0.3384
   30CHL1   H14 2163   3.587   5.884   7.811 -0.7042  2.4527 -0.2368
   30CHL1   C15 2164   3.724   6.028   7.875  0.3199 -0.1759 -0.0708
   30CHL1  H15A 2165   3.830   6.060   7.860  0.4238 -0.9489 -1.0419
   30CHL1  H15B 2166   3.665   6.103   7.818  0.1603  1.1149  1.6783
   30CHL1   C16 2167   3.702   6.017   8.027  0.1723  0.4818 -0.4520
   30CHL1  H16A 2168   3.795   6.049   8.079  0.3797  0.2179 -0.6552
   30CHL1  H16B 2169   3.625   6.089   8.061  0.6339  1.1168 -0.7232
   30CHL1   C17 2170   3.672   5.871   8.070  0.5513 -0.6278  0.2396
   30CHL1   H17 2171   3.562   5.862   8.058  0.5642  1.9291 -3.2042
   30CHL1   C13 2172   3.741   5.794   7.943 -0.1221 -0.4378 -0.5284
   30CHL1   C18 2173   3.889   5.782   7.967 -0.4777  0.1349  0.4481
   30CHL1  H18A 2174   3.936   5.881   7.985  0.3489 -0.4810  1.9003
   30CHL1  H18B 2175   3.907   5.704   8.044 -0.1728 -1.4280 -1.1425
   30CHL1  H18C 2176   3.948   5.737   7.885 -0.1840 -1.9286  1.7002
   30CHL1   C12 2177   3.689   5.657   7.909 -0.1963  0.1035 -0.1042
   30CHL1  H12A 2178   3.711   5.593   7.997 -2.1092 -1.0082 -0.3716
   30CHL1  H12B 2179   3.579   5.670   7.898 -0.2432 -0.9480 -1.0989
   30CHL1   C11 2180   3.729   5.598   7.774 -0.4374  0.5838  0.2749
   30CHL1  H11A 2181   3.835   5.571   7.793 -0.8020 -1.4862 -0.3423
   30CHL1  H11B 2182   3.673   5.503   7.757  1.1495 -0.3331  0.0577
   30CHL1    C9 2183   3.724   5.703   7.660 -0.1593 -1.0416 -0.5310
   30CHL1    H9 2184   3.618   5.712   7.628  0.5719  0.7609 -2.6694
   30CHL1   C10 2185   3.795   5.672   7.525  0.3448 -0.4440  0.2258
   30CHL1   C19 2186   3.920   5.612   7.568 -1.1999  0.2468 -0.4936
   30CHL1  H19A 2187   3.986   5.586   7.482  0.5410 -1.0522  1.1487
   30CHL1  H19B 2188   3.984   5.672   7.635  1.3615 -1.6483 -1.0755
   30CHL1  H19C 2189   3.904   5.511   7.613 -0.2075 -0.0887 -0.8554
   30CHL1    C1 2190   3.719   5.556   7.452 -0.0561  0.1828  0.2541
   30CHL1   H1A 2191   3.708   5.462   7.510 -2.3135  0.8559  1.0146
   30CHL1   H1B 2192   3.615   5.591   7.435  0.0021  0.5464  0.6275
   30CHL1    C2 2193   3.772   5.521   7.308 -0.0639  0.6742  0.3034
   30CHL1   H2A 2194   3.711   5.445   7.257 -0.5120  1.7322 -0.7847
   30CHL1   H2B 2195   3.876   5.482   7.310 -0.6793 -1.0034  0.9301
   30CHL1   C20 2196   3.712   5.829   8.216  0.3936 -0.1803  0.0306
   30CHL1   H20 2197   3.818   5.796   8.213  0.2843 -0.4893 -0.4212
   30CHL1   C21 2198   3.622   5.716   8.259 -0.4087 -0.2877  0.3014
   30CHL1  H21A 2199   3.519   5.740   8.227  0.4995 -0.5935 -3.3371
   30CHL1  H21B 2200   3.620   5.706   8.369  1.1237  3.0823  0.7605
   30CHL1  H21C 2201   3.665   5.626   8.210 -1.2228 -1.2188  1.2521
   30CHL1   C22 2202   3.711   5.953   8.323  0.1413 -0.4130 -0.0396
   30CHL1  H22A 2203   3.739   5.922   8.425  1.2671  0.9058  0.0798
   30CHL1  H22B 2204   3.776   6.036   8.289  0.1801 -0.3331  0.2355
   30CHL1   C23 2205   3.564   5.994   8.345  0.1094 -0.9071 -0.1413
   30CHL1  H23A 2206   3.502   5.976   8.254  1.6447  0.1907 -1.4696
   30CHL1  H23B 2207   3.521   5.932   8.427 -1.1686 -1.5411 -1.2561
   30CHL1   C24 2208   3.557   6.141   8.381 -0.1558 -0.3317  0.3158
   30CHL1  H24A 2209   3.570   6.151   8.490 -1.9750  0.9112  0.4584
   30CHL1  H24B 2210   3.636   6.195   8.325  0.5213 -0.3404  1.2484
   30CHL1   C25 2211   3.425   6.216   8.369 -0.5967  0.2765  0.0226
   30CHL1   H25 2212   3.444   6.321   8.402  1.2342  0.1692 -0.5493
   30CHL1   C26 2213   3.374   6.224   8.224 -0.7607  0.9676  0.2364
   30CHL1  H26A 2214   3.378   6.118   8.191 -1.9057 -0.3131  3.6915
   30CHL1  H26B 2215   3.274   6.267   8.241 -1.6769 -0.6505 -0.7710
   30CHL1  H26C 2216   3.435   6.284   8.154  1.7245 -1.6950 -0.0839
   30CHL1   C27 2217   3.317   6.159   8.459 -0.0732 -0.2695 -0.2658
   30CHL1  H27A 2218   3.333   6.180   8.567 -2.0984 -0.1334  0.0430
   30CHL1  H27B 2219   3.222   6.207   8.428  0.8515  0.1799 -2.6053
   30CHL1  H27C 2220   3.309   6.049   8.445  1.9807 -0.6389  1.0467
   31CHL1    C3 2221   4.323   0.424   6.920 -0.4409 -0.0075 -0.1708
   31CHL1    H3 2222   4.432   0.405   6.917 -0.7745 -1.9851 -1.4091
   31CHL1    O3 2223   4.271   0.400   6.789 -0.2804  0.1604 -0.1798
   31CHL1   H3' 2224   4.300   0.310   6.773  1.4960  0.6793 -0.0756
   31CHL1    C4 2225   4.271   0.315   7.016 -0.1014 -0.8240  0.1536
   31CHL1   H4A 2226   4.161   0.307   7.028 -0.0630  0.0316  1.3721
   31CHL1   H4B 2227   4.296   0.217   6.971 -2.2681 -0.9742 -0.8588
   31CHL1    C5 2228   4.332   0.337   7.154 -0.3033  0.2888 -0.1146
   31CHL1    C6 2229   4.405   0.242   7.206 -0.3644 -0.3080  0.3935
   31CHL1    H6 2230   4.405   0.147   7.152 -1.1898 -0.2808  0.3336
   31CHL1    C7 2231   4.475   0.256   7.336  0.0747  0.5509  0.2339
   31CHL1   H7A 2232   4.445   0.172   7.402 -0.9663  0.8336  0.1447
   31CHL1   H7B 2233   4.583   0.260   7.311  0.2849 -0.5241  0.9036
   31CHL1    C8 2234   4.426   0.377   7.421 -0.3853 -0.3163 -0.5610
   31CHL1    H8 2235   4.322   0.356   7.451  0.2288  0.8777  2.8431
   31CHL1   C14 2236   4.506   0.392   7.546 -0.2365  0.1884 -0.0608
   31CHL1   H14 2237   4.603   0.407   7.494 -1.5557  1.5125 -2.2671
   31CHL1   C15 2238   4.528   0.269   7.634 -0.3067 -0.1358  0.2663
   31CHL1  H15A 2239   4.428   0.225   7.657 -1.2355  2.2956  1.2398
   31CHL1  H15B 2240   4.591   0.193   7.583 -1.3505 -0.0854 -1.1673
   31CHL1   C16 2241   4.572   0.330   7.768 -0.4262 -0.0656  0.8558
   31CHL1  H16A 2242   4.499   0.315   7.850 -1.6624  0.5882 -0.0905
   31CHL1  H16B 2243   4.672   0.294   7.802  0.3092  0.8426 -0.2776
   31CHL1   C17 2244   4.577   0.489   7.746  0.4095 -0.3220 -0.4709
   31CHL1   H17 2245   4.675   0.512   7.700  1.0809  1.5046  1.6983
   31CHL1   C13 2246   4.472   0.511   7.636  0.0806  0.0854 -0.6096
   31CHL1   C18 2247   4.335   0.497   7.705 -0.2438 -0.2475 -0.0664
   31CHL1  H18A 2248   4.256   0.479   7.629  0.1509 -1.9260 -0.1436
   31CHL1  H18B 2249   4.331   0.410   7.774  1.4554 -1.4085 -1.3271
   31CHL1  H18C 2250   4.316   0.591   7.759 -0.7693  1.5119 -3.0690
   31CHL1   C12 2251   4.481   0.635   7.550  0.4622  0.3637  0.2056
   31CHL1  H12A 2252   4.461   0.727   7.609  1.3655  0.5000  0.3029
   31CHL1  H12B 2253   4.587   0.641   7.518  0.5599 -1.3238  0.1364
   31CHL1   C11 2254   4.389   0.631   7.427  0.5376 -0.4221  0.4419
   31CHL1  H11A 2255   4.283   0.623   7.460  0.6643 -2.3192  0.4818
   31CHL1  H11B 2256   4.394   0.724   7.366  0.0519  0.0564  1.1102
   31CHL1    C9 2257   4.421   0.509   7.338 -0.3786 -0.3743 -0.3578
   31CHL1    H9 2258   4.522   0.536   7.302 -0.1254  1.2557  1.3959
   31CHL1   C10 2259   4.323   0.486   7.214 -0.2117 -0.0488  0.1324
   31CHL1   C19 2260   4.180   0.504   7.263 -0.0166  0.1495  0.2539
   31CHL1  H19A 2261   4.182   0.610   7.296  2.1850 -0.5966  2.8632
   31CHL1  H19B 2262   4.111   0.488   7.177  2.3471 -1.1402 -1.5103
   31CHL1  H19C 2263   4.162   0.426   7.340  0.5627 -0.9605 -0.6875
   31CHL1    C1 2264   4.352   0.588   7.103  0.0859  0.3243 -0.2848
   31CHL1   H1A 2265   4.326   0.687   7.146 -0.7612 -0.3601  0.8682
   31CHL1   H1B 2266   4.462   0.585   7.089  0.2258  0.2369  0.7473
   31CHL1    C2 2267   4.294   0.564   6.970  0.0331  0.0533  0.3255
   31CHL1   H2A 2268   4.330   0.637   6.895 -1.5176  0.6099  0.0917
   31CHL1   H2B 2269   4.183   0.574   6.971  0.1798  2.1767  1.0194
   31CHL1   C20 2270   4.581   0.552   7.889  1.0890 -0.2367  0.6311
   31CHL1   H20 2271   4.493   0.512   7.944  0.2331  1.7548  0.8236
   31CHL1   C21 2272   4.568   0.706   7.877 -0.0859  0.2214  0.2168
   31CHL1  H21A 2273   4.471   0.733   7.829 -0.3224 -1.8816 -0.5863
   31CHL1  H21B 2274   4.649   0.735   7.807 -0.0873  0.5501  0.3501
   31CHL1  H21C 2275   4.567   0.760   7.974 -0.2558 -1.6395  1.3002
   31CHL1   C22 2276   4.704   0.512   7.977 -0.4235  0.0338  0.0277
   31CHL1  H22A 2277   4.705   0.405   8.009  0.4519 -0.0881 -0.3821
   31CHL1  H22B 2278   4.789   0.535   7.910 -0.4623 -2.0466 -0.8230
   31CHL1   C23 2279   4.721   0.609   8.107 -1.0255 -0.2154 -0.1985
   31CHL1  H23A 2280   4.761   0.710   8.086  0.9168 -0.7107  0.8267
   31CHL1  H23B 2281   4.617   0.607   8.145 -1.0909  0.8328 -0.2966
   31CHL1   C24 2282   4.819   0.540   8.202 -0.0039 -0.2931 -0.1170
   31CHL1  H24A 2283   4.778   0.439   8.221 -3.1440  0.7922 -0.6017
   31CHL1  H24B 2284   4.922   0.533   8.159  0.1487  2.5073 -0.4156
   31CHL1   C25 2285   4.843   0.625   8.331  0.0882  1.0738 -0.2329
   31CHL1   H25 2286   4.879   0.726   8.303 -1.9076  1.4671 -1.6575
   31CHL1   C26 2287   4.722   0.619   8.421  0.3161 -0.1228  0.3054
   31CHL1  H26A 2288   4.642   0.680   8.375  1.2849 -0.3116 -1.7650
   31CHL1  H26B 2289   4.690   0.515   8.443 -2.2791  0.8200  1.3469
   31CHL1  H26C 2290   4.745   0.678   8.512  2.0790  0.4039 -0.4372
   31CHL1   C27 2291   4.959   0.549   8.407 -1.0224  0.0018 -0.0346
   31CHL1  H27A 2292   5.044   0.555   8.335 -0.5071 -1.3955  0.4267
   31CHL1  H27B 2293   4.948   0.444   8.440 -2.0882  0.3997  0.9354
   31CHL1  H27C 2294   4.991   0.606   8.497  3.3136 -3.2661  0.8398
   32CHL1    C3 2295   4.797   5.530   6.784  0.3588 -0.1813 -0.4444
   32CHL1    H3 2296   4.897   5.482   6.775  0.1625 -1.3248  2.3486
   32CHL1    O3 2297   4.738   5.539   6.659 -1.1000  0.7394 -0.1224
   32CHL1   H3' 2298   4.651   5.576   6.676 -0.4952  1.5672  1.3901
   32CHL1    C4 2299   4.701   5.455   6.882  0.5781  0.1659 -0.0068
   32CHL1   H4A 2300   4.608   5.516   6.886  1.7174  1.9035  1.2038
   32CHL1   H4B 2301   4.660   5.358   6.848 -0.4342  1.1653 -1.7884
   32CHL1    C5 2302   4.763   5.453   7.022  0.1910 -0.3433  0.3376
   32CHL1    C6 2303   4.796   5.343   7.092  0.4348  0.6082  0.0187
   32CHL1    H6 2304   4.779   5.245   7.045  0.8958  0.3604  0.3625
   32CHL1    C7 2305   4.832   5.348   7.238 -0.2946  0.0956 -0.7773
   32CHL1   H7A 2306   4.781   5.271   7.300 -0.8764 -0.1725 -1.5623
   32CHL1   H7B 2307   4.942   5.341   7.254 -0.2837  3.5304  1.7686
   32CHL1    C8 2308   4.799   5.483   7.308  0.1036 -0.2667  0.0635
   32CHL1    H8 2309   4.690   5.499   7.322  0.2944  2.2535 -0.7512
   32CHL1   C14 2310   4.853   5.490   7.451 -0.3459  0.0279  0.2628
   32CHL1   H14 2311   4.964   5.482   7.446 -0.1258  2.5066 -0.2853
   32CHL1   C15 2312   4.818   5.376   7.546  0.1698  0.0478  0.4919
   32CHL1  H15A 2313   4.710   5.353   7.551 -0.4845  2.9174  0.8658
   32CHL1  H15B 2314   4.885   5.291   7.520 -0.6823 -0.4082 -0.2647
   32CHL1   C16 2315   4.859   5.439   7.687 -0.3019 -0.1760  0.4807
   32CHL1  H16A 2316   4.766   5.428   7.746 -0.4274  1.3668  0.5996
   32CHL1  H16B 2317   4.947   5.391   7.736 -0.2340  0.1154  0.6443
   32CHL1   C17 2318   4.898   5.586   7.667 -0.0756 -0.9055 -0.4533
   32CHL1   H17 2319   5.008   5.585   7.649 -0.5111 -2.2755 -3.5904
   32CHL1   C13 2320   4.839   5.628   7.527 -0.2428  0.1476  0.4468
   32CHL1   C18 2321   4.689   5.652   7.552  0.7131  0.4543  0.0908
   32CHL1  H18A 2322   4.635   5.586   7.624 -0.2273  1.3600  0.2450
   32CHL1  H18B 2323   4.673   5.759   7.575 -1.5716  0.2357 -0.2618
   32CHL1  H18C 2324   4.635   5.635   7.456  0.2264  1.1545  0.2365
   32CHL1   C12 2325   4.919   5.734   7.440  0.3026  0.3884 -0.6329
   32CHL1  H12A 2326   4.900   5.835   7.483 -2.7536 -1.6382  3.5734
   32CHL1  H12B 2327   5.026   5.707   7.430  0.2775  0.9151 -2.7523
   32CHL1   C11 2328   4.855   5.732   7.300 -0.4675  0.1692 -0.1571
   32CHL1  H11A 2329   4.748   5.758   7.313 -0.6015 -0.4050 -0.1040
   32CHL1  H11B 2330   4.896   5.810   7.232  0.6931 -1.0499 -0.9132
   32CHL1    C9 2331   4.852   5.595   7.218 -0.4223  0.2011  0.1801
   32CHL1    H9 2332   4.956   5.566   7.193  0.5995  2.1961  1.7884
   32CHL1   C10 2333   4.777   5.592   7.079  0.1905 -0.3499 -0.0723
   32CHL1   C19 2334   4.628   5.651   7.098 -0.4227  0.2924 -0.2555
   32CHL1  H19A 2335   4.622   5.752   7.145  0.7440  0.9020 -1.3552
   32CHL1  H19B 2336   4.590   5.667   6.994 -3.2898 -2.0787  0.2884
   32CHL1  H19C 2337   4.562   5.578   7.150  0.4692 -1.4002 -1.4069
   32CHL1    C1 2338   4.853   5.680   6.974  0.0853 -0.3499 -0.1166
   32CHL1   H1A 2339   4.846   5.788   7.002  2.2054  0.1156 -1.1324
   32CHL1   H1B 2340   4.959   5.651   6.957 -0.2780 -1.0690 -1.2027
   32CHL1    C2 2341   4.804   5.672   6.828 -0.3267  0.6448  0.4162
   32CHL1   H2A 2342   4.870   5.728   6.758  2.0283 -0.9002  1.2822
   32CHL1   H2B 2343   4.707   5.725   6.818  0.3506  1.7718 -0.5187
   32CHL1   C20 2344   4.867   5.678   7.787 -0.4889  0.1975 -0.1055
   32CHL1   H20 2345   4.778   5.742   7.770 -0.2085  0.7575  0.4936
   32CHL1   C21 2346   4.986   5.777   7.805  0.6252  0.4010 -0.5990
   32CHL1  H21A 2347   5.081   5.721   7.819  1.3939  1.9746  1.0183
   32CHL1  H21B 2348   4.967   5.845   7.890 -1.3999 -0.0343 -0.6677
   32CHL1  H21C 2349   4.999   5.843   7.717 -1.8404  2.3285  0.3647
   32CHL1   C22 2350   4.847   5.610   7.922 -0.2182  0.8609  0.0780
   32CHL1  H22A 2351   4.805   5.507   7.926 -1.7318  1.4508  0.2768
   32CHL1  H22B 2352   4.947   5.592   7.967 -0.1901 -2.4244 -1.0072
   32CHL1   C23 2353   4.757   5.698   8.011 -0.6859 -0.4341 -0.2948
   32CHL1  H23A 2354   4.816   5.791   8.030  1.8422 -2.4540  2.8185
   32CHL1  H23B 2355   4.656   5.725   7.971 -0.4177  1.8426  0.3670
   32CHL1   C24 2356   4.749   5.643   8.158 -0.3442  0.3968  0.0870
   32CHL1  H24A 2357   4.670   5.564   8.165 -1.1318  1.1830  0.2579
   32CHL1  H24B 2358   4.847   5.598   8.183 -0.6518 -0.8008 -0.7452
   32CHL1   C25 2359   4.710   5.741   8.274  0.3355  0.0283 -0.4794
   32CHL1   H25 2360   4.698   5.672   8.360  1.7465 -1.8412 -1.6905
   32CHL1   C26 2361   4.825   5.838   8.311  0.7211  0.5912  0.5212
   32CHL1  H26A 2362   4.854   5.900   8.223  0.6530  1.0125  0.7926
   32CHL1  H26B 2363   4.792   5.909   8.390  1.3603  1.7525 -0.2373
   32CHL1  H26C 2364   4.922   5.788   8.327  1.7039  1.2847 -2.5387
   32CHL1   C27 2365   4.580   5.804   8.245  0.0561 -0.6766 -0.0395
   32CHL1  H27A 2366   4.574   5.865   8.153 -0.3043  1.2886  1.2226
   32CHL1  H27B 2367   4.489   5.740   8.253 -1.6534  1.4957 -0.7598
   32CHL1  H27C 2368   4.566   5.879   8.326 -0.2555 -0.0505 -0.6588
   33CHL1    C3 2369   5.640   6.664   6.818  0.7769 -0.1449 -0.5845
   33CHL1    H3 2370   5.701   6.751   6.851 -1.1828  0.5657  1.4417
   33CHL1    O3 2371   5.599   6.658   6.676 -0.0255  0.7859 -0.7833
   33CHL1   H3' 2372   5.532   6.590   6.674  2.2455 -1.6772  0.0288
   33CHL1    C4 2373   5.714   6.532   6.855  0.5207  0.0628 -0.1418
   33CHL1   H4A 2374   5.645   6.454   6.815 -0.2722 -0.4632  2.1146
   33CHL1   H4B 2375   5.807   6.521   6.794 -1.0824  1.5052 -3.0604
   33CHL1    C5 2376   5.729   6.489   7.001  0.7599  0.1540  0.5953
   33CHL1    C6 2377   5.843   6.445   7.040 -0.1822 -0.3196 -0.8615
   33CHL1    H6 2378   5.921   6.432   6.963  1.4680  3.3977 -0.0643
   33CHL1    C7 2379   5.879   6.419   7.185 -0.3976 -0.0148  0.4640
   33CHL1   H7A 2380   5.939   6.326   7.196 -1.6245 -0.8015  0.7009
   33CHL1   H7B 2381   5.941   6.502   7.225  1.0663 -0.1121 -1.4501
   33CHL1    C8 2382   5.753   6.409   7.277 -0.0029 -0.4959  0.1212
   33CHL1    H8 2383   5.701   6.312   7.263  1.3079 -1.0243 -1.5495
   33CHL1   C14 2384   5.794   6.434   7.421 -0.4630  0.0835 -0.2458
   33CHL1   H14 2385   5.834   6.537   7.419 -1.5713  0.5047 -1.6279
   33CHL1   C15 2386   5.918   6.353   7.481 -0.3346  0.0315  1.3270
   33CHL1  H15A 2387   5.899   6.244   7.466  0.7413  0.0370 -0.4737
   33CHL1  H15B 2388   6.011   6.385   7.428 -0.9118 -0.9016 -0.3426
   33CHL1   C16 2389   5.909   6.386   7.634  0.0326  0.1538 -0.8761
   33CHL1  H16A 2390   5.908   6.289   7.688  1.3099 -0.0924 -1.2636
   33CHL1  H16B 2391   5.999   6.443   7.666  0.3306  0.6960 -2.5411
   33CHL1   C17 2392   5.780   6.476   7.653 -0.3878 -0.2522 -0.3302
   33CHL1   H17 2393   5.807   6.580   7.627  1.4000 -0.1127  1.7733
   33CHL1   C13 2394   5.685   6.443   7.533 -0.2292  0.4040  0.0538
   33CHL1   C18 2395   5.622   6.306   7.553  0.6143  0.1009 -0.7284
   33CHL1  H18A 2396   5.690   6.229   7.595  0.8034  0.6547 -0.0001
   33CHL1  H18B 2397   5.540   6.324   7.626  0.5746  1.4903 -1.0699
   33CHL1  H18C 2398   5.592   6.265   7.454 -0.5591  0.8417 -0.7114
   33CHL1   C12 2399   5.590   6.553   7.488 -0.7201 -0.5438  0.3566
   33CHL1  H12A 2400   5.511   6.569   7.565 -1.9398  0.1282 -0.9874
   33CHL1  H12B 2401   5.642   6.652   7.486 -1.4916 -0.0622  2.1494
   33CHL1   C11 2402   5.533   6.528   7.347 -0.3374  1.0664  0.7185
   33CHL1  H11A 2403   5.480   6.431   7.348  1.7171 -0.1416 -0.3054
   33CHL1  H11B 2404   5.456   6.603   7.320 -2.5057 -1.6702 -1.3439
   33CHL1    C9 2405   5.651   6.517   7.242  0.1769 -0.3593 -1.5971
   33CHL1    H9 2406   5.701   6.616   7.252  0.1183 -0.5787  2.6695
   33CHL1   C10 2407   5.608   6.516   7.090 -0.5013 -0.0888 -0.4584
   33CHL1   C19 2408   5.498   6.407   7.070  0.4124  0.0533  0.4372
   33CHL1  H19A 2409   5.545   6.311   7.101  0.5231 -0.5709 -1.5090
   33CHL1  H19B 2410   5.410   6.419   7.137 -0.1048 -0.5452 -0.1075
   33CHL1  H19C 2411   5.456   6.402   6.967 -0.3362  1.1131  0.6769
   33CHL1    C1 2412   5.557   6.664   7.055  0.3177  1.0551 -0.4876
   33CHL1   H1A 2413   5.473   6.684   7.125  0.6647  0.7465  0.0281
   33CHL1   H1B 2414   5.640   6.730   7.091 -0.2703  0.0629  3.0359
   33CHL1    C2 2415   5.510   6.681   6.909  0.0198  0.1223  0.2377
   33CHL1   H2A 2416   5.467   6.782   6.890  2.3269  0.9419 -0.9790
   33CHL1   H2B 2417   5.434   6.607   6.877 -1.1450  1.5055 -0.2684
   33CHL1   C20 2418   5.721   6.481   7.800  0.0495  0.2599  0.2256
   33CHL1   H20 2419   5.620   6.527   7.805  0.1413  0.6123 -0.8899
   33CHL1   C21 2420   5.812   6.576   7.878  0.0533  0.5802 -0.3199
   33CHL1  H21A 2421   5.854   6.648   7.805  0.1093 -0.0879 -0.9562
   33CHL1  H21B 2422   5.904   6.520   7.908  0.4781  0.7959 -1.1961
   33CHL1  H21C 2423   5.757   6.613   7.967  1.1913  1.1535  0.1612
   33CHL1   C22 2424   5.716   6.348   7.878 -0.1537  0.0218  0.4196
   33CHL1  H22A 2425   5.660   6.269   7.824  0.2609  0.5277 -0.7866
   33CHL1  H22B 2426   5.820   6.309   7.884 -0.3577 -1.1270 -2.1179
   33CHL1   C23 2427   5.670   6.370   8.029 -0.1777  0.8617 -0.0297
   33CHL1  H23A 2428   5.736   6.441   8.084  1.3886  0.3170 -1.1261
   33CHL1  H23B 2429   5.565   6.403   8.023 -0.8264 -1.1065 -0.2784
   33CHL1   C24 2430   5.678   6.232   8.104  0.1990 -0.3199 -0.3104
   33CHL1  H24A 2431   5.605   6.168   8.049 -0.3295 -2.6588  2.8343
   33CHL1  H24B 2432   5.778   6.183   8.101 -0.9124 -2.9061  1.1304
   33CHL1   C25 2433   5.629   6.231   8.249  0.5455 -0.1472 -0.2372
   33CHL1   H25 2434   5.602   6.128   8.280  0.1895  0.6489  2.3666
   33CHL1   C26 2435   5.731   6.296   8.339 -0.1488 -0.2486  0.5981
   33CHL1  H26A 2436   5.744   6.405   8.323 -1.3193  0.0093  1.2710
   33CHL1  H26B 2437   5.684   6.290   8.439 -1.1867 -1.2081  0.0755
   33CHL1  H26C 2438   5.828   6.242   8.333 -1.3445 -2.4265 -0.1321
   33CHL1   C27 2439   5.491   6.304   8.273  0.4713 -0.1719  0.0380
   33CHL1  H27A 2440   5.457   6.327   8.376 -1.5309  1.8977 -0.9743
   33CHL1  H27B 2441   5.491   6.403   8.222 -0.1912  1.6321  3.2762
   33CHL1  H27C 2442   5.412   6.239   8.229 -0.1768 -0.2807  1.3251
   34CHL1    C3 2443   0.025   5.197   7.148  0.5447 -0.0280 -0.1304
   34CHL1    H3 2444   0.023   5.086   7.159  0.7403 -0.3034 -2.3775
   34CHL1    O3 2445   0.027   5.207   7.006  0.1709  0.0550 -0.0022
   34CHL1   H3' 2446  -0.062   5.185   6.976 -0.3513 -0.0147  1.5018
   34CHL1    C4 2447  -0.113   5.245   7.199 -0.3617  0.1147 -0.8661
   34CHL1   H4A 2448  -0.115   5.355   7.182 -0.9017  0.4147  0.9174
   34CHL1   H4B 2449  -0.188   5.182   7.146 -0.1965  0.6464 -1.7447
   34CHL1    C5 2450  -0.102   5.212   7.353  0.0398 -0.6275 -0.6846
   34CHL1    C6 2451  -0.198   5.137   7.411 -0.2019  0.0092 -0.4977
   34CHL1    H6 2452  -0.285   5.095   7.357 -1.3635  2.1387 -0.3883
   34CHL1    C7 2453  -0.193   5.109   7.559  0.8065 -0.4342 -0.4374
   34CHL1   H7A 2454  -0.298   5.105   7.593  1.5721 -0.0143  2.2156
   34CHL1   H7B 2455  -0.159   5.006   7.586  0.2259 -0.4781  0.1376
   34CHL1    C8 2456  -0.117   5.211   7.641 -0.0567 -0.1127 -0.5159
   34CHL1    H8 2457  -0.174   5.306   7.644 -0.9604 -0.6782  1.2709
   34CHL1   C14 2458  -0.098   5.158   7.779 -0.0949 -0.3886  0.0673
   34CHL1   H14 2459  -0.034   5.068   7.777 -0.0390 -0.3723  0.7052
   34CHL1   C15 2460  -0.224   5.118   7.858  0.1005  0.5569  0.5728
   34CHL1  H15A 2461  -0.304   5.193   7.841 -0.2080  0.1822  0.3610
   34CHL1  H15B 2462  -0.257   5.022   7.814 -1.2676  1.8286 -1.3681
   34CHL1   C16 2463  -0.178   5.116   8.005  0.8637 -0.3018  0.4269
   34CHL1  H16A 2464  -0.249   5.187   8.051  0.4496  0.6827 -1.6143
   34CHL1  H16B 2465  -0.184   5.014   8.049  1.1379 -1.0655 -1.1988
   34CHL1   C17 2466  -0.031   5.168   8.003  0.4011 -0.3770  0.4616
   34CHL1   H17 2467   0.024   5.072   8.010 -0.7156 -1.0247  0.5991
   34CHL1   C13 2468  -0.019   5.246   7.871  0.4799 -0.4111 -0.7131
   34CHL1   C18 2469  -0.076   5.392   7.891 -0.5809  0.3866 -0.2840
   34CHL1  H18A 2470  -0.162   5.383   7.960  0.9187 -0.1539  1.6261
   34CHL1  H18B 2471  -0.010   5.455   7.955 -2.3748  2.1809 -0.1302
   34CHL1  H18C 2472  -0.091   5.436   7.791  1.6100 -1.6965 -1.6522
   34CHL1   C12 2473   0.124   5.262   7.809  0.0791 -0.1852 -0.6691
   34CHL1  H12A 2474   0.198   5.311   7.875 -0.6745 -0.5319  0.4691
   34CHL1  H12B 2475   0.162   5.159   7.793  1.3537  0.3595 -1.2398
   34CHL1   C11 2476   0.113   5.317   7.666  0.0486 -0.1814 -0.3564
   34CHL1  H11A 2477   0.062   5.415   7.672 -1.2839 -0.8504 -0.3285
   34CHL1  H11B 2478   0.209   5.335   7.614 -0.6188  0.0716 -1.5428
   34CHL1    C9 2479   0.019   5.226   7.586 -0.1764 -0.1625  0.0547
   34CHL1    H9 2480   0.063   5.125   7.572 -2.6196 -0.9228 -3.6195
   34CHL1   C10 2481   0.016   5.271   7.433 -0.7104  0.2287  0.2503
   34CHL1   C19 2482  -0.011   5.422   7.424 -0.8966  0.4603 -0.0161
   34CHL1  H19A 2483  -0.092   5.469   7.483 -1.8288 -0.0793 -0.8337
   34CHL1  H19B 2484   0.076   5.480   7.462  0.2318  0.5050 -2.4923
   34CHL1  H19C 2485  -0.022   5.451   7.317 -0.2278 -0.1623 -0.2646
   34CHL1    C1 2486   0.152   5.233   7.361  0.0559 -0.3427 -0.1643
   34CHL1   H1A 2487   0.239   5.284   7.408 -0.2746  0.2877 -0.2257
   34CHL1   H1B 2488   0.175   5.125   7.371  0.5778 -0.3275 -1.0972
   34CHL1    C2 2489   0.145   5.259   7.215 -0.2106 -0.4339  0.0434
   34CHL1   H2A 2490   0.237   5.228   7.160 -1.5047  1.0198 -3.1871
   34CHL1   H2B 2491   0.124   5.367   7.196 -1.3161 -0.5177  0.7120
   34CHL1   C20 2492   0.009   5.240   8.135 -0.0401  0.1633  0.7329
   34CHL1   H20 2493  -0.034   5.342   8.128  1.5066  0.7442 -0.8642
   34CHL1   C21 2494   0.162   5.256   8.137  0.3861 -0.6345 -0.2527
   34CHL1  H21A 2495   0.190   5.290   8.239 -2.8081 -0.6035  0.7011
   34CHL1  H21B 2496   0.207   5.336   8.075 -4.1324  1.3190 -1.3787
   34CHL1  H21C 2497   0.212   5.160   8.110 -1.5299 -1.5446 -0.7217
   34CHL1   C22 2498  -0.041   5.176   8.259  0.6992  0.3571  0.3321
   34CHL1  H22A 2499   0.003   5.222   8.350  2.0988 -1.9526  0.9180
   34CHL1  H22B 2500  -0.151   5.188   8.272  0.9526  1.2402  1.9631
   34CHL1   C23 2501   0.008   5.032   8.278  0.8441 -0.3963 -0.2994
   34CHL1  H23A 2502  -0.040   4.969   8.200 -1.3778  1.0930 -0.2235
   34CHL1  H23B 2503   0.117   5.028   8.261  1.0288  1.2174  0.3538
   34CHL1   C24 2504  -0.021   4.961   8.408  0.0282  1.0747 -0.1597
   34CHL1  H24A 2505   0.017   4.858   8.393 -0.5784  0.9866 -1.1568
   34CHL1  H24B 2506   0.042   5.000   8.491 -0.0602 -1.3658  1.1619
   34CHL1   C25 2507  -0.173   4.968   8.460  0.0471 -0.1623 -0.4601
   34CHL1   H25 2508  -0.212   5.070   8.444 -0.8275 -0.3191  0.5830
   34CHL1   C26 2509  -0.271   4.879   8.375  0.7136 -0.5990 -0.0107
   34CHL1  H26A 2510  -0.241   4.773   8.389 -0.1290 -1.0228 -1.2173
   34CHL1  H26B 2511  -0.370   4.889   8.424  0.6037  1.7756 -0.6279
   34CHL1  H26C 2512  -0.285   4.916   8.271  2.2276 -0.1967 -0.0951
   34CHL1   C27 2513  -0.179   4.948   8.614 -0.2807  0.2003  0.5677
   34CHL1  H27A 2514  -0.179   4.842   8.648  2.1699 -0.2616 -0.6152
   34CHL1  H27B 2515  -0.092   4.989   8.668 -1.0728  1.4632  0.9192
   34CHL1  H27C 2516  -0.277   4.981   8.656 -0.5068 -1.7153  1.6853
   35CHL1    C3 2517   2.923   5.967   7.308  0.1511  0.0621 -0.7072
   35CHL1    H3 2518   3.010   5.996   7.371 -1.3083 -0.7839  1.8513
   35CHL1    O3 2519   2.961   5.949   7.171 -0.4213  0.6189  0.8736
   35CHL1   H3' 2520   2.912   5.873   7.140  0.3930  0.2061  0.5797
   35CHL1    C4 2521   2.872   5.834   7.375 -0.1768 -0.3311 -0.5647
   35CHL1   H4A 2522   2.795   5.790   7.307 -0.4184 -2.4138  0.9701
   35CHL1   H4B 2523   2.959   5.764   7.383 -0.0902 -0.1437  0.1650
   35CHL1    C5 2524   2.820   5.844   7.517  0.6685 -0.2562 -0.2885
   35CHL1    C6 2525   2.855   5.761   7.624  0.4346  0.3264 -0.2018
   35CHL1    H6 2526   2.932   5.682   7.624  0.2482  0.1383  0.2000
   35CHL1    C7 2527   2.789   5.779   7.761  0.4704  0.1544  0.4925
   35CHL1   H7A 2528   2.768   5.681   7.809 -0.7505 -0.0676 -0.4351
   35CHL1   H7B 2529   2.872   5.815   7.825  0.3429 -1.9487  1.9612
   35CHL1    C8 2530   2.667   5.875   7.767 -0.0364 -0.4306  0.4149
   35CHL1    H8 2531   2.584   5.817   7.721  1.3373 -1.0201 -1.4447
   35CHL1   C14 2532   2.630   5.906   7.909 -0.0002 -0.4796  0.0193
   35CHL1   H14 2533   2.717   5.959   7.954 -0.2151 -1.6039  1.8509
   35CHL1   C15 2534   2.613   5.795   8.016 -0.0815 -0.0335  0.6083
   35CHL1  H15A 2535   2.552   5.711   7.976  0.5866 -0.1011 -0.3094
   35CHL1  H15B 2536   2.712   5.758   8.050  1.2884 -0.4398 -3.3467
   35CHL1   C16 2537   2.535   5.860   8.129 -0.0961 -0.0666  0.7465
   35CHL1  H16A 2538   2.441   5.804   8.151  0.0209 -1.6458 -2.3346
   35CHL1  H16B 2539   2.597   5.856   8.221  0.7660 -0.5804  0.1515
   35CHL1   C17 2540   2.506   6.012   8.079 -0.4019 -0.0086 -0.2229
   35CHL1   H17 2541   2.601   6.061   8.110 -0.0379 -1.6573  1.5246
   35CHL1   C13 2542   2.511   6.003   7.925 -0.3936 -0.5313 -0.4566
   35CHL1   C18 2543   2.380   5.947   7.879 -0.0614 -0.6303  0.1009
   35CHL1  H18A 2544   2.382   5.932   7.769 -2.0107 -1.1864  0.1057
   35CHL1  H18B 2545   2.357   5.843   7.911 -2.8776 -0.0427  0.2382
   35CHL1  H18C 2546   2.299   6.020   7.901 -0.7395 -1.2804 -0.1706
   35CHL1   C12 2547   2.552   6.135   7.860 -0.0737  1.4225  0.2024
   35CHL1  H12A 2548   2.464   6.204   7.865 -0.9710  0.3128  0.1033
   35CHL1  H12B 2549   2.647   6.177   7.899  0.5732  0.2108 -0.0148
   35CHL1   C11 2550   2.581   6.113   7.714 -0.5510  0.6060  0.3953
   35CHL1  H11A 2551   2.484   6.073   7.677 -0.3293 -1.9310  2.2402
   35CHL1  H11B 2552   2.605   6.214   7.675 -1.7257  0.5247 -0.5744
   35CHL1    C9 2553   2.694   6.002   7.686  0.2847  0.0720  0.0825
   35CHL1    H9 2554   2.788   6.039   7.733  0.9778 -2.7453  1.1637
   35CHL1   C10 2555   2.722   5.962   7.535  0.4099  0.7387  0.0057
   35CHL1   C19 2556   2.592   5.920   7.467 -0.3920 -0.2779 -0.9724
   35CHL1  H19A 2557   2.622   5.889   7.364  2.8464  1.0460 -0.5390
   35CHL1  H19B 2558   2.544   5.834   7.518 -1.6845  0.5197 -0.8160
   35CHL1  H19C 2559   2.516   6.000   7.466 -1.0279 -0.8532  0.1000
   35CHL1    C1 2560   2.776   6.091   7.476 -0.0847  0.0640  0.0619
   35CHL1   H1A 2561   2.696   6.168   7.477  0.5106  0.7423  2.5803
   35CHL1   H1B 2562   2.863   6.120   7.539  0.4807 -0.8099 -0.2907
   35CHL1    C2 2563   2.822   6.077   7.327  0.2793  0.0274  0.1753
   35CHL1   H2A 2564   2.857   6.175   7.290 -0.6745  1.0590  1.8637
   35CHL1   H2B 2565   2.731   6.038   7.276  0.3019 -0.9754  0.8782
   35CHL1   C20 2566   2.401   6.101   8.152  0.7675  0.5018 -0.2019
   35CHL1   H20 2567   2.377   6.184   8.081  2.4475  0.6322 -0.6453
   35CHL1   C21 2568   2.460   6.164   8.280  0.6792  0.2479  0.1602
   35CHL1  H21A 2569   2.554   6.220   8.259 -0.1194  1.3878 -0.5235
   35CHL1  H21B 2570   2.494   6.089   8.353  0.8883  0.4635  0.2864
   35CHL1  H21C 2571   2.387   6.229   8.332 -0.1373 -0.0448 -0.5934
   35CHL1   C22 2572   2.275   6.027   8.207  0.7102 -0.1516  0.4907
   35CHL1  H22A 2573   2.249   5.948   8.134  0.6991 -1.9312  2.3280
   35CHL1  H22B 2574   2.295   5.985   8.308 -1.1346 -0.6224  0.6806
   35CHL1   C23 2575   2.146   6.114   8.224  0.2156 -0.6693 -1.3575
   35CHL1  H23A 2576   2.068   6.052   8.275 -0.7035 -0.8688 -2.9436
   35CHL1  H23B 2577   2.162   6.200   8.292  1.3855 -1.4540 -0.6015
   35CHL1   C24 2578   2.080   6.150   8.087 -0.0865 -0.1504  0.2680
   35CHL1  H24A 2579   2.150   6.219   8.035  0.6955  0.8314  2.5136
   35CHL1  H24B 2580   2.064   6.055   8.030 -0.7929 -0.9964  1.8280
   35CHL1   C25 2581   1.943   6.214   8.093  0.8740 -0.2284 -0.3591
   35CHL1   H25 2582   1.897   6.212   7.992 -1.5694  2.0803  0.5876
   35CHL1   C26 2583   1.844   6.140   8.185 -0.4255 -0.2042  0.0454
   35CHL1  H26A 2584   1.878   6.155   8.290  2.2699 -1.7928 -0.4982
   35CHL1  H26B 2585   1.748   6.196   8.182 -0.7073 -0.6838 -0.0370
   35CHL1  H26C 2586   1.831   6.037   8.146 -1.9888 -1.1865  2.8423
   35CHL1   C27 2587   1.969   6.367   8.133  0.0018  0.5537 -0.6363
   35CHL1  H27A 2588   1.995   6.380   8.240 -2.8397 -1.7642  0.4683
   35CHL1  H27B 2589   1.872   6.415   8.106 -0.6552 -1.3943 -1.9388
   35CHL1  H27C 2590   2.044   6.421   8.071  2.2456  0.1137  1.5493
   36CHL1    C3 2591   3.586   4.494   7.043  0.1728  0.1423 -0.0820
   36CHL1    H3 2592   3.608   4.389   7.073 -1.4065  0.0053  0.6644
   36CHL1    O3 2593   3.562   4.496   6.907  0.0655  0.5132  0.1497
   36CHL1   H3' 2594   3.577   4.587   6.879  0.9557  0.1498 -0.5955
   36CHL1    C4 2595   3.462   4.535   7.110 -0.0171 -0.0407  0.2271
   36CHL1   H4A 2596   3.438   4.634   7.065  0.7815 -0.4623 -1.2167
   36CHL1   H4B 2597   3.377   4.476   7.069 -0.7611  1.9228 -1.2565
   36CHL1    C5 2598   3.462   4.550   7.262 -0.6369  0.4564  0.2552
   36CHL1    C6 2599   3.385   4.484   7.350 -0.4760  0.0727 -0.6529
   36CHL1    H6 2600   3.315   4.405   7.317  0.0140 -0.7909  0.3448
   36CHL1    C7 2601   3.388   4.497   7.502  0.6132  0.1829  0.7389
   36CHL1   H7A 2602   3.287   4.496   7.549 -0.8264 -1.3106 -2.0773
   36CHL1   H7B 2603   3.440   4.406   7.536 -0.4748 -1.2127 -1.1233
   36CHL1    C8 2604   3.460   4.629   7.543  0.8644 -0.0316  1.1542
   36CHL1    H8 2605   3.389   4.708   7.512  1.5485  0.4790  0.8814
   36CHL1   C14 2606   3.482   4.636   7.692 -0.0694  0.2229  0.3287
   36CHL1   H14 2607   3.545   4.545   7.702  0.4730  0.3071 -1.8145
   36CHL1   C15 2608   3.361   4.626   7.792 -0.0136 -0.7280 -0.6705
   36CHL1  H15A 2609   3.284   4.701   7.764  0.1010  0.0246  0.9333
   36CHL1  H15B 2610   3.315   4.527   7.810  0.6696 -1.2005 -1.4371
   36CHL1   C16 2611   3.424   4.686   7.925  0.2788 -0.1286 -0.0742
   36CHL1  H16A 2612   3.357   4.772   7.946 -0.3701 -0.8719  0.9906
   36CHL1  H16B 2613   3.422   4.613   8.009  0.9870  1.0286  0.9736
   36CHL1   C17 2614   3.573   4.739   7.898  0.2437  1.0757  0.2494
   36CHL1   H17 2615   3.629   4.647   7.926 -0.6147  1.0377  1.9323
   36CHL1   C13 2616   3.570   4.752   7.742  0.5127 -0.3755 -0.4694
   36CHL1   C18 2617   3.508   4.887   7.711  0.1223 -0.9635  0.1783
   36CHL1  H18A 2618   3.579   4.962   7.751  1.3855 -2.6742  1.3091
   36CHL1  H18B 2619   3.504   4.904   7.601  0.8719  3.8031  0.6621
   36CHL1  H18C 2620   3.407   4.909   7.752  0.6080  2.1962 -0.0673
   36CHL1   C12 2621   3.706   4.735   7.678  0.1712 -0.9419 -0.5476
   36CHL1  H12A 2622   3.767   4.822   7.709  0.4530 -0.7092 -1.6859
   36CHL1  H12B 2623   3.759   4.642   7.705  1.1908 -0.3269 -0.3649
   36CHL1   C11 2624   3.697   4.737   7.527  0.7226  0.2600 -0.3166
   36CHL1  H11A 2625   3.674   4.842   7.500 -2.3803 -0.2441  0.0857
   36CHL1  H11B 2626   3.798   4.719   7.483  0.5722  0.7109 -0.8588
   36CHL1    C9 2627   3.590   4.639   7.469 -1.2280 -0.2334 -0.3095
   36CHL1    H9 2628   3.629   4.536   7.488 -1.3182 -0.8339 -3.0517
   36CHL1   C10 2629   3.576   4.646   7.310  0.2783 -0.1379 -0.5315
   36CHL1   C19 2630   3.538   4.793   7.280 -0.1209 -0.0000  1.3516
   36CHL1  H19A 2631   3.455   4.833   7.342  0.4151  2.3482  0.6565
   36CHL1  H19B 2632   3.624   4.861   7.296 -1.4285  2.1562 -0.2206
   36CHL1  H19C 2633   3.497   4.799   7.176  1.7988 -3.0741  0.2751
   36CHL1    C1 2634   3.706   4.604   7.235 -0.1399  0.2519  0.2862
   36CHL1   H1A 2635   3.787   4.679   7.251  1.8976 -1.6795 -0.5158
   36CHL1   H1B 2636   3.742   4.509   7.279  0.0405 -0.1213 -0.6279
   36CHL1    C2 2637   3.703   4.591   7.082  0.2901  0.1779 -0.4320
   36CHL1   H2A 2638   3.796   4.548   7.041 -0.3406 -1.3506 -0.3215
   36CHL1   H2B 2639   3.691   4.692   7.037 -1.3551 -0.4033 -1.4068
   36CHL1   C20 2640   3.627   4.859   7.985 -0.3194  0.2957 -0.4953
   36CHL1   H20 2641   3.575   4.954   7.961 -1.1179  0.1462  0.5504
   36CHL1   C21 2642   3.778   4.896   7.966 -0.0463  0.0741  0.1815
   36CHL1  H21A 2643   3.811   4.984   8.027  0.0488 -0.1169  0.4098
   36CHL1  H21B 2644   3.791   4.936   7.864  0.0767 -1.4571 -0.4356
   36CHL1  H21C 2645   3.842   4.806   7.980  0.4333  0.2269 -0.9680
   36CHL1   C22 2646   3.600   4.841   8.134  0.3050 -0.5127 -0.4383
   36CHL1  H22A 2647   3.653   4.928   8.179  0.8182 -0.2799 -1.4688
   36CHL1  H22B 2648   3.492   4.858   8.155  0.6619  0.2530  0.8872
   36CHL1   C23 2649   3.648   4.707   8.184 -0.3268 -0.0031 -0.1587
   36CHL1  H23A 2650   3.598   4.626   8.126  1.6008 -0.7420 -0.8779
   36CHL1  H23B 2651   3.758   4.701   8.166 -0.2535  0.4568  0.1241
   36CHL1   C24 2652   3.621   4.692   8.334 -0.5245 -0.0904 -0.4706
   36CHL1  H24A 2653   3.643   4.586   8.359 -2.3560 -1.0799 -2.6526
   36CHL1  H24B 2654   3.696   4.762   8.376  1.1200 -0.6772 -2.2617
   36CHL1   C25 2655   3.483   4.732   8.393 -0.2316  0.3358  0.0846
   36CHL1   H25 2656   3.458   4.837   8.366  0.2757  0.8912  1.6606
   36CHL1   C26 2657   3.368   4.653   8.342 -0.3659  0.2342 -0.1219
   36CHL1  H26A 2658   3.358   4.693   8.239 -0.8686  0.8188  0.1525
   36CHL1  H26B 2659   3.384   4.543   8.342 -4.9349 -0.6432  1.2691
   36CHL1  H26C 2660   3.272   4.673   8.394  0.4382  0.1786  1.4355
   36CHL1   C27 2661   3.484   4.723   8.548 -0.3075  0.0056  0.1866
   36CHL1  H27A 2662   3.560   4.791   8.591  0.3062  0.0250 -0.9049
   36CHL1  H27B 2663   3.379   4.745   8.577 -0.5110 -1.1328  0.3672
   36CHL1  H27C 2664   3.513   4.619   8.577  0.4341  0.2203  0.2156
   37CHL1    C3 2665   6.145   1.405   6.918 -0.0619 -0.1015  0.4599
   37CHL1    H3 2666   6.055   1.465   6.894 -0.5281 -0.4959  1.1785
   37CHL1    O3 2667   6.230   1.389   6.795  0.6369  0.0731 -0.3200
   37CHL1   H3' 2668   6.219   1.297   6.773 -0.1169  0.5100 -1.8763
   37CHL1    C4 2669   6.229   1.495   7.013  0.8469 -0.8305 -0.8945
   37CHL1   H4A 2670   6.331   1.451   7.004  1.6674  0.6237  0.7971
   37CHL1   H4B 2671   6.236   1.597   6.968  0.5351 -1.7296 -3.1011
   37CHL1    C5 2672   6.191   1.500   7.158  0.4446 -0.0786  0.3546
   37CHL1    C6 2673   6.181   1.614   7.219 -0.2105 -0.7302 -1.1040
   37CHL1    H6 2674   6.215   1.706   7.170  1.4581 -0.4913  0.4315
   37CHL1    C7 2675   6.146   1.627   7.367 -0.8747 -0.7364 -0.7350
   37CHL1   H7A 2676   6.230   1.682   7.415 -0.9546 -0.6033 -0.7480
   37CHL1   H7B 2677   6.061   1.698   7.377 -0.8140 -0.6078 -1.0935
   37CHL1    C8 2678   6.134   1.494   7.438 -0.3756  0.5310  0.1850
   37CHL1    H8 2679   6.240   1.462   7.450  0.5440  1.9695 -2.8709
   37CHL1   C14 2680   6.065   1.502   7.572 -0.8798  0.1954  0.4874
   37CHL1   H14 2681   5.958   1.530   7.558 -1.1270  1.1318  3.5462
   37CHL1   C15 2682   6.114   1.613   7.666  0.5476  0.1419 -0.9760
   37CHL1  H15A 2683   6.224   1.613   7.676  0.8104 -3.0898 -2.5261
   37CHL1  H15B 2684   6.076   1.712   7.632 -2.2953 -1.4274 -2.8362
   37CHL1   C16 2685   6.047   1.571   7.806  0.2030 -0.1207 -0.0266
   37CHL1  H16A 2686   6.131   1.569   7.878  0.6557 -1.8623 -0.5665
   37CHL1  H16B 2687   5.971   1.638   7.853  1.0975  0.4565  0.6292
   37CHL1   C17 2688   5.988   1.428   7.783  0.5241  1.2207  0.7726
   37CHL1   H17 2689   5.878   1.438   7.771  0.2111 -1.2849  1.1665
   37CHL1   C13 2690   6.047   1.371   7.648 -0.4108  0.5551 -0.4041
   37CHL1   C18 2691   6.193   1.318   7.679  0.4954  0.2220  0.5474
   37CHL1  H18A 2692   6.254   1.295   7.589 -0.4432 -0.2321  0.0084
   37CHL1  H18B 2693   6.250   1.394   7.737 -0.3658  0.7256  0.7523
   37CHL1  H18C 2694   6.181   1.228   7.743 -0.4911 -0.0646 -0.0201
   37CHL1   C12 2695   5.957   1.285   7.555 -0.1023 -0.3808 -0.7205
   37CHL1  H12A 2696   5.951   1.191   7.614  1.5198  1.0002  1.8645
   37CHL1  H12B 2697   5.854   1.323   7.535  0.6155  2.8728  1.1019
   37CHL1   C11 2698   6.019   1.262   7.409 -0.0570 -0.0932 -0.6188
   37CHL1  H11A 2699   6.113   1.211   7.439  0.9782  1.3265 -1.2756
   37CHL1  H11B 2700   5.949   1.200   7.350 -1.0500  0.3111  0.0997
   37CHL1    C9 2701   6.059   1.394   7.344 -0.4997  0.1493  0.1497
   37CHL1    H9 2702   5.964   1.443   7.315 -0.6643  0.1743  0.7110
   37CHL1   C10 2703   6.135   1.364   7.212 -0.0803  0.5470  0.7850
   37CHL1   C19 2704   6.261   1.279   7.237 -0.4717  0.3166 -0.1517
   37CHL1  H19A 2705   6.322   1.289   7.145  1.5145  1.7648  1.2555
   37CHL1  H19B 2706   6.319   1.332   7.316  0.4702  1.1993 -1.3918
   37CHL1  H19C 2707   6.242   1.173   7.262 -1.2835  0.8745  1.7919
   37CHL1    C1 2708   6.048   1.291   7.105 -0.2796 -0.2293 -0.7981
   37CHL1   H1A 2709   6.022   1.193   7.151 -1.4127 -0.2726 -1.4885
   37CHL1   H1B 2710   5.954   1.345   7.082 -1.6857 -1.8144  0.8138
   37CHL1    C2 2711   6.111   1.269   6.970 -0.2724 -0.0295  1.0788
   37CHL1   H2A 2712   6.045   1.208   6.904  1.2945  0.1534 -0.7591
   37CHL1   H2B 2713   6.204   1.212   6.986 -0.6743  0.0232  4.0006
   37CHL1   C20 2714   6.001   1.339   7.909  0.0760  0.1717  0.2300
   37CHL1   H20 2715   6.112   1.343   7.919  0.2092  0.7710 -1.1995
   37CHL1   C21 2716   5.930   1.200   7.889 -0.6315 -0.0163  0.3448
   37CHL1  H21A 2717   5.977   1.141   7.807 -1.7297  2.1048 -1.9322
   37CHL1  H21B 2718   5.824   1.225   7.870  0.2720  3.0548 -1.4228
   37CHL1  H21C 2719   5.941   1.132   7.976 -0.9733  2.4835  2.4988
   37CHL1   C22 2720   5.956   1.414   8.039 -0.6960  0.4833 -0.3387
   37CHL1  H22A 2721   6.019   1.504   8.058  0.1888 -0.1442 -0.2152
   37CHL1  H22B 2722   5.854   1.456   8.032 -2.2666 -3.0753 -1.2605
   37CHL1   C23 2723   5.959   1.329   8.170 -0.0711 -0.1973 -0.9544
   37CHL1  H23A 2724   5.870   1.263   8.168 -2.3267  2.5885  0.9874
   37CHL1  H23B 2725   6.047   1.260   8.169  0.0437 -0.0704 -0.3646
   37CHL1   C24 2726   5.969   1.417   8.294 -0.8713 -0.5107  0.1197
   37CHL1  H24A 2727   6.056   1.485   8.280  0.5456 -2.1759  0.5699
   37CHL1  H24B 2728   5.880   1.484   8.301 -0.6334  0.0040 -1.3854
   37CHL1   C25 2729   5.981   1.346   8.426  0.0645  0.2332 -0.4163
   37CHL1   H25 2730   6.065   1.276   8.404  0.9666  1.5564 -1.2709
   37CHL1   C26 2731   6.028   1.438   8.550 -0.2328 -0.5388 -0.2763
   37CHL1  H26A 2732   5.938   1.486   8.594 -1.8723 -2.2959 -1.5542
   37CHL1  H26B 2733   6.085   1.387   8.631 -0.9280 -0.9066 -0.0075
   37CHL1  H26C 2734   6.087   1.521   8.507  1.3733 -0.5739  1.7438
   37CHL1   C27 2735   5.854   1.259   8.460 -0.2514  0.7086  0.2905
   37CHL1  H27A 2736   5.862   1.204   8.556  0.2962  1.5437  0.7370
   37CHL1  H27B 2737   5.773   1.335   8.472 -0.0702  0.6908  1.8417
   37CHL1  H27C 2738   5.832   1.180   8.385 -1.4083  0.6037  0.7072
   38CHL1    C3 2739   3.649   1.767   6.722 -0.1491  0.1783  0.0705
   38CHL1    H3 2740   3.544   1.804   6.723 -0.2179 -0.0200  1.8584
   38CHL1    O3 2741   3.674   1.712   6.591  0.5486  0.6224  0.1134
   38CHL1   H3' 2742   3.768   1.693   6.588  0.1755 -1.3216 -0.2579
   38CHL1    C4 2743   3.750   1.879   6.760  0.4858  0.0566 -0.1675
   38CHL1   H4A 2744   3.851   1.839   6.734  0.6204  0.4916 -0.3252
   38CHL1   H4B 2745   3.729   1.960   6.687  2.7493  0.4678 -0.4379
   38CHL1    C5 2746   3.745   1.924   6.903  0.0480  0.4137  0.3118
   38CHL1    C6 2747   3.719   2.048   6.941 -0.5210 -0.3799 -0.1495
   38CHL1    H6 2748   3.718   2.132   6.871 -0.8763  1.6142  2.1230
   38CHL1    C7 2749   3.709   2.091   7.092  0.2871 -0.2216 -0.4615
   38CHL1   H7A 2750   3.757   2.189   7.113  2.0059 -1.1934  0.3895
   38CHL1   H7B 2751   3.602   2.106   7.118  0.5101 -0.3917  0.5930
   38CHL1    C8 2752   3.767   1.988   7.192  0.1062  0.1835  0.7630
   38CHL1    H8 2753   3.878   1.990   7.189  0.0753  0.3586 -1.0992
   38CHL1   C14 2754   3.717   2.024   7.331 -0.8857 -0.9803 -0.0805
   38CHL1   H14 2755   3.607   2.020   7.323 -1.2594  2.5499  1.3003
   38CHL1   C15 2756   3.750   2.172   7.372 -0.8150 -0.6345 -0.5827
   38CHL1  H15A 2757   3.855   2.200   7.349 -0.2722 -1.5074  0.7292
   38CHL1  H15B 2758   3.686   2.241   7.313 -3.2863 -2.2230  0.0669
   38CHL1   C16 2759   3.733   2.171   7.524 -0.0299  0.4704 -0.0689
   38CHL1  H16A 2760   3.833   2.205   7.557  0.4611  0.4089 -1.4554
   38CHL1  H16B 2761   3.655   2.237   7.569  1.0549 -0.8045  4.1807
   38CHL1   C17 2762   3.701   2.024   7.561  0.4832 -0.4771 -0.1897
   38CHL1   H17 2763   3.593   2.002   7.556 -0.1053  1.1386  2.9163
   38CHL1   C13 2764   3.765   1.940   7.447 -0.4912 -0.0478 -0.5976
   38CHL1   C18 2765   3.921   1.942   7.474 -0.1269  0.0816  0.9141
   38CHL1  H18A 2766   3.964   2.039   7.506 -0.2668  0.6445 -0.5217
   38CHL1  H18B 2767   3.942   1.863   7.549 -0.2949  1.0462  2.0150
   38CHL1  H18C 2768   3.977   1.908   7.385 -1.8760  1.3600 -0.7732
   38CHL1   C12 2769   3.722   1.791   7.417  0.6737  0.4525  0.2973
   38CHL1  H12A 2770   3.767   1.731   7.499  2.1699  1.9331  0.6321
   38CHL1  H12B 2771   3.611   1.782   7.423  0.3951  3.2543  0.9987
   38CHL1   C11 2772   3.766   1.752   7.273  0.5082  0.4092 -0.3755
   38CHL1  H11A 2773   3.876   1.741   7.271  0.5841  1.0818 -0.1429
   38CHL1  H11B 2774   3.723   1.653   7.250  2.6021 -0.9303  1.1310
   38CHL1    C9 2775   3.719   1.851   7.158  1.0315  0.3109 -0.7638
   38CHL1    H9 2776   3.608   1.858   7.167  0.9272 -0.0102 -1.7257
   38CHL1   C10 2777   3.744   1.810   7.011 -0.6290 -0.0259 -0.0531
   38CHL1   C19 2778   3.888   1.753   7.005 -0.5151 -0.3806  0.1421
   38CHL1  H19A 2779   3.955   1.820   7.063 -0.0361 -0.3656 -0.4125
   38CHL1  H19B 2780   3.883   1.647   7.037 -0.3905 -1.3792 -2.8481
   38CHL1  H19C 2781   3.931   1.751   6.902 -1.5775  0.2288 -0.3269
   38CHL1    C1 2782   3.640   1.699   6.969  0.1965 -0.0606  0.2353
   38CHL1   H1A 2783   3.649   1.614   7.040 -1.1837  0.2666  0.8336
   38CHL1   H1B 2784   3.534   1.731   6.971 -0.8267 -3.0041 -1.0442
   38CHL1    C2 2785   3.654   1.651   6.826 -0.0006 -0.7837 -0.0638
   38CHL1   H2A 2786   3.571   1.579   6.809 -1.0378  0.3164  0.1771
   38CHL1   H2B 2787   3.749   1.595   6.817  1.4879  1.5577  0.2162
   38CHL1   C20 2788   3.742   2.005   7.712 -0.3537 -0.4452 -0.3768
   38CHL1   H20 2789   3.853   2.007   7.713 -0.3475 -0.3928 -0.9109
   38CHL1   C21 2790   3.691   1.870   7.756  0.6534  0.2340 -1.0272
   38CHL1  H21A 2791   3.666   1.861   7.864  0.1271 -0.2948 -1.1861
   38CHL1  H21B 2792   3.772   1.794   7.763  0.9437  0.5280 -1.2175
   38CHL1  H21C 2793   3.611   1.841   7.685  0.5635 -2.2129 -0.0357
   38CHL1   C22 2794   3.681   2.126   7.801  0.8296  0.0113  0.6582
   38CHL1  H22A 2795   3.739   2.215   7.769 -0.3716  0.3443 -0.7102
   38CHL1  H22B 2796   3.573   2.134   7.778  1.2498 -0.3359 -1.6721
   38CHL1   C23 2797   3.699   2.102   7.950 -0.4505  0.5025 -0.2330
   38CHL1  H23A 2798   3.649   2.013   7.995  2.2014 -0.3802  1.1996
   38CHL1  H23B 2799   3.803   2.067   7.967 -0.7144  0.3500  1.1818
   38CHL1   C24 2800   3.679   2.236   8.024 -0.1801  0.4534 -0.8655
   38CHL1  H24A 2801   3.751   2.314   7.991 -0.1911  0.4304 -0.9440
   38CHL1  H24B 2802   3.573   2.267   8.008 -0.1035 -0.4671 -3.8459
   38CHL1   C25 2803   3.701   2.219   8.173 -0.1035  0.5658  0.3946
   38CHL1   H25 2804   3.807   2.191   8.196  0.0514  1.2935  0.6045
   38CHL1   C26 2805   3.684   2.361   8.246 -0.3075 -0.0986 -0.1781
   38CHL1  H26A 2806   3.705   2.365   8.355 -2.8862  1.2305  0.3746
   38CHL1  H26B 2807   3.746   2.439   8.197 -1.2556 -0.2723 -1.6996
   38CHL1  H26C 2808   3.581   2.401   8.232 -0.3846  0.0572  0.7420
   38CHL1   C27 2809   3.621   2.107   8.238  0.2190 -0.2853  1.3699
   38CHL1  H27A 2810   3.673   2.015   8.204  2.2087  0.9270  0.9443
   38CHL1  H27B 2811   3.621   2.111   8.349  3.5049  0.9718  1.4446
   38CHL1  H27C 2812   3.516   2.112   8.202  0.1780 -2.7087  1.0073
   39CHL1    C3 2813   2.962   0.439   7.040  0.1107 -0.6809  0.1362
   39CHL1    H3 2814   2.963   0.549   7.058  0.6812 -0.3091 -1.8681
   39CHL1    O3 2815   2.923   0.426   6.901 -0.4728  0.3368 -0.1017
   39CHL1   H3' 2816   2.930   0.333   6.876 -0.2486 -0.2487  1.9532
   39CHL1    C4 2817   3.103   0.368   7.046 -0.1507  0.7724  0.2996
   39CHL1   H4A 2818   3.088   0.263   7.014 -0.2238  0.3489  1.6482
   39CHL1   H4B 2819   3.173   0.413   6.972 -0.8474 -0.6008 -1.2513
   39CHL1    C5 2820   3.177   0.369   7.181  0.9794 -0.2795  0.5663
   39CHL1    C6 2821   3.296   0.429   7.202 -0.2664  0.8975  0.5060
   39CHL1    H6 2822   3.345   0.478   7.116  1.2926 -0.2322  0.7110
   39CHL1    C7 2823   3.367   0.421   7.337 -0.3017 -0.5842 -0.1129
   39CHL1   H7A 2824   3.471   0.384   7.328  0.4144  1.3235 -0.1026
   39CHL1   H7B 2825   3.383   0.523   7.377  1.4184  0.4628 -3.1024
   39CHL1    C8 2826   3.286   0.328   7.444 -0.1660 -0.1407 -1.3103
   39CHL1    H8 2827   3.327   0.226   7.428  2.1206  0.3460  0.6788
   39CHL1   C14 2828   3.326   0.377   7.583 -0.7852  0.9112  0.2587
   39CHL1   H14 2829   3.281   0.479   7.586  0.0316  1.2907 -0.2517
   39CHL1   C15 2830   3.468   0.416   7.623 -0.0237 -0.0030 -0.2164
   39CHL1  H15A 2831   3.531   0.327   7.601  1.9897  1.4753 -0.7362
   39CHL1  H15B 2832   3.508   0.512   7.585 -0.6028  0.0804 -0.6298
   39CHL1   C16 2833   3.456   0.413   7.780  0.4954 -0.8457 -0.6046
   39CHL1  H16A 2834   3.542   0.364   7.831 -0.3370 -0.3996  1.3367
   39CHL1  H16B 2835   3.458   0.519   7.813  1.5149 -1.2583  0.7644
   39CHL1   C17 2836   3.319   0.365   7.823 -0.1864 -1.6035 -0.4461
   39CHL1   H17 2837   3.255   0.448   7.859 -1.9370 -3.1788  0.2446
   39CHL1   C13 2838   3.261   0.300   7.699 -0.0899  0.8516  0.4303
   39CHL1   C18 2839   3.316   0.154   7.700  0.6846 -0.4414  0.4659
   39CHL1  H18A 2840   3.309   0.107   7.599  1.7544  0.5672 -0.1013
   39CHL1  H18B 2841   3.424   0.153   7.722  0.4391 -1.7590  1.7445
   39CHL1  H18C 2842   3.270   0.084   7.773 -2.4879  0.5276 -0.4274
   39CHL1   C12 2843   3.109   0.295   7.689 -0.0840 -0.3107 -0.4771
   39CHL1  H12A 2844   3.062   0.235   7.770  1.5325 -0.6307  0.2643
   39CHL1  H12B 2845   3.068   0.396   7.712 -1.2604 -1.1496  1.3877
   39CHL1   C11 2846   3.057   0.262   7.545 -0.3834 -0.3733 -0.4854
   39CHL1  H11A 2847   3.081   0.154   7.534  1.7979  0.2529 -2.8624
   39CHL1  H11B 2848   2.952   0.295   7.538 -0.3619 -0.3375 -0.6356
   39CHL1    C9 2849   3.141   0.340   7.433  0.4454  0.1169  0.2818
   39CHL1    H9 2850   3.126   0.449   7.448  0.7407 -0.1626  3.0073
   39CHL1   C10 2851   3.087   0.306   7.293  0.5138 -0.2872 -0.5104
   39CHL1   C19 2852   3.085   0.147   7.275 -0.7394 -1.1229 -0.4864
   39CHL1  H19A 2853   3.186   0.104   7.285 -1.0726 -1.9803 -0.7231
   39CHL1  H19B 2854   3.005   0.105   7.340 -0.1270  0.5995  1.4749
   39CHL1  H19C 2855   3.049   0.130   7.171 -2.7700 -1.9722  0.3058
   39CHL1    C1 2856   2.935   0.363   7.282 -0.9609 -0.0394  0.5558
   39CHL1   H1A 2857   2.872   0.301   7.349 -0.0404 -1.1323  0.4555
   39CHL1   H1B 2858   2.945   0.465   7.325  1.2117 -0.1752  0.5222
   39CHL1    C2 2859   2.872   0.368   7.139  0.4988 -0.1221  0.1191
   39CHL1   H2A 2860   2.770   0.412   7.141  0.3482 -0.4857  0.5501
   39CHL1   H2B 2861   2.865   0.266   7.095  1.2676 -1.3441  2.5810
   39CHL1   C20 2862   3.322   0.282   7.945 -0.6713 -0.6748 -0.0552
   39CHL1   H20 2863   3.382   0.189   7.935  0.7368  0.2062 -0.0352
   39CHL1   C21 2864   3.183   0.236   8.011  0.4325 -0.1729  0.6178
   39CHL1  H21A 2865   3.112   0.318   8.036  0.7181 -0.1786  1.4799
   39CHL1  H21B 2866   3.190   0.180   8.107 -2.1688  0.4099  1.2268
   39CHL1  H21C 2867   3.137   0.173   7.931  1.1835  1.0616 -0.8392
   39CHL1   C22 2868   3.402   0.355   8.057  0.0939  0.1539  0.0345
   39CHL1  H22A 2869   3.404   0.287   8.145  2.2295  1.8628  1.4159
   39CHL1  H22B 2870   3.505   0.362   8.018  0.2822 -2.5127 -0.1315
   39CHL1   C23 2871   3.346   0.493   8.099 -0.1782  0.9210  0.2572
   39CHL1  H23A 2872   3.353   0.560   8.010 -1.2341  1.3037  0.4542
   39CHL1  H23B 2873   3.243   0.500   8.141  0.6528  1.5349  2.3189
   39CHL1   C24 2874   3.433   0.555   8.213 -0.3800  0.5907  0.1009
   39CHL1  H24A 2875   3.422   0.484   8.297 -0.8109  0.7238  0.1586
   39CHL1  H24B 2876   3.537   0.559   8.174 -0.0730  0.0774  0.8499
   39CHL1   C25 2877   3.394   0.697   8.255 -0.5260  0.0308 -0.1815
   39CHL1   H25 2878   3.284   0.686   8.258 -0.5713  0.0987 -1.3802
   39CHL1   C26 2879   3.452   0.727   8.396  0.0676 -0.6175  0.2877
   39CHL1  H26A 2880   3.563   0.727   8.398  0.1032  1.1606  0.6664
   39CHL1  H26B 2881   3.410   0.829   8.414  0.7786 -0.4436  1.0751
   39CHL1  H26C 2882   3.409   0.659   8.472 -0.7757 -0.5748 -0.1442
   39CHL1   C27 2883   3.452   0.795   8.157 -0.1837 -0.5187 -0.0657
   39CHL1  H27A 2884   3.563   0.793   8.148 -0.3122 -1.8829 -2.0009
   39CHL1  H27B 2885   3.401   0.786   8.059 -0.7311  3.2002 -0.2657
   39CHL1  H27C 2886   3.424   0.900   8.178 -0.7051 -0.3311 -1.5820
   40CHL1    C3 2887   5.835   5.974   6.881  0.4370 -1.0224 -0.1074
   40CHL1    H3 2888   5.926   6.027   6.915 -0.1390 -0.3995  0.4710
   40CHL1    O3 2889   5.838   5.999   6.742 -0.6108  0.8633  0.4424
   40CHL1   H3' 2890   5.849   6.094   6.728  1.8904  0.7789  1.4198
   40CHL1    C4 2891   5.855   5.827   6.921  0.1174  0.8904 -0.1601
   40CHL1   H4A 2892   5.772   5.767   6.877  0.9542 -0.5313  0.1535
   40CHL1   H4B 2893   5.950   5.788   6.878  0.4631  0.0228  1.3495
   40CHL1    C5 2894   5.845   5.817   7.075 -0.7270 -0.5324  0.0942
   40CHL1    C6 2895   5.944   5.757   7.142 -0.2518  0.4155  0.2848
   40CHL1    H6 2896   6.024   5.710   7.082 -1.6974  1.1582 -2.4021
   40CHL1    C7 2897   5.961   5.745   7.292 -0.6671  0.1113  0.0016
   40CHL1   H7A 2898   5.994   5.643   7.323 -1.7711  0.0601  1.1156
   40CHL1   H7B 2899   6.038   5.819   7.321 -0.0264  0.5221 -2.5075
   40CHL1    C8 2900   5.828   5.765   7.363  0.0900  0.3225 -0.6020
   40CHL1    H8 2901   5.761   5.678   7.354  0.4493 -0.1919  1.3268
   40CHL1   C14 2902   5.852   5.797   7.514 -0.6347  0.6687  0.0242
   40CHL1   H14 2903   5.922   5.883   7.522  0.2009 -0.0996  1.3724
   40CHL1   C15 2904   5.923   5.689   7.596  0.1719  0.5057 -0.2218
   40CHL1  H15A 2905   5.872   5.594   7.570  0.4692  0.4151 -0.4834
   40CHL1  H15B 2906   6.032   5.676   7.577 -0.0147 -1.2222 -0.2846
   40CHL1   C16 2907   5.896   5.729   7.741  0.7986 -0.0146  0.4805
   40CHL1  H16A 2908   5.867   5.645   7.808  2.7558 -1.9624 -0.9221
   40CHL1  H16B 2909   5.983   5.780   7.787 -0.3928  0.5026  2.2680
   40CHL1   C17 2910   5.786   5.832   7.735  0.1206 -0.2077  0.2430
   40CHL1   H17 2911   5.831   5.934   7.730  1.6585 -0.9084 -0.9886
   40CHL1   C13 2912   5.728   5.823   7.593  0.1402 -0.0588 -0.0663
   40CHL1   C18 2913   5.631   5.704   7.594  0.1746 -0.6147  0.1300
   40CHL1  H18A 2914   5.677   5.609   7.629 -1.2809 -1.5692 -0.3884
   40CHL1  H18B 2915   5.536   5.731   7.646 -0.0498 -0.1779 -0.4915
   40CHL1  H18C 2916   5.605   5.685   7.487 -0.0371  0.9073 -0.0993
   40CHL1   C12 2917   5.670   5.951   7.540 -0.4745  0.3738  0.5463
   40CHL1  H12A 2918   5.577   5.982   7.593 -1.2948 -0.4556 -0.3761
   40CHL1  H12B 2919   5.744   6.033   7.545 -1.0418  0.9061  0.4187
   40CHL1   C11 2920   5.630   5.936   7.395  0.3249  0.2315  0.0183
   40CHL1  H11A 2921   5.550   5.862   7.375  1.5315 -1.1984  0.2374
   40CHL1  H11B 2922   5.614   6.036   7.349 -0.1575  0.5601  0.8764
   40CHL1    C9 2923   5.750   5.887   7.306 -0.3152 -0.4735  0.4731
   40CHL1    H9 2924   5.826   5.968   7.315 -0.0962 -0.3485 -1.7659
   40CHL1   C10 2925   5.723   5.883   7.150 -0.0623 -0.9784  0.3953
   40CHL1   C19 2926   5.593   5.798   7.121  0.5481  0.2740  0.0207
   40CHL1  H19A 2927   5.571   5.785   7.013 -0.5034 -0.9516  0.3502
   40CHL1  H19B 2928   5.602   5.697   7.168  3.2140  0.6719  0.5414
   40CHL1  H19C 2929   5.500   5.843   7.161 -1.4270 -1.5989 -2.1413
   40CHL1    C1 2930   5.717   6.022   7.096 -0.0780 -0.5940  0.4521
   40CHL1   H1A 2931   5.627   6.075   7.133 -0.5952 -1.6931  0.7966
   40CHL1   H1B 2932   5.805   6.081   7.129  0.5082 -1.8514  1.2045
   40CHL1    C2 2933   5.710   6.031   6.937  0.7175 -0.3696 -0.1159
   40CHL1   H2A 2934   5.695   6.140   6.919  0.0294 -0.0206  2.1850
   40CHL1   H2B 2935   5.613   5.988   6.906 -0.2166  0.9584  0.8761
   40CHL1   C20 2936   5.698   5.819   7.864 -0.0277  0.3276  0.2952
   40CHL1   H20 2937   5.655   5.717   7.876 -1.6158  0.6930 -1.6946
   40CHL1   C21 2938   5.584   5.920   7.857 -0.4769 -0.4672  0.1589
   40CHL1  H21A 2939   5.627   6.022   7.843 -1.0563  0.1331  2.3005
   40CHL1  H21B 2940   5.521   5.929   7.948 -1.4274 -0.1392 -0.5066
   40CHL1  H21C 2941   5.511   5.909   7.774 -0.7247  1.7381  0.0086
   40CHL1   C22 2942   5.769   5.839   7.997 -0.4017  0.1876 -0.1288
   40CHL1  H22A 2943   5.877   5.813   8.002 -0.0595  1.4265 -0.7355
   40CHL1  H22B 2944   5.778   5.949   8.009 -1.5660  0.0620  2.6196
   40CHL1   C23 2945   5.698   5.774   8.119  0.3998  0.0667 -0.7271
   40CHL1  H23A 2946   5.589   5.792   8.116  0.5791  1.3081 -0.2438
   40CHL1  H23B 2947   5.708   5.664   8.107 -0.9878 -0.1639  0.0330
   40CHL1   C24 2948   5.754   5.816   8.245  0.3363 -0.1590 -0.4373
   40CHL1  H24A 2949   5.849   5.760   8.260  0.1535  0.0183  1.6626
   40CHL1  H24B 2950   5.776   5.925   8.258  0.1518 -0.2654  0.8931
   40CHL1   C25 2951   5.662   5.783   8.364  0.1089  0.0917  0.4061
   40CHL1   H25 2952   5.563   5.828   8.343  0.9847  1.8378 -0.1757
   40CHL1   C26 2953   5.645   5.626   8.383  0.2430 -0.3984  0.8516
   40CHL1  H26A 2954   5.627   5.585   8.281  1.0787  0.5587  0.3010
   40CHL1  H26B 2955   5.740   5.578   8.415  2.4733  1.2452 -2.7159
   40CHL1  H26C 2956   5.566   5.616   8.461  0.3042  1.2175  1.1588
   40CHL1   C27 2957   5.713   5.850   8.495  0.5849  0.0186  0.2815
   40CHL1  H27A 2958   5.738   5.955   8.470  1.4001 -0.2504 -0.0467
   40CHL1  H27B 2959   5.630   5.854   8.569  0.4143  3.0989  0.0408
   40CHL1  H27C 2960   5.811   5.814   8.532  0.9033 -0.5534 -1.0795
   41CHL1    C3 2961   6.286   0.415   7.061 -0.6728  0.6264 -0.3462
   41CHL1    H3 2962   6.268   0.524   7.048 -1.8827  0.6523  1.2272
   41CHL1    O3 2963   6.281   0.335   6.945  0.4722 -0.5891  0.5546
   41CHL1   H3' 2964   6.298   0.402   6.878 -0.6107  1.5734  2.3160
   41CHL1    C4 2965   6.431   0.393   7.112  0.8625  0.6344  0.2602
   41CHL1   H4A 2966   6.441   0.283   7.123 -0.4096  0.4949  0.1127
   41CHL1   H4B 2967   6.512   0.424   7.043 -0.2038  1.1117 -0.7965
   41CHL1    C5 2968   6.463   0.425   7.253 -0.5327 -1.1075 -1.0615
   41CHL1    C6 2969   6.566   0.503   7.295  0.2498 -0.6024  0.0585
   41CHL1    H6 2970   6.635   0.542   7.219 -0.8954  0.6320 -0.3948
   41CHL1    C7 2971   6.588   0.537   7.441 -0.0725 -0.1198  0.2667
   41CHL1   H7A 2972   6.695   0.527   7.468 -0.5675 -2.2328  1.6873
   41CHL1   H7B 2973   6.569   0.644   7.465  1.2925  0.3115 -0.4485
   41CHL1    C8 2974   6.501   0.447   7.534  0.4952  0.1356  0.1034
   41CHL1    H8 2975   6.547   0.346   7.531  1.5521  0.5872  0.3712
   41CHL1   C14 2976   6.507   0.505   7.681  0.1263 -0.2965 -0.1735
   41CHL1   H14 2977   6.464   0.607   7.683 -2.1157 -1.1903  1.0225
   41CHL1   C15 2978   6.643   0.539   7.754 -0.1854 -0.2614  0.3645
   41CHL1  H15A 2979   6.721   0.461   7.745 -0.1437 -0.0969 -0.7621
   41CHL1  H15B 2980   6.690   0.631   7.712  1.2270 -1.0028  0.2799
   41CHL1   C16 2981   6.614   0.552   7.903 -0.5335 -0.4441 -0.1269
   41CHL1  H16A 2982   6.668   0.466   7.948 -0.8589 -0.4838  0.1889
   41CHL1  H16B 2983   6.638   0.654   7.938 -1.2907 -0.3967  0.2780
   41CHL1   C17 2984   6.466   0.511   7.917 -0.2616 -0.9024 -0.0394
   41CHL1   H17 2985   6.419   0.611   7.909  1.3689 -0.0609  0.3389
   41CHL1   C13 2986   6.431   0.435   7.789  0.4674  0.8011 -0.0643
   41CHL1   C18 2987   6.494   0.291   7.803 -0.0932 -1.0229  0.1022
   41CHL1  H18A 2988   6.501   0.239   7.705  2.5952 -1.3587  0.4200
   41CHL1  H18B 2989   6.592   0.296   7.854 -0.7689 -2.4580  1.6389
   41CHL1  H18C 2990   6.427   0.233   7.870 -0.3513  0.0499  0.8090
   41CHL1   C12 2991   6.283   0.434   7.745  0.8251 -0.1739  0.0304
   41CHL1  H12A 2992   6.236   0.380   7.830 -0.6153  1.7840  0.5407
   41CHL1  H12B 2993   6.246   0.538   7.751  0.1518 -0.2960 -1.6169
   41CHL1   C11 2994   6.276   0.357   7.603  0.0041  0.2349  0.2433
   41CHL1  H11A 2995   6.282   0.246   7.612 -1.2794  0.0742 -0.6490
   41CHL1  H11B 2996   6.169   0.367   7.575 -0.2155  0.6080  1.1569
   41CHL1    C9 2997   6.363   0.428   7.492  0.2615  0.3449  0.0035
   41CHL1    H9 2998   6.304   0.522   7.487 -0.7490 -0.3161 -0.7549
   41CHL1   C10 2999   6.350   0.370   7.347 -0.1494  0.3169 -0.2110
   41CHL1   C19 3000   6.368   0.218   7.360  0.7795 -0.2667  0.1374
   41CHL1  H19A 3001   6.270   0.180   7.396  0.0934  0.5025 -0.8592
   41CHL1  H19B 3002   6.392   0.167   7.265  1.1638 -2.2647  1.2680
   41CHL1  H19C 3003   6.435   0.198   7.446  0.9577  2.1309  0.6455
   41CHL1    C1 3004   6.214   0.399   7.293 -0.4733 -0.0948  0.4491
   41CHL1   H1A 3005   6.141   0.364   7.370 -0.0244 -1.6693  0.1825
   41CHL1   H1B 3006   6.196   0.509   7.295  2.5968  0.4831  0.3340
   41CHL1    C2 3007   6.186   0.352   7.153  0.1857 -0.2023  0.5567
   41CHL1   H2A 3008   6.086   0.382   7.117 -0.6965 -0.8251  2.3582
   41CHL1   H2B 3009   6.191   0.241   7.156  0.7553 -0.1801  0.7227
   41CHL1   C20 3010   6.419   0.453   8.053 -0.8369  0.0291 -0.1029
   41CHL1   H20 3011   6.322   0.403   8.033  0.2907 -1.6414 -1.7025
   41CHL1   C21 3012   6.404   0.587   8.140  0.8717 -0.3968 -0.4238
   41CHL1  H21A 3013   6.371   0.547   8.238 -0.0812 -0.5587 -0.7992
   41CHL1  H21B 3014   6.327   0.656   8.100  2.7475  2.1277  0.0506
   41CHL1  H21C 3015   6.495   0.651   8.145  0.7745 -0.3659  1.8404
   41CHL1   C22 3016   6.513   0.352   8.124 -0.2006 -0.2276  0.2089
   41CHL1  H22A 3017   6.589   0.304   8.059  0.0090 -0.0888  0.3508
   41CHL1  H22B 3018   6.578   0.413   8.189  0.6663 -0.7451 -0.1484
   41CHL1   C23 3019   6.435   0.244   8.198 -0.1495 -0.2486  0.4821
   41CHL1  H23A 3020   6.385   0.300   8.280  1.5269  0.5792  0.9862
   41CHL1  H23B 3021   6.348   0.209   8.139 -0.6277  1.5441  0.0692
   41CHL1   C24 3022   6.521   0.128   8.242  0.4677 -0.1585 -0.5572
   41CHL1  H24A 3023   6.551   0.073   8.150  1.3695 -0.6672  0.0173
   41CHL1  H24B 3024   6.613   0.165   8.292  0.7199 -3.6400  1.8625
   41CHL1   C25 3025   6.450   0.030   8.339  0.2518 -0.3936 -1.1935
   41CHL1   H25 3026   6.351   0.002   8.297 -1.4532  0.9200  1.6457
   41CHL1   C26 3027   6.536  -0.095   8.358  0.2420  0.4098  0.1564
   41CHL1  H26A 3028   6.553  -0.139   8.257 -0.2967 -1.5517  0.8720
   41CHL1  H26B 3029   6.629  -0.070   8.412  0.8759 -0.9400 -0.2658
   41CHL1  H26C 3030   6.485  -0.171   8.421 -0.6483  0.0142 -1.0067
   41CHL1   C27 3031   6.425   0.091   8.476  0.5194 -0.5223 -0.0804
   41CHL1  H27A 3032   6.391   0.024   8.558  1.5226 -0.6181  0.2771
   41CHL1  H27B 3033   6.512   0.152   8.511 -0.9131  1.3274  0.4041
   41CHL1  H27C 3034   6.357   0.179   8.473  2.5347  1.2749  1.9032
   42CHL1    C3 3035   0.521   4.408   7.013 -0.3778 -0.5065  0.0836
   42CHL1    H3 3036   0.592   4.326   6.988  0.4285 -0.3260  1.6301
   42CHL1    O3 3037   0.492   4.483   6.891 -0.0916 -0.0538  0.1270
   42CHL1   H3' 3038   0.440   4.560   6.915 -1.8912 -0.9008 -0.8730
   42CHL1    C4 3039   0.391   4.340   7.061 -0.3291  0.6325 -0.8227
   42CHL1   H4A 3040   0.310   4.416   7.058 -1.7092 -0.7243  0.3053
   42CHL1   H4B 3041   0.369   4.263   6.984  0.6556  0.5104 -1.0034
   42CHL1    C5 3042   0.402   4.290   7.206  0.2482 -0.3318  0.1213
   42CHL1    C6 3043   0.376   4.163   7.236 -0.2731  0.3185 -0.1696
   42CHL1    H6 3044   0.327   4.095   7.166  2.0140 -0.1311 -1.4500
   42CHL1    C7 3045   0.383   4.106   7.371 -0.2383 -0.1396 -0.6291
   42CHL1   H7A 3046   0.287   4.051   7.378 -0.3030  0.1129  0.7215
   42CHL1   H7B 3047   0.467   4.034   7.380 -0.6686 -0.8432 -1.9660
   42CHL1    C8 3048   0.385   4.218   7.479 -0.3879 -0.0806  0.0182
   42CHL1    H8 3049   0.285   4.266   7.475 -0.6241 -0.6474 -2.3370
   42CHL1   C14 3050   0.418   4.154   7.616  0.1951 -0.0744  0.6576
   42CHL1   H14 3051   0.510   4.093   7.609 -1.0122 -1.8671 -0.2673
   42CHL1   C15 3052   0.317   4.045   7.658  0.0100 -0.4835 -0.1176
   42CHL1  H15A 3053   0.213   4.077   7.635 -0.8389 -1.8775  1.5402
   42CHL1  H15B 3054   0.343   3.947   7.611  0.3164 -1.4695  1.9910
   42CHL1   C16 3055   0.349   4.018   7.814  0.0867 -0.2072  0.3618
   42CHL1  H16A 3056   0.253   4.038   7.867 -0.2753  0.2854 -0.4478
   42CHL1  H16B 3057   0.385   3.914   7.826  0.6309 -0.0514  0.0658
   42CHL1   C17 3058   0.441   4.139   7.857 -0.2333 -0.2815  1.1592
   42CHL1   H17 3059   0.548   4.111   7.867 -0.2990 -0.5206  1.1849
   42CHL1   C13 3060   0.425   4.240   7.736  0.1225  0.0297 -0.6277
   42CHL1   C18 3061   0.285   4.317   7.758 -0.7702  0.5670 -0.5234
   42CHL1  H18A 3062   0.301   4.377   7.851  1.8525 -0.7685 -0.0240
   42CHL1  H18B 3063   0.264   4.383   7.671 -0.2972  0.3890 -0.7704
   42CHL1  H18C 3064   0.203   4.243   7.763  1.0922 -1.9882 -3.9275
   42CHL1   C12 3065   0.540   4.339   7.710  0.5249  0.1850 -0.7220
   42CHL1  H12A 3066   0.548   4.417   7.788  0.8470  0.7290 -1.2953
   42CHL1  H12B 3067   0.635   4.283   7.696  0.1719 -0.7686  0.4658
   42CHL1   C11 3068   0.519   4.406   7.572  0.0511 -0.5343  0.4714
   42CHL1  H11A 3069   0.437   4.478   7.587 -0.1623  0.2477 -3.2774
   42CHL1  H11B 3070   0.616   4.456   7.553  1.0483 -3.2471 -2.5958
   42CHL1    C9 3071   0.498   4.319   7.447 -0.1686 -0.1103  0.4334
   42CHL1    H9 3072   0.588   4.255   7.440 -0.2296 -0.0743 -0.8409
   42CHL1   C10 3073   0.470   4.393   7.308  0.1515 -0.3458  0.8324
   42CHL1   C19 3074   0.366   4.504   7.330  0.3810  0.0311  0.3142
   42CHL1  H19A 3075   0.348   4.543   7.228  1.4550 -1.0561 -0.3137
   42CHL1  H19B 3076   0.268   4.461   7.361  0.4291 -1.2350 -1.1774
   42CHL1  H19C 3077   0.383   4.590   7.397 -0.3768  0.4103  0.0422
   42CHL1    C1 3078   0.600   4.442   7.250 -0.2183  0.0777 -0.8290
   42CHL1   H1A 3079   0.647   4.517   7.317  0.5287 -1.4736  0.4693
   42CHL1   H1B 3080   0.665   4.352   7.242 -1.3200 -0.7680 -0.5551
   42CHL1    C2 3081   0.574   4.507   7.117  0.5237  0.1784  0.2784
   42CHL1   H2A 3082   0.671   4.551   7.087  0.4921 -1.1703 -2.0279
   42CHL1   H2B 3083   0.503   4.591   7.128 -1.9858 -1.3808 -2.5757
   42CHL1   C20 3084   0.412   4.178   8.002 -0.1369 -0.1264  0.2067
   42CHL1   H20 3085   0.303   4.202   8.000 -1.0561 -3.6846 -0.5497
   42CHL1   C21 3086   0.503   4.294   8.046  0.4267 -0.2018  0.5811
   42CHL1  H21A 3087   0.612   4.276   8.034 -0.3007 -3.6978 -2.8496
   42CHL1  H21B 3088   0.481   4.328   8.149  3.3627  0.6319  1.0362
   42CHL1  H21C 3089   0.489   4.385   7.984  0.2098  0.8644  2.1443
   42CHL1   C22 3090   0.442   4.075   8.112 -0.0708  0.5553  0.0518
   42CHL1  H22A 3091   0.429   3.977   8.060  1.9011  0.2074  0.1595
   42CHL1  H22B 3092   0.547   4.078   8.147  0.2843 -1.6653 -0.6261
   42CHL1   C23 3093   0.367   4.095   8.245  0.5803 -0.2830  0.1392
   42CHL1  H23A 3094   0.401   4.194   8.283  0.9357 -1.2670  2.6296
   42CHL1  H23B 3095   0.257   4.096   8.227  0.6100  1.9390 -0.2133
   42CHL1   C24 3096   0.403   3.990   8.352 -1.0727 -0.1650 -0.8241
   42CHL1  H24A 3097   0.513   3.995   8.361 -1.2549 -0.2770  2.3249
   42CHL1  H24B 3098   0.359   4.013   8.451 -2.1436  0.4714 -1.4169
   42CHL1   C25 3099   0.350   3.852   8.319 -0.6025 -0.4649  0.2342
   42CHL1   H25 3100   0.379   3.838   8.212  1.2884  0.1012  0.6467
   42CHL1   C26 3101   0.415   3.750   8.409 -0.3426  0.1257 -0.5781
   42CHL1  H26A 3102   0.368   3.754   8.510  0.2222  0.4450 -0.3263
   42CHL1  H26B 3103   0.395   3.643   8.386 -0.4475 -0.3862  1.6530
   42CHL1  H26C 3104   0.521   3.781   8.419 -1.3533  3.3786  1.7381
   42CHL1   C27 3105   0.201   3.842   8.334  0.0005  0.5287 -0.7167
   42CHL1  H27A 3106   0.171   3.734   8.329 -1.8553  0.9736 -0.1796
   42CHL1  H27B 3107   0.143   3.899   8.258 -0.6952  0.6723 -0.0935
   42CHL1  H27C 3108   0.175   3.859   8.441  2.3996 -1.0566  0.2110
   43CHL1    C3 3109   0.896   1.579   7.077  0.1227 -0.7331  0.5313
   43CHL1    H3 3110   0.879   1.471   7.098  0.9447 -0.7909  0.9199
   43CHL1    O3 3111   0.869   1.604   6.942  0.2262  0.6461 -0.2007
   43CHL1   H3' 3112   0.958   1.625   6.913 -0.2714  1.3856 -1.2525
   43CHL1    C4 3113   0.798   1.664   7.160 -0.1438  0.1108  0.0991
   43CHL1   H4A 3114   0.813   1.772   7.138 -0.7426  0.3696  0.8849
   43CHL1   H4B 3115   0.693   1.650   7.126 -1.0945  2.6605  1.6418
   43CHL1    C5 3116   0.805   1.633   7.308 -0.6369  0.6271  0.0453
   43CHL1    C6 3117   0.704   1.585   7.382  1.0664 -0.0127  0.3220
   43CHL1    H6 3118   0.611   1.564   7.327  2.0649  1.8002 -2.2541
   43CHL1    C7 3119   0.712   1.562   7.529  0.6098 -0.5146 -0.9609
   43CHL1   H7A 3120   0.619   1.601   7.577 -0.1303 -0.5241 -2.3296
   43CHL1   H7B 3121   0.725   1.454   7.551  0.2768 -0.3305  0.2458
   43CHL1    C8 3122   0.839   1.621   7.595  0.4039 -0.0155 -0.0709
   43CHL1    H8 3123   0.824   1.730   7.606 -1.2568 -0.1550 -0.6414
   43CHL1   C14 3124   0.846   1.562   7.733 -0.2345 -0.4750 -0.1059
   43CHL1   H14 3125   0.854   1.451   7.729 -2.1447 -0.6429 -0.2487
   43CHL1   C15 3126   0.732   1.585   7.830  0.3134  0.0116 -0.2208
   43CHL1  H15A 3127   0.712   1.695   7.833  0.7563  0.0842  0.1362
   43CHL1  H15B 3128   0.638   1.531   7.806  0.7494 -1.8182  1.8820
   43CHL1   C16 3129   0.788   1.562   7.968 -0.4597  0.5673 -0.2679
   43CHL1  H16A 3130   0.777   1.639   8.048  0.0253  0.0061  0.3465
   43CHL1  H16B 3131   0.765   1.467   8.019 -1.1405 -0.2038 -1.9432
   43CHL1   C17 3132   0.939   1.539   7.948  0.5511  0.4016  0.4177
   43CHL1   H17 3133   0.951   1.431   7.925  1.1170  0.4725  0.3461
   43CHL1   C13 3134   0.969   1.614   7.817 -0.1555  0.4258  0.5121
   43CHL1   C18 3135   0.966   1.768   7.832 -0.6554 -0.1867  1.4519
   43CHL1  H18A 3136   0.886   1.810   7.896  0.1064  2.4059  0.8145
   43CHL1  H18B 3137   1.050   1.811   7.891 -0.6587  1.0912  0.5711
   43CHL1  H18C 3138   0.971   1.807   7.728  1.4593 -3.5970  0.1102
   43CHL1   C12 3139   1.092   1.571   7.728  0.4599 -0.0649  0.3216
   43CHL1  H12A 3140   1.186   1.611   7.772  0.7462  1.6583 -1.6992
   43CHL1  H12B 3141   1.093   1.460   7.727 -0.3357 -0.1061  1.6650
   43CHL1   C11 3142   1.094   1.612   7.575 -0.2930  0.1780 -0.0610
   43CHL1  H11A 3143   1.113   1.721   7.585  0.5712  0.1358 -1.0569
   43CHL1  H11B 3144   1.180   1.577   7.515  0.7762  2.0849  0.2886
   43CHL1    C9 3145   0.960   1.585   7.507  0.9049 -0.0053  0.3387
   43CHL1    H9 3146   0.968   1.476   7.489  0.2221 -0.2640  1.5520
   43CHL1   C10 3147   0.946   1.655   7.365 -0.3964 -0.0958  0.3011
   43CHL1   C19 3148   0.964   1.814   7.387 -0.0420  0.0652  0.1882
   43CHL1  H19A 3149   0.965   1.865   7.289 -0.4570  2.1608  1.2113
   43CHL1  H19B 3150   0.869   1.841   7.438 -0.6392  2.1079 -1.8771
   43CHL1  H19C 3151   1.059   1.840   7.438 -0.4772  2.2737 -0.0449
   43CHL1    C1 3152   1.063   1.608   7.266 -0.4223  0.2367  0.4465
   43CHL1   H1A 3153   1.154   1.664   7.298 -0.1256  0.8373 -1.3203
   43CHL1   H1B 3154   1.063   1.499   7.288 -3.3356  0.3311  1.2767
   43CHL1    C2 3155   1.036   1.629   7.110  0.8930 -0.1021  0.3348
   43CHL1   H2A 3156   1.109   1.575   7.046  1.2024  1.4713 -0.6924
   43CHL1   H2B 3157   1.045   1.735   7.079  1.8851 -0.6165 -1.2521
   43CHL1   C20 3158   1.019   1.583   8.075 -0.6079  0.3101 -0.3558
   43CHL1   H20 3159   1.015   1.691   8.100 -1.9976  0.4387 -1.0646
   43CHL1   C21 3160   1.173   1.562   8.043 -0.2860 -0.1757 -0.6483
   43CHL1  H21A 3161   1.183   1.459   8.004 -0.8591 -1.6384  2.7213
   43CHL1  H21B 3162   1.233   1.574   8.136 -2.7542 -3.4040  1.6014
   43CHL1  H21C 3163   1.199   1.638   7.966 -2.5095 -0.2292 -1.5185
   43CHL1   C22 3164   0.980   1.492   8.191  0.0313  0.0253 -0.0495
   43CHL1  H22A 3165   0.871   1.508   8.206 -0.2465 -0.2518 -1.6778
   43CHL1  H22B 3166   0.997   1.392   8.146 -1.4750  0.4394 -1.6123
   43CHL1   C23 3167   1.049   1.511   8.324 -1.0048  0.1643 -0.1892
   43CHL1  H23A 3168   1.159   1.506   8.308 -0.8791 -0.5875  0.8235
   43CHL1  H23B 3169   1.011   1.609   8.362 -0.3653  0.1453  0.5247
   43CHL1   C24 3170   1.003   1.399   8.418 -0.3726  0.3963 -0.3551
   43CHL1  H24A 3171   0.988   1.435   8.522 -0.1543  0.1910 -0.2510
   43CHL1  H24B 3172   0.908   1.350   8.389  0.8695 -1.3664 -1.6751
   43CHL1   C25 3173   1.103   1.276   8.443  1.0573  0.7124 -0.2774
   43CHL1   H25 3174   1.141   1.241   8.344 -1.8443  1.0224 -1.6075
   43CHL1   C26 3175   1.221   1.321   8.530  0.4244 -0.6691 -0.0906
   43CHL1  H26A 3176   1.199   1.332   8.638 -0.4144 -1.2627 -0.1880
   43CHL1  H26B 3177   1.299   1.242   8.521  1.5033  0.3962 -0.3663
   43CHL1  H26C 3178   1.270   1.414   8.495 -0.0216  0.0406  1.1190
   43CHL1   C27 3179   1.030   1.162   8.515 -0.5930  0.2113  0.5557
   43CHL1  H27A 3180   0.972   1.094   8.449  0.3905  0.4202 -0.5754
   43CHL1  H27B 3181   1.100   1.098   8.572  0.0045  0.5431  0.2066
   43CHL1  H27C 3182   0.962   1.206   8.591 -1.6798  1.9201 -1.2758
   44CHL1    C3 3183   0.572   6.674   6.813 -0.1332  1.3284 -1.0045
   44CHL1    H3 3184   0.673   6.703   6.849  0.0060 -1.7206  1.5169
   44CHL1    O3 3185   0.552   6.680   6.673  0.3294  0.2383  0.2259
   44CHL1   H3' 3186   0.590   6.766   6.653  0.8970 -0.0993 -0.1889
   44CHL1    C4 3187   0.558   6.526   6.869  0.2397 -0.0162 -0.0221
   44CHL1   H4A 3188   0.458   6.483   6.848 -0.6650  1.4572  1.0628
   44CHL1   H4B 3189   0.636   6.469   6.814 -0.2805 -2.0791  1.2503
   44CHL1    C5 3190   0.569   6.537   7.017  0.4849  0.2789  0.2586
   44CHL1    C6 3191   0.659   6.460   7.085  0.0140 -0.5843 -0.2217
   44CHL1    H6 3192   0.726   6.399   7.023 -0.8681  0.5456 -2.4016
   44CHL1    C7 3193   0.679   6.438   7.226  0.7690 -0.3703 -0.3975
   44CHL1   H7A 3194   0.677   6.328   7.243  0.9235 -0.3546 -0.2733
   44CHL1   H7B 3195   0.769   6.488   7.269  0.7283 -2.0350  1.7915
   44CHL1    C8 3196   0.568   6.513   7.305 -0.3867  0.0415 -0.8063
   44CHL1    H8 3197   0.483   6.442   7.310 -0.9661  0.7177 -0.9426
   44CHL1   C14 3198   0.619   6.548   7.447  0.4834 -0.2640 -0.9549
   44CHL1   H14 3199   0.687   6.634   7.431 -1.2988  1.5803  0.8987
   44CHL1   C15 3200   0.704   6.445   7.521 -0.0716  0.4305 -0.5311
   44CHL1  H15A 3201   0.655   6.345   7.515 -0.1696  0.3786  0.7640
   44CHL1  H15B 3202   0.802   6.442   7.469  0.3984  0.9141  0.3045
   44CHL1   C16 3203   0.705   6.497   7.664 -0.1973  0.0310  0.0496
   44CHL1  H16A 3204   0.665   6.411   7.722 -2.3916  1.3942  0.6618
   44CHL1  H16B 3205   0.808   6.516   7.703  0.5088 -0.3018 -1.5699
   44CHL1   C17 3206   0.600   6.609   7.676 -0.3122 -0.6397 -0.1743
   44CHL1   H17 3207   0.661   6.702   7.667 -1.7162  0.2303 -1.1498
   44CHL1   C13 3208   0.518   6.609   7.547 -0.1083 -0.2122  0.0933
   44CHL1   C18 3209   0.400   6.509   7.560 -0.0264  1.9319 -0.0228
   44CHL1  H18A 3210   0.425   6.414   7.612  0.1512  1.2133 -1.3805
   44CHL1  H18B 3211   0.323   6.555   7.625 -2.4415 -0.6327 -0.8692
   44CHL1  H18C 3212   0.350   6.490   7.462 -1.2528  0.1967  0.8922
   44CHL1   C12 3213   0.476   6.745   7.481  0.0372  0.6329  0.1836
   44CHL1  H12A 3214   0.395   6.794   7.538 -0.5605 -0.5805  0.3922
   44CHL1  H12B 3215   0.559   6.818   7.469 -2.2303  3.3291 -0.1945
   44CHL1   C11 3216   0.416   6.722   7.340  0.7598  0.9247  0.1366
   44CHL1  H11A 3217   0.325   6.658   7.349  3.1299 -3.0543 -1.4250
   44CHL1  H11B 3218   0.383   6.822   7.306 -0.5182  0.1975 -0.8669
   44CHL1    C9 3219   0.512   6.647   7.242  1.3751  0.3877 -0.3631
   44CHL1    H9 3220   0.606   6.707   7.245  0.7350  1.4023  1.9350
   44CHL1   C10 3221   0.473   6.629   7.085 -0.1196  0.4838  0.1875
   44CHL1   C19 3222   0.323   6.581   7.078  0.2871 -0.5017 -0.4449
   44CHL1  H19A 3223   0.252   6.646   7.134 -0.9875 -2.2850  0.1101
   44CHL1  H19B 3224   0.297   6.576   6.970 -3.0488 -1.4674  0.2909
   44CHL1  H19C 3225   0.309   6.480   7.121  0.6259  0.7840  3.0555
   44CHL1    C1 3226   0.491   6.771   7.024  0.2428  0.4510  0.6210
   44CHL1   H1A 3227   0.422   6.840   7.077  1.9444  1.0092  2.2221
   44CHL1   H1B 3228   0.592   6.813   7.049  1.0353 -0.2984 -1.1824
   44CHL1    C2 3229   0.472   6.775   6.870  0.6883  0.0556  0.3763
   44CHL1   H2A 3230   0.485   6.878   6.829  1.7665  0.8791  2.5762
   44CHL1   H2B 3231   0.375   6.731   6.841  0.6834 -1.9765  3.1691
   44CHL1   C20 3232   0.522   6.611   7.815 -0.1598  0.2025 -0.0799
   44CHL1   H20 3233   0.460   6.519   7.822 -0.1064  0.1225 -0.6267
   44CHL1   C21 3234   0.431   6.733   7.805 -0.3369  0.0102 -0.3409
   44CHL1  H21A 3235   0.389   6.756   7.906  1.0041 -1.9335  0.7260
   44CHL1  H21B 3236   0.342   6.708   7.744  0.3554 -2.0831 -0.5926
   44CHL1  H21C 3237   0.485   6.824   7.771  0.5464  1.4552  4.1372
   44CHL1   C22 3238   0.614   6.623   7.936 -0.5830  0.3629 -0.1657
   44CHL1  H22A 3239   0.694   6.547   7.925 -0.3242  0.6646 -0.3914
   44CHL1  H22B 3240   0.664   6.722   7.928 -0.5667  0.2444 -1.8943
   44CHL1   C23 3241   0.546   6.608   8.067  0.5462  0.6462 -0.1396
   44CHL1  H23A 3242   0.447   6.655   8.045  0.8656  1.5538  0.3116
   44CHL1  H23B 3243   0.528   6.499   8.077  1.5587  0.5857  1.3183
   44CHL1   C24 3244   0.618   6.684   8.188  0.1596 -0.0328  0.9760
   44CHL1  H24A 3245   0.718   6.639   8.202  0.1052 -0.6869 -0.5203
   44CHL1  H24B 3246   0.627   6.787   8.146 -0.7917 -0.8972 -1.5764
   44CHL1   C25 3247   0.530   6.670   8.308 -0.2589  0.3245 -0.0848
   44CHL1   H25 3248   0.436   6.727   8.291  0.1849  1.1454  0.1603
   44CHL1   C26 3249   0.494   6.524   8.339 -0.5260  0.1267  0.2182
   44CHL1  H26A 3250   0.433   6.524   8.432 -1.6870 -2.1872 -0.4723
   44CHL1  H26B 3251   0.437   6.473   8.259 -0.3907 -1.9642  1.3798
   44CHL1  H26C 3252   0.596   6.482   8.354 -0.6953 -0.9815 -1.3947
   44CHL1   C27 3253   0.590   6.733   8.432 -0.2637  0.5521 -0.0310
   44CHL1  H27A 3254   0.692   6.696   8.454  0.0096  1.8067  0.9615
   44CHL1  H27B 3255   0.596   6.843   8.421 -0.3857  0.4192 -1.6497
   44CHL1  H27C 3256   0.523   6.715   8.519 -0.3356  3.4639  0.6296
   45CHL1    C3 3257   1.220   4.266   6.902 -0.4705  0.2567 -0.2405
   45CHL1    H3 3258   1.324   4.227   6.904 -0.2081  0.9685  0.9094
   45CHL1    O3 3259   1.175   4.286   6.773  0.1216 -0.1459 -0.4497
   45CHL1   H3' 3260   1.080   4.288   6.787  0.2242 -0.4171  0.3723
   45CHL1    C4 3261   1.142   4.160   6.982  0.3434 -0.2213  0.5840
   45CHL1   H4A 3262   1.034   4.186   6.977  0.9218  2.5105  0.8873
   45CHL1   H4B 3263   1.146   4.062   6.931 -0.3090 -0.7882  1.5837
   45CHL1    C5 3264   1.173   4.150   7.128 -0.0897  0.0175 -0.2292
   45CHL1    C6 3265   1.208   4.032   7.180 -0.4925  0.0617 -0.0565
   45CHL1    H6 3266   1.219   3.943   7.117  0.0981  0.2908 -0.2875
   45CHL1    C7 3267   1.238   4.024   7.329  0.5521  0.2071 -0.1825
   45CHL1   H7A 3268   1.182   3.937   7.368  0.1104  0.3681 -0.4565
   45CHL1   H7B 3269   1.348   4.016   7.346  0.4129 -0.5923  0.4081
   45CHL1    C8 3270   1.185   4.139   7.422 -0.2335 -0.7615  0.2801
   45CHL1    H8 3271   1.075   4.134   7.440 -0.4122 -1.0272 -0.8290
   45CHL1   C14 3272   1.251   4.131   7.555 -0.1347 -0.0085 -0.3769
   45CHL1   H14 3273   1.362   4.139   7.544  0.2408 -0.8343  2.1705
   45CHL1   C15 3274   1.229   4.002   7.635  0.6062 -0.4469  0.7563
   45CHL1  H15A 3275   1.118   3.996   7.640  0.2296  3.5669  0.9714
   45CHL1  H15B 3276   1.269   3.904   7.602  0.7223 -0.8793  2.1008
   45CHL1   C16 3277   1.280   4.033   7.778  0.1798 -0.5070 -0.4321
   45CHL1  H16A 3278   1.211   3.999   7.858  0.5440  0.1686  0.1839
   45CHL1  H16B 3279   1.381   3.994   7.801  0.3949  0.6416  0.6822
   45CHL1   C17 3280   1.297   4.191   7.771  0.7530 -0.3528 -0.2481
   45CHL1   H17 3281   1.403   4.215   7.746  0.7705 -0.7252 -0.5350
   45CHL1   C13 3282   1.212   4.245   7.655  0.3523  0.4121  0.4832
   45CHL1   C18 3283   1.062   4.246   7.703  0.5700 -0.7326 -0.2059
   45CHL1  H18A 3284   0.993   4.270   7.620 -1.1089 -1.2732  0.9711
   45CHL1  H18B 3285   1.037   4.153   7.759 -0.4244 -0.3192  0.0547
   45CHL1  H18C 3286   1.052   4.334   7.770 -0.4841 -0.5581 -0.5807
   45CHL1   C12 3287   1.256   4.373   7.586 -0.5400 -0.5104  0.0766
   45CHL1  H12A 3288   1.213   4.457   7.643 -1.8297 -0.3979 -0.9896
   45CHL1  H12B 3289   1.365   4.385   7.568 -0.4134  0.1194  1.1889
   45CHL1   C11 3290   1.182   4.392   7.448 -0.0542  0.3109  1.4229
   45CHL1  H11A 3291   1.073   4.404   7.466 -0.3797  1.0601 -0.6672
   45CHL1  H11B 3292   1.214   4.494   7.419 -0.9178  0.6308  1.5602
   45CHL1    C9 3293   1.214   4.275   7.348 -0.5785 -0.0330  0.5559
   45CHL1    H9 3294   1.324   4.277   7.330 -0.5406  0.0150  0.7833
   45CHL1   C10 3295   1.159   4.283   7.203 -0.0148 -0.0728  0.1199
   45CHL1   C19 3296   1.010   4.327   7.215  0.6020  0.0524  0.0147
   45CHL1  H19A 3297   1.010   4.431   7.253  0.8299 -0.1182  0.4811
   45CHL1  H19B 3298   0.959   4.324   7.116  2.1095 -1.2242 -0.7805
   45CHL1  H19C 3299   0.951   4.260   7.280 -0.1371 -1.2118 -1.8600
   45CHL1    C1 3300   1.241   4.383   7.119  0.4549  0.6296  0.0672
   45CHL1   H1A 3301   1.226   4.481   7.169 -1.6963 -0.4104  1.5958
   45CHL1   H1B 3302   1.350   4.362   7.117  0.2927 -0.3075 -3.1584
   45CHL1    C2 3303   1.197   4.399   6.971 -0.0778 -0.3868 -0.0016
   45CHL1   H2A 3304   1.261   4.470   6.914  0.8688 -0.8749  0.4314
   45CHL1   H2B 3305   1.090   4.429   6.964 -0.5920 -1.9154  0.8284
   45CHL1   C20 3306   1.280   4.259   7.910 -0.1889 -0.3056  0.2984
   45CHL1   H20 3307   1.173   4.239   7.933 -0.1513 -0.1395  0.6174
   45CHL1   C21 3308   1.298   4.413   7.912  0.3092  0.2470 -0.3355
   45CHL1  H21A 3309   1.396   4.447   7.871 -0.2975  0.8167 -1.3321
   45CHL1  H21B 3310   1.298   4.445   8.018 -0.8354 -2.9022  0.7271
   45CHL1  H21C 3311   1.225   4.473   7.854  1.2543 -0.1871 -2.0336
   45CHL1   C22 3312   1.364   4.180   8.019  0.4251 -0.7163 -0.1461
   45CHL1  H22A 3313   1.371   4.071   7.997 -0.3818 -0.4421 -1.9306
   45CHL1  H22B 3314   1.466   4.223   8.010 -1.3480  3.9304 -0.7100
   45CHL1   C23 3315   1.306   4.200   8.168 -0.7718  0.1416  0.3349
   45CHL1  H23A 3316   1.384   4.166   8.240 -2.1192  0.7851  2.1580
   45CHL1  H23B 3317   1.273   4.304   8.189 -0.2520  0.3370  0.2033
   45CHL1   C24 3318   1.191   4.097   8.185  0.1620  0.3131 -0.5218
   45CHL1  H24A 3319   1.116   4.128   8.109 -0.3061 -1.6268 -0.8952
   45CHL1  H24B 3320   1.230   3.994   8.175 -0.6134  0.2321 -3.8030
   45CHL1   C25 3321   1.116   4.113   8.318 -0.2364  0.6070 -0.9025
   45CHL1   H25 3322   1.111   4.224   8.328 -0.9869  0.3786  2.9760
   45CHL1   C26 3323   0.970   4.056   8.297 -0.3627  0.1084 -0.4109
   45CHL1  H26A 3324   0.925   4.118   8.216  0.1768  2.3769  0.9413
   45CHL1  H26B 3325   0.972   3.951   8.263  0.2516 -1.0137  2.7726
   45CHL1  H26C 3326   0.901   4.059   8.384  1.5849 -0.8566  1.2352
   45CHL1   C27 3327   1.182   4.059   8.451 -0.0202  0.4269 -0.3734
   45CHL1  H27A 3328   1.285   4.100   8.463  0.5207 -0.7875 -0.7700
   45CHL1  H27B 3329   1.116   4.107   8.526 -0.3320  2.4873 -1.8621
   45CHL1  H27C 3330   1.177   3.949   8.463 -1.8427  0.7525  2.9400
   46CHL1    C3 3331   1.030   0.047   7.162 -0.2223  0.0903  0.0103
   46CHL1    H3 3332   0.948   0.108   7.204 -1.7323  0.2114 -2.8444
   46CHL1    O3 3333   1.032   0.062   7.022 -0.7404  0.6365 -0.0268
   46CHL1   H3' 3334   1.056  -0.025   6.990  1.6260  0.2421  2.4094
   46CHL1    C4 3335   1.159   0.118   7.220  0.5616 -0.1862 -0.1290
   46CHL1   H4A 3336   1.242   0.070   7.163 -0.1405 -1.7335  0.1041
   46CHL1   H4B 3337   1.146   0.223   7.186 -2.8119 -0.6667 -0.6833
   46CHL1    C5 3338   1.169   0.103   7.369 -0.1309 -0.7189 -0.4828
   46CHL1    C6 3339   1.195   0.215   7.443 -0.4222  0.2094  0.2883
   46CHL1    H6 3340   1.217   0.311   7.395 -0.0882 -0.8144 -1.6990
   46CHL1    C7 3341   1.201   0.204   7.595  0.0495 -0.1328 -0.2327
   46CHL1   H7A 3342   1.291   0.260   7.628  0.0135  1.9675 -3.2189
   46CHL1   H7B 3343   1.111   0.258   7.630  0.7164 -0.0229  1.3522
   46CHL1    C8 3344   1.193   0.064   7.662 -0.4786 -0.4244 -0.2262
   46CHL1    H8 3345   1.295   0.020   7.663 -0.6808 -0.9443  1.5872
   46CHL1   C14 3346   1.141   0.073   7.798  0.0202 -0.5494 -0.7316
   46CHL1   H14 3347   1.037   0.111   7.786  0.4146  0.2162 -1.8408
   46CHL1   C15 3348   1.191   0.177   7.898  0.4351 -0.3140  0.1605
   46CHL1  H15A 3349   1.302   0.186   7.896  0.4728 -0.0657  1.6663
   46CHL1  H15B 3350   1.159   0.283   7.887  0.2942 -0.2111  1.3550
   46CHL1   C16 3351   1.139   0.132   8.035  0.4696 -0.3576 -0.5424
   46CHL1  H16A 3352   1.228   0.110   8.098  0.3229 -0.7212 -0.4569
   46CHL1  H16B 3353   1.076   0.205   8.090 -0.7411 -2.3098  0.8000
   46CHL1   C17 3354   1.072  -0.011   8.008 -0.2965 -0.2483  0.2706
   46CHL1   H17 3355   0.966   0.019   7.997 -0.0491  0.8364  0.7087
   46CHL1   C13 3356   1.127  -0.062   7.872 -0.1783  0.7355  0.6451
   46CHL1   C18 3357   1.264  -0.129   7.903  0.4417  0.2526  0.0684
   46CHL1  H18A 3358   1.254  -0.209   7.979  0.7546  1.3994  1.3599
   46CHL1  H18B 3359   1.313  -0.174   7.813  2.1016  0.4285  0.8371
   46CHL1  H18C 3360   1.322  -0.046   7.949 -1.1567  1.7970 -0.6128
   46CHL1   C12 3361   1.036  -0.158   7.793  0.4684 -0.3485  0.1839
   46CHL1  H12A 3362   1.027  -0.261   7.833 -0.7184 -0.1910  0.3504
   46CHL1  H12B 3363   0.937  -0.109   7.803  0.0551 -0.8684 -1.0470
   46CHL1   C11 3364   1.083  -0.169   7.641  0.7927 -0.2417  0.2159
   46CHL1  H11A 3365   1.179  -0.224   7.635  0.8345 -0.1734  0.2679
   46CHL1  H11B 3366   1.006  -0.230   7.589  0.8408 -1.2987  1.3312
   46CHL1    C9 3367   1.097  -0.029   7.576  0.2725 -0.4499  0.2382
   46CHL1    H9 3368   0.995   0.015   7.584  0.3961 -0.2135  0.5555
   46CHL1   C10 3369   1.131  -0.034   7.421  0.0172  0.1518  0.2979
   46CHL1   C19 3370   1.269  -0.109   7.411  0.4561 -0.1303  0.0983
   46CHL1  H19A 3371   1.296  -0.106   7.303  0.3610  3.2284  0.0644
   46CHL1  H19B 3372   1.347  -0.051   7.465  2.7870 -2.2611 -0.7755
   46CHL1  H19C 3373   1.258  -0.216   7.438 -1.8652  0.1263  0.3924
   46CHL1    C1 3374   1.018  -0.107   7.349 -0.0413  0.4722 -0.0877
   46CHL1   H1A 3375   1.017  -0.215   7.377  3.5947  0.5285  0.7759
   46CHL1   H1B 3376   0.920  -0.058   7.368 -1.4771 -2.0627 -0.4110
   46CHL1    C2 3377   1.024  -0.100   7.195  0.0022 -0.3165  0.1032
   46CHL1   H2A 3378   0.935  -0.158   7.163  0.6252 -2.4702  1.9656
   46CHL1   H2B 3379   1.109  -0.160   7.154 -0.5517  0.5317 -2.4961
   46CHL1   C20 3380   1.065  -0.101   8.130 -0.0793  0.9827  0.0898
   46CHL1   H20 3381   1.167  -0.140   8.149 -0.4867 -1.0154 -1.4360
   46CHL1   C21 3382   0.979  -0.219   8.106 -0.2798  0.7499 -0.1736
   46CHL1  H21A 3383   0.952  -0.256   8.207  0.1989  2.2881  0.5454
   46CHL1  H21B 3384   1.023  -0.299   8.042 -1.2557  0.5814 -0.6495
   46CHL1  H21C 3385   0.881  -0.197   8.060 -0.5498  0.8090  0.4166
   46CHL1   C22 3386   1.022  -0.028   8.261  0.5434  0.6052 -0.3286
   46CHL1  H22A 3387   1.076   0.068   8.264  1.8188  0.0163 -2.3351
   46CHL1  H22B 3388   0.911  -0.019   8.253  0.3192 -1.2879  0.0251
   46CHL1   C23 3389   1.061  -0.098   8.388 -0.2752 -0.7570  0.3437
   46CHL1  H23A 3390   1.033  -0.205   8.400 -0.8111 -0.5575  0.8754
   46CHL1  H23B 3391   1.172  -0.099   8.394 -0.2286  2.4790  2.6767
   46CHL1   C24 3392   1.016  -0.029   8.519 -0.4837  0.0220  0.1114
   46CHL1  H24A 3393   1.056   0.075   8.518 -1.1936  0.2971 -0.7476
   46CHL1  H24B 3394   0.906  -0.014   8.516 -0.2392  2.0077 -0.6044
   46CHL1   C25 3395   1.074  -0.074   8.656 -0.0471  0.0385  0.4725
   46CHL1   H25 3396   1.185  -0.075   8.648 -0.0310 -0.3760  0.6929
   46CHL1   C26 3397   1.040   0.027   8.760  0.2604 -0.1817 -0.6751
   46CHL1  H26A 3398   1.071   0.127   8.723  0.7411  0.7890  2.1106
   46CHL1  H26B 3399   0.932   0.027   8.785  0.4905 -2.3691  0.6289
   46CHL1  H26C 3400   1.088   0.007   8.859 -1.7875  0.4932  0.5124
   46CHL1   C27 3401   1.034  -0.219   8.693  0.0976  0.3021 -0.1647
   46CHL1  H27A 3402   1.069  -0.248   8.795  1.1999 -2.3674 -1.2154
   46CHL1  H27B 3403   0.924  -0.232   8.700  0.3823 -1.4095  2.4985
   46CHL1  H27C 3404   1.078  -0.288   8.618 -1.1648  0.1591 -0.7959
   47CHL1    C3 3405   0.870   5.983   6.909  0.8340  0.8468 -0.0896
   47CHL1    H3 3406   0.794   6.063   6.926 -0.1353  0.8311 -3.5671
   47CHL1    O3 3407   0.894   5.963   6.766  0.0810 -0.6511 -0.4278
   47CHL1   H3' 3408   0.931   6.043   6.727 -2.1134  0.7992  0.3109
   47CHL1    C4 3409   1.005   6.027   6.972 -0.4763 -0.8743 -0.3023
   47CHL1   H4A 3410   1.077   5.946   6.950  1.2910  0.6354 -0.2519
   47CHL1   H4B 3411   1.053   6.116   6.925 -0.6149 -0.4019  0.4427
   47CHL1    C5 3412   0.980   6.046   7.122 -0.2707 -0.4981 -0.3408
   47CHL1    C6 3413   0.979   6.172   7.178  0.3875  0.0482 -0.5213
   47CHL1    H6 3414   1.002   6.260   7.115  0.3860 -1.2608 -2.4385
   47CHL1    C7 3415   0.960   6.206   7.328 -0.0502 -0.1229  0.1204
   47CHL1   H7A 3416   1.027   6.288   7.361 -1.3655  1.8223 -1.7239
   47CHL1   H7B 3417   0.857   6.247   7.339 -0.5012 -1.3818  0.8183
   47CHL1    C8 3418   0.974   6.070   7.411  0.6602 -1.0130 -0.4492
   47CHL1    H8 3419   1.081   6.041   7.405  0.1882 -2.8161 -0.6240
   47CHL1   C14 3420   0.932   6.095   7.553 -0.1707 -0.2391 -0.0813
   47CHL1   H14 3421   0.824   6.118   7.541 -0.6154 -2.5722 -1.1928
   47CHL1   C15 3422   0.999   6.214   7.631 -0.2542 -0.2838  0.1236
   47CHL1  H15A 3423   1.110   6.210   7.624 -0.0228  3.2602 -0.2243
   47CHL1  H15B 3424   0.975   6.315   7.591  2.9439  0.7338  0.4931
   47CHL1   C16 3425   0.950   6.193   7.769 -0.4219  1.0109 -0.5656
   47CHL1  H16A 3426   1.028   6.215   7.845  0.2871  1.3613 -1.3844
   47CHL1  H16B 3427   0.863   6.261   7.781  0.7475  2.7992 -1.8671
   47CHL1   C17 3428   0.897   6.040   7.783  0.5697 -0.6987  0.1877
   47CHL1   H17 3429   0.786   6.048   7.777  0.5994  0.3747  0.8817
   47CHL1   C13 3430   0.945   5.978   7.651 -0.2021  0.8567 -0.9507
   47CHL1   C18 3431   1.094   5.938   7.663  0.2626  0.3648 -0.0004
   47CHL1  H18A 3432   1.144   6.012   7.729  2.4778  1.4600 -2.6759
   47CHL1  H18B 3433   1.105   5.836   7.705 -0.0876  0.5689  0.5847
   47CHL1  H18C 3434   1.137   5.945   7.560  1.0158 -1.3756  0.1648
   47CHL1   C12 3435   0.866   5.868   7.594 -0.2760  0.6543  0.4789
   47CHL1  H12A 3436   0.875   5.775   7.654 -0.5144 -0.3197 -0.9555
   47CHL1  H12B 3437   0.763   5.910   7.601  0.1601  1.9499 -0.4624
   47CHL1   C11 3438   0.892   5.835   7.446 -0.0291 -0.4408  0.4960
   47CHL1  H11A 3439   0.995   5.793   7.439 -1.1996 -3.3534 -1.9552
   47CHL1  H11B 3440   0.824   5.753   7.414 -0.9340  0.2310  0.6824
   47CHL1    C9 3441   0.893   5.954   7.349 -0.2524 -0.1672  0.9541
   47CHL1    H9 3442   0.789   5.988   7.331  0.7150  1.4884 -2.4750
   47CHL1   C10 3443   0.935   5.921   7.207 -0.2970  0.8291 -0.4190
   47CHL1   C19 3444   1.055   5.824   7.203 -0.2959  0.3526  0.3825
   47CHL1  H19A 3445   1.149   5.859   7.249  0.0300 -1.0483  0.8502
   47CHL1  H19B 3446   1.018   5.722   7.230 -1.0017  0.3823 -0.4351
   47CHL1  H19C 3447   1.096   5.796   7.104 -0.0318  0.7484  0.3813
   47CHL1    C1 3448   0.814   5.862   7.129  0.9985  0.4200 -0.2953
   47CHL1   H1A 3449   0.797   5.761   7.171 -0.1897  0.3879 -0.8165
   47CHL1   H1B 3450   0.724   5.927   7.142 -0.3870 -1.7050  1.4986
   47CHL1    C2 3451   0.825   5.849   6.974 -0.2626  1.4676 -0.2176
   47CHL1   H2A 3452   0.725   5.820   6.935  0.7497  0.1239 -1.9347
   47CHL1   H2B 3453   0.901   5.773   6.949 -1.0672 -0.2154  2.1117
   47CHL1   C20 3454   0.932   5.985   7.921  0.6859 -0.8504  1.1453
   47CHL1   H20 3455   1.042   5.990   7.937  0.9716 -2.2967 -0.1204
   47CHL1   C21 3456   0.899   5.837   7.938 -0.4805  0.5492  0.7669
   47CHL1  H21A 3457   0.790   5.822   7.930 -0.6936  2.7155 -2.2205
   47CHL1  H21B 3458   0.928   5.805   8.040  2.1332 -0.2826 -0.1485
   47CHL1  H21C 3459   0.965   5.783   7.867  0.0863  1.5506  0.5022
   47CHL1   C22 3460   0.853   6.065   8.035  0.2516 -0.7934 -0.5632
   47CHL1  H22A 3461   0.880   6.169   8.009  1.4795 -0.9090  0.1742
   47CHL1  H22B 3462   0.747   6.040   8.014  0.3799 -1.5672 -0.3274
   47CHL1   C23 3463   0.871   6.025   8.180  0.7837 -0.3790 -0.5197
   47CHL1  H23A 3464   0.818   5.929   8.200 -1.5433  1.3692  2.4221
   47CHL1  H23B 3465   0.979   6.009   8.204  0.3634  0.6393  2.4124
   47CHL1   C24 3466   0.801   6.120   8.281  0.0986 -0.4550 -0.1855
   47CHL1  H24A 3467   0.840   6.222   8.260  0.3700 -0.3300  0.8971
   47CHL1  H24B 3468   0.693   6.120   8.253  0.0216  0.5498  0.0899
   47CHL1   C25 3469   0.821   6.088   8.427  0.1004 -0.4715 -0.0369
   47CHL1   H25 3470   0.922   6.045   8.449  0.0235 -0.8894 -0.4971
   47CHL1   C26 3471   0.796   6.219   8.508  0.3984  0.4898 -0.4557
   47CHL1  H26A 3472   0.827   6.204   8.613 -0.7426  0.4780 -0.1031
   47CHL1  H26B 3473   0.837   6.308   8.456  0.2612  1.3501  0.8628
   47CHL1  H26C 3474   0.685   6.232   8.501  0.2441 -0.1185  0.6448
   47CHL1   C27 3475   0.724   5.980   8.469 -0.1315 -0.2044  0.1309
   47CHL1  H27A 3476   0.624   6.000   8.424 -0.3957  0.2473  0.9115
   47CHL1  H27B 3477   0.761   5.886   8.423 -0.5649  0.8647 -2.5788
   47CHL1  H27C 3478   0.722   5.974   8.580 -0.5791 -1.0279  0.0856
   48CHL1    C3 3479   5.163   0.706   6.278  0.3142 -0.2685 -0.0138
   48CHL1    H3 3480   5.068   0.650   6.296 -0.5160  1.3899  1.0671
   48CHL1    O3 3481   5.171   0.760   6.146  0.5844  0.0062 -0.0606
   48CHL1   H3' 3482   5.237   0.830   6.145 -0.9899  1.5710 -1.7482
   48CHL1    C4 3483   5.141   0.827   6.368 -0.2444  0.0492 -0.3015
   48CHL1   H4A 3484   5.213   0.901   6.328  1.1149 -1.4339 -0.6727
   48CHL1   H4B 3485   5.045   0.878   6.344  0.4963  1.0302 -1.2693
   48CHL1    C5 3486   5.154   0.802   6.514 -0.4771  0.8531 -0.5426
   48CHL1    C6 3487   5.055   0.824   6.605  0.8778  0.4557  0.2189
   48CHL1    H6 3488   4.957   0.867   6.579 -0.3593 -2.1877  0.2375
   48CHL1    C7 3489   5.060   0.780   6.746 -0.3793  0.6157 -0.2714
   48CHL1   H7A 3490   5.012   0.854   6.814  1.5900 -0.9348  3.0589
   48CHL1   H7B 3491   4.996   0.690   6.755 -2.0340  1.7290 -0.2388
   48CHL1    C8 3492   5.196   0.755   6.796  0.2448  0.4349 -0.2336
   48CHL1    H8 3493   5.245   0.855   6.798  0.4558  0.3221  0.2691
   48CHL1   C14 3494   5.189   0.703   6.940  0.0509 -0.2437  0.2548
   48CHL1   H14 3495   5.140   0.603   6.942  0.1906 -0.3548 -0.9336
   48CHL1   C15 3496   5.108   0.788   7.037 -0.2872  0.0483  0.1991
   48CHL1  H15A 3497   5.126   0.896   7.018  1.4770 -0.7017 -3.4755
   48CHL1  H15B 3498   4.999   0.769   7.032 -0.1037 -1.7409  1.6719
   48CHL1   C16 3499   5.160   0.738   7.174 -0.3485 -0.8002  0.5336
   48CHL1  H16A 3500   5.184   0.825   7.238 -0.2418 -2.0554  2.2773
   48CHL1  H16B 3501   5.076   0.686   7.224  0.2855 -2.3184  0.0733
   48CHL1   C17 3502   5.283   0.651   7.146  0.3693  0.6533 -0.4037
   48CHL1   H17 3503   5.249   0.545   7.142  1.1296  0.2555  2.0932
   48CHL1   C13 3504   5.328   0.678   6.998 -0.3837 -0.1063  0.3987
   48CHL1   C18 3505   5.412   0.809   7.002  0.5210 -0.9296  0.4596
   48CHL1  H18A 3506   5.503   0.785   7.061 -0.0871 -2.2447  0.9098
   48CHL1  H18B 3507   5.426   0.855   6.902  0.6783  1.9250  1.7115
   48CHL1  H18C 3508   5.370   0.895   7.059 -1.5583  0.9132 -3.4459
   48CHL1   C12 3509   5.390   0.562   6.911 -0.1621 -0.0974 -0.3475
   48CHL1  H12A 3510   5.483   0.525   6.958  0.3982  1.8973  0.2355
   48CHL1  H12B 3511   5.317   0.479   6.900 -2.2227  1.6285 -0.3512
   48CHL1   C11 3512   5.400   0.611   6.764  0.1708  0.2811 -0.0228
   48CHL1  H11A 3513   5.475   0.692   6.775  0.5369 -0.1006  0.3428
   48CHL1  H11B 3514   5.449   0.534   6.701 -0.3399 -0.0943  0.0354
   48CHL1    C9 3515   5.266   0.662   6.702  0.3019  0.3214 -0.4961
   48CHL1    H9 3516   5.200   0.573   6.691  0.7264 -0.3284  1.5835
   48CHL1   C10 3517   5.277   0.720   6.559 -0.3354 -0.3761  1.0570
   48CHL1   C19 3518   5.397   0.821   6.538 -0.1841  0.2171  0.0353
   48CHL1  H19A 3519   5.495   0.774   6.560 -1.2335 -2.1918 -0.1181
   48CHL1  H19B 3520   5.397   0.855   6.433  1.6106 -2.8044 -1.0763
   48CHL1  H19C 3521   5.374   0.903   6.609  0.6196  2.9231 -2.6610
   48CHL1    C1 3522   5.302   0.604   6.452  0.3829  0.5924  0.4574
   48CHL1   H1A 3523   5.396   0.552   6.482  0.9352  1.4084  0.1916
   48CHL1   H1B 3524   5.220   0.535   6.481  1.1499 -0.2155  0.7277
   48CHL1    C2 3525   5.282   0.625   6.306  0.2475 -1.3894  0.7228
   48CHL1   H2A 3526   5.276   0.524   6.259  1.9544 -2.1376  1.9908
   48CHL1   H2B 3527   5.374   0.677   6.274 -0.4488 -1.6119 -1.8469
   48CHL1   C20 3528   5.380   0.652   7.264 -0.1747 -0.6202 -0.1827
   48CHL1   H20 3529   5.437   0.747   7.254 -1.5183  0.1624 -0.5606
   48CHL1   C21 3530   5.468   0.527   7.255 -0.2104 -0.3286  0.4655
   48CHL1  H21A 3531   5.519   0.504   7.159 -1.9748 -2.6449  0.0129
   48CHL1  H21B 3532   5.399   0.443   7.277 -1.1872  0.6162  1.1040
   48CHL1  H21C 3533   5.546   0.523   7.335 -0.0770 -1.9831  0.2803
   48CHL1   C22 3534   5.308   0.657   7.403  0.4203  0.5569  0.0185
   48CHL1  H22A 3535   5.289   0.764   7.429  1.6955  0.5263  1.2235
   48CHL1  H22B 3536   5.217   0.593   7.396  1.0337 -0.6070  1.8574
   48CHL1   C23 3537   5.395   0.594   7.513 -0.4725  0.0552 -0.3758
   48CHL1  H23A 3538   5.395   0.483   7.514 -2.4345  0.0305  0.4060
   48CHL1  H23B 3539   5.496   0.641   7.504 -0.8298  0.8836 -0.0989
   48CHL1   C24 3540   5.335   0.635   7.651  0.4472  0.1315  0.2671
   48CHL1  H24A 3541   5.326   0.746   7.662  2.5272  0.1735  2.5075
   48CHL1  H24B 3542   5.239   0.581   7.656  0.7941 -0.5070  0.1413
   48CHL1   C25 3543   5.417   0.585   7.768  0.4874 -0.5107 -0.3286
   48CHL1   H25 3544   5.446   0.479   7.748  1.4345 -0.1232 -1.0966
   48CHL1   C26 3545   5.550   0.650   7.783 -0.3801 -0.1244 -0.4366
   48CHL1  H26A 3546   5.548   0.750   7.830  0.6413 -0.8602  1.2571
   48CHL1  H26B 3547   5.615   0.588   7.848 -1.7740  0.7802  1.9377
   48CHL1  H26C 3548   5.602   0.652   7.684  0.8163  1.3965  0.1816
   48CHL1   C27 3549   5.344   0.600   7.901 -0.1479  0.1712 -0.5515
   48CHL1  H27A 3550   5.401   0.569   7.990 -2.6600 -1.9806  0.4578
   48CHL1  H27B 3551   5.317   0.707   7.917 -2.6773 -0.5712  0.6084
   48CHL1  H27C 3552   5.253   0.536   7.902  0.4389 -0.7141  1.7681
   49CHL1    C3 3553   3.706   2.623   6.746  0.1517  0.1853  0.1457
   49CHL1    H3 3554   3.788   2.695   6.723 -0.2596  0.5526 -0.1930
   49CHL1    O3 3555   3.656   2.570   6.627 -0.2484 -0.3685 -0.3541
   49CHL1   H3' 3556   3.562   2.560   6.641  0.1772 -1.3336  2.4394
   49CHL1    C4 3557   3.762   2.516   6.833 -0.0244 -0.0300  0.5042
   49CHL1   H4A 3558   3.700   2.426   6.814  2.0293 -1.4871  0.3661
   49CHL1   H4B 3559   3.862   2.496   6.789  0.6896  3.2763  0.3730
   49CHL1    C5 3560   3.785   2.545   6.979 -0.1239 -0.0907 -0.1436
   49CHL1    C6 3561   3.899   2.516   7.043 -0.2040  0.2896  0.6376
   49CHL1    H6 3562   3.982   2.474   6.985 -1.4050 -1.2070 -0.0683
   49CHL1    C7 3563   3.906   2.537   7.188  0.0005  0.4567  0.2580
   49CHL1   H7A 3564   3.958   2.449   7.230 -0.7787 -0.4023 -0.5415
   49CHL1   H7B 3565   3.973   2.625   7.203  2.6658 -1.3019 -0.6184
   49CHL1    C8 3566   3.775   2.555   7.270  0.9453  0.0863  0.0501
   49CHL1    H8 3567   3.716   2.461   7.277 -2.8997  2.2452 -0.4483
   49CHL1   C14 3568   3.793   2.608   7.409  0.2319  0.3833  0.0630
   49CHL1   H14 3569   3.855   2.699   7.395 -1.0163  1.6145  1.9078
   49CHL1   C15 3570   3.891   2.528   7.507 -0.1226 -0.1723  0.6354
   49CHL1  H15A 3571   3.862   2.421   7.519 -0.7005  0.0125  0.8913
   49CHL1  H15B 3572   3.995   2.538   7.470 -0.6564  2.5683 -0.3720
   49CHL1   C16 3573   3.873   2.605   7.633  0.1190 -0.2983  1.1771
   49CHL1  H16A 3574   3.871   2.540   7.722 -1.1512 -0.9421  0.6997
   49CHL1  H16B 3575   3.958   2.677   7.628  0.2443 -0.4999  0.2597
   49CHL1   C17 3576   3.736   2.685   7.622  0.2875 -0.1713 -0.6350
   49CHL1   H17 3577   3.758   2.791   7.599  1.3416 -0.1286  0.5072
   49CHL1   C13 3578   3.672   2.646   7.491 -0.4923 -0.2848  0.2788
   49CHL1   C18 3579   3.576   2.522   7.512  0.3657 -0.4780  0.7665
   49CHL1  H18A 3580   3.606   2.451   7.592 -0.1498 -2.5251 -0.7747
   49CHL1  H18B 3581   3.476   2.568   7.527  0.1127 -0.6887 -0.2096
   49CHL1  H18C 3582   3.576   2.455   7.423  0.0063 -0.6347  0.8823
   49CHL1   C12 3583   3.605   2.760   7.411 -1.0316  0.9641  0.1117
   49CHL1  H12A 3584   3.508   2.780   7.462 -0.8229 -0.2285  1.0360
   49CHL1  H12B 3585   3.662   2.854   7.398  0.6681 -0.1650 -0.8840
   49CHL1   C11 3586   3.573   2.709   7.262 -0.1963  0.1756 -0.0710
   49CHL1  H11A 3587   3.486   2.641   7.261  1.1921 -1.6754  0.2059
   49CHL1  H11B 3588   3.538   2.802   7.212 -0.5203 -0.9471 -2.0004
   49CHL1    C9 3589   3.695   2.654   7.191 -0.5979  0.3126 -0.3532
   49CHL1    H9 3590   3.763   2.740   7.174  0.1211 -0.3180 -0.7474
   49CHL1   C10 3591   3.658   2.605   7.050  0.1414  0.1496  0.0081
   49CHL1   C19 3592   3.538   2.503   7.056  0.3993  1.0644 -0.0872
   49CHL1  H19A 3593   3.564   2.414   7.117  2.8319  0.6918 -1.5463
   49CHL1  H19B 3594   3.451   2.562   7.091  0.3671  0.9206  0.0736
   49CHL1  H19C 3595   3.516   2.473   6.951  1.0770  1.2832 -0.2931
   49CHL1    C1 3596   3.620   2.725   6.963 -0.0785 -0.4227 -0.3159
   49CHL1   H1A 3597   3.528   2.774   7.001 -0.9975 -0.0234 -2.8359
   49CHL1   H1B 3598   3.702   2.801   6.958  0.1106 -0.4640  1.6011
   49CHL1    C2 3599   3.584   2.690   6.814 -0.0613  0.5311 -0.6282
   49CHL1   H2A 3600   3.556   2.786   6.767 -1.2690  1.7364  2.2865
   49CHL1   H2B 3601   3.497   2.623   6.828  0.9367 -0.4639  1.4338
   49CHL1   C20 3602   3.652   2.687   7.747 -0.4955  0.1826 -0.3895
   49CHL1   H20 3603   3.628   2.583   7.779  1.4832  0.3528  1.9595
   49CHL1   C21 3604   3.521   2.763   7.726 -0.6812  0.1773 -0.2841
   49CHL1  H21A 3605   3.549   2.869   7.708  0.4539 -0.3487 -1.8000
   49CHL1  H21B 3606   3.451   2.752   7.812  0.3937 -0.0829  0.5724
   49CHL1  H21C 3607   3.475   2.730   7.630  3.0498 -0.3469 -2.0374
   49CHL1   C22 3608   3.729   2.735   7.871 -0.2998  0.0455  0.2398
   49CHL1  H22A 3609   3.834   2.698   7.869  0.2406  1.5442  0.2316
   49CHL1  H22B 3610   3.726   2.845   7.860 -0.1095  0.0292  0.0241
   49CHL1   C23 3611   3.662   2.701   8.010  0.3239  0.1926  0.3583
   49CHL1  H23A 3612   3.562   2.747   7.996  0.5053  0.6477  0.5214
   49CHL1  H23B 3613   3.661   2.595   8.041 -0.5132  0.2829  0.6668
   49CHL1   C24 3614   3.730   2.784   8.119 -0.3342 -0.2527  0.1151
   49CHL1  H24A 3615   3.840   2.770   8.107 -0.6279 -0.2974 -3.4283
   49CHL1  H24B 3616   3.709   2.891   8.097  0.8999 -0.1123 -0.4708
   49CHL1   C25 3617   3.675   2.766   8.266 -0.2871 -0.2943  0.3856
   49CHL1   H25 3618   3.664   2.656   8.269  0.7026 -0.3790  1.0465
   49CHL1   C26 3619   3.760   2.817   8.376 -0.0957 -0.5885  0.8038
   49CHL1  H26A 3620   3.861   2.776   8.358  0.0970 -0.4327  1.5169
   49CHL1  H26B 3621   3.754   2.928   8.367  0.2553 -0.6442 -0.3571
   49CHL1  H26C 3622   3.718   2.778   8.471 -2.0622 -0.1096  0.1883
   49CHL1   C27 3623   3.533   2.819   8.291 -0.3142 -0.1756 -0.4726
   49CHL1  H27A 3624   3.453   2.757   8.245  0.1799 -2.5034  1.5902
   49CHL1  H27B 3625   3.514   2.809   8.400  0.1864  1.6969 -0.1756
   49CHL1  H27C 3626   3.520   2.928   8.273 -1.6259 -0.3619 -0.7246
   50CHL1    C3 3627   4.116   4.184   6.761  0.3721 -0.0024  0.3910
   50CHL1    H3 3628   4.112   4.073   6.761 -0.0234 -0.0063 -0.6098
   50CHL1    O3 3629   4.124   4.219   6.628 -0.1875 -0.2606  0.0587
   50CHL1   H3' 3630   4.061   4.164   6.580 -0.9004  1.8623 -1.6084
   50CHL1    C4 3631   3.991   4.241   6.822  0.5393 -0.2132  0.2106
   50CHL1   H4A 3632   3.991   4.351   6.809  1.6766  0.3304  3.7016
   50CHL1   H4B 3633   3.906   4.197   6.766  0.2471  0.1106  0.3951
   50CHL1    C5 3634   3.987   4.202   6.966 -0.5611  0.1904 -0.0813
   50CHL1    C6 3635   3.887   4.130   7.024 -0.2807  1.4468 -0.8184
   50CHL1    H6 3636   3.803   4.086   6.968  1.1448 -1.3959 -0.9007
   50CHL1    C7 3637   3.885   4.100   7.173 -0.5487 -0.3000  0.4038
   50CHL1   H7A 3638   3.779   4.105   7.207 -1.2573 -1.8677 -1.3560
   50CHL1   H7B 3639   3.929   3.999   7.193  0.4329 -0.1145 -0.7278
   50CHL1    C8 3640   3.965   4.202   7.252  1.3219 -0.1463 -0.1551
   50CHL1    H8 3641   3.906   4.296   7.240 -0.3602 -0.7775  2.4267
   50CHL1   C14 3642   3.950   4.163   7.404 -0.8802  0.5007 -0.1548
   50CHL1   H14 3643   3.983   4.059   7.422 -0.3845  0.5211 -0.8970
   50CHL1   C15 3644   3.810   4.166   7.457 -0.1934 -0.5077 -0.1704
   50CHL1  H15A 3645   3.752   4.245   7.405  2.7346  0.1871 -2.6880
   50CHL1  H15B 3646   3.767   4.065   7.440  1.6098 -1.1533 -1.2553
   50CHL1   C16 3647   3.832   4.175   7.610 -0.1761  0.1543 -0.3673
   50CHL1  H16A 3648   3.772   4.257   7.653 -1.4869 -1.8208  1.7505
   50CHL1  H16B 3649   3.808   4.084   7.668  1.2885 -0.6929 -1.0113
   50CHL1   C17 3650   3.986   4.198   7.630  0.4533 -0.1052  0.3094
   50CHL1   H17 3651   4.037   4.099   7.638  0.9006 -0.0156 -1.1409
   50CHL1   C13 3652   4.036   4.250   7.493 -0.2478 -0.5665 -0.3516
   50CHL1   C18 3653   3.982   4.389   7.478 -0.1387 -0.2761  0.0230
   50CHL1  H18A 3654   3.880   4.414   7.514  0.0437 -0.8566  0.9608
   50CHL1  H18B 3655   4.052   4.455   7.533  0.0318  1.9346 -2.6056
   50CHL1  H18C 3656   3.991   4.424   7.373  0.0103 -1.3790 -0.3468
   50CHL1   C12 3657   4.187   4.227   7.453 -0.2761 -0.3628 -0.2933
   50CHL1  H12A 3658   4.248   4.307   7.501  0.3222 -0.6326 -0.5911
   50CHL1  H12B 3659   4.217   4.121   7.465  1.2106 -0.1062 -1.5120
   50CHL1   C11 3660   4.213   4.256   7.305 -0.1262  0.5541 -0.4333
   50CHL1  H11A 3661   4.208   4.367   7.306 -0.2423  0.6411  3.5314
   50CHL1  H11B 3662   4.313   4.223   7.269 -0.0371 -0.5627  0.7861
   50CHL1    C9 3663   4.108   4.200   7.200  0.3623 -0.0341 -0.0965
   50CHL1    H9 3664   4.131   4.091   7.200 -0.0794 -0.2116  2.8633
   50CHL1   C10 3665   4.106   4.254   7.049  0.4285 -0.1482  0.2727
   50CHL1   C19 3666   4.087   4.409   7.058 -0.0776  0.2673 -0.2702
   50CHL1  H19A 3667   3.992   4.432   7.110  0.5622 -1.0665  1.5865
   50CHL1  H19B 3668   4.167   4.446   7.126  1.4309 -0.6488 -1.4621
   50CHL1  H19C 3669   4.100   4.462   6.961 -0.4430  2.1832  0.6743
   50CHL1    C1 3670   4.241   4.216   6.981  0.1227  0.7507 -0.2960
   50CHL1   H1A 3671   4.328   4.263   7.031 -0.8247  0.4445  1.7451
   50CHL1   H1B 3672   4.249   4.106   6.996  0.9913  0.5808 -1.8693
   50CHL1    C2 3673   4.240   4.236   6.827 -0.6836 -0.0757 -0.6557
   50CHL1   H2A 3674   4.303   4.154   6.785 -1.1411 -0.1924 -1.1314
   50CHL1   H2B 3675   4.262   4.343   6.806 -1.1437 -0.0849 -1.1950
   50CHL1   C20 3676   4.009   4.277   7.765 -0.5588 -0.1265  0.2047
   50CHL1   H20 3677   3.975   4.381   7.747  2.6895  1.0647  0.2256
   50CHL1   C21 3678   4.158   4.286   7.797 -0.0423 -0.3458  0.0677
   50CHL1  H21A 3679   4.207   4.320   7.703 -1.4311  1.0201 -0.2076
   50CHL1  H21B 3680   4.196   4.184   7.822 -1.3740 -0.8146  0.2589
   50CHL1  H21C 3681   4.178   4.364   7.873  0.1295 -1.5001  1.2442
   50CHL1   C22 3682   3.926   4.225   7.883 -0.3976  0.3942  0.0312
   50CHL1  H22A 3683   3.818   4.223   7.857 -0.1849 -0.1597 -0.8583
   50CHL1  H22B 3684   3.960   4.119   7.892 -0.9769  0.2241  0.2548
   50CHL1   C23 3685   3.939   4.302   8.014 -0.5435  0.3220 -0.0005
   50CHL1  H23A 3686   4.044   4.324   8.044 -0.2612 -0.0478 -0.6986
   50CHL1  H23B 3687   3.889   4.400   7.995  1.0420  0.8056 -2.0330
   50CHL1   C24 3688   3.874   4.229   8.128  0.4328  1.0910  0.4401
   50CHL1  H24A 3689   3.766   4.215   8.106  0.3407 -0.5325  1.7627
   50CHL1  H24B 3690   3.929   4.133   8.132  2.0550  1.9075 -0.9641
   50CHL1   C25 3691   3.887   4.284   8.272 -0.0335  0.0699  0.0761
   50CHL1   H25 3692   3.979   4.252   8.324 -0.4444  2.5218  2.4991
   50CHL1   C26 3693   3.880   4.436   8.267 -0.2452 -0.6284 -0.8343
   50CHL1  H26A 3694   3.779   4.464   8.230 -1.3083 -1.1506  1.5320
   50CHL1  H26B 3695   3.883   4.465   8.374  1.2969 -1.7529 -0.5451
   50CHL1  H26C 3696   3.962   4.492   8.218 -0.3198  0.3952  0.1968
   50CHL1   C27 3697   3.774   4.231   8.362 -0.3382  0.3987 -0.1434
   50CHL1  H27A 3698   3.769   4.123   8.333  1.5101  0.7087 -1.8408
   50CHL1  H27B 3699   3.793   4.225   8.471 -0.2538 -0.2476 -0.1890
   50CHL1  H27C 3700   3.674   4.278   8.355 -0.9421 -0.8382 -0.1460
   51CHL1    C3 3701   3.961   3.185   6.848  0.3455  0.2904  0.5888
   51CHL1    H3 3702   3.861   3.229   6.869 -0.0407 -0.9428  1.4633
   51CHL1    O3 3703   3.984   3.192   6.711  0.0424  0.1491  0.7345
   51CHL1   H3' 3704   4.029   3.108   6.698 -0.2839  0.1774 -0.7880
   51CHL1    C4 3705   4.068   3.264   6.920  0.5345  0.6368  0.0689
   51CHL1   H4A 3706   4.171   3.228   6.897  1.0769 -0.2406  3.3583
   51CHL1   H4B 3707   4.073   3.373   6.897  0.6371  0.4668 -0.7580
   51CHL1    C5 3708   4.051   3.251   7.070 -0.2100  0.4153  0.8493
   51CHL1    C6 3709   4.024   3.356   7.151 -0.3931  0.4684 -0.2907
   51CHL1    H6 3710   4.006   3.454   7.105 -0.1086 -0.3477 -2.2451
   51CHL1    C7 3711   4.004   3.349   7.304  0.5480 -0.2368 -0.5311
   51CHL1   H7A 3712   4.039   3.440   7.356 -0.6124  0.5469 -1.0737
   51CHL1   H7B 3713   3.894   3.354   7.318  0.7325  2.2685  0.4447
   51CHL1    C8 3714   4.072   3.227   7.353 -0.1636  0.2077 -0.4077
   51CHL1    H8 3715   4.182   3.242   7.348 -0.1517  0.4147  0.3849
   51CHL1   C14 3716   4.043   3.209   7.500 -0.2491  0.1118 -0.0670
   51CHL1   H14 3717   3.932   3.198   7.502 -0.2171 -0.3626 -0.7159
   51CHL1   C15 3718   4.079   3.322   7.596 -0.2042  0.5874 -0.8676
   51CHL1  H15A 3719   4.171   3.383   7.578  1.2123 -0.3154  2.5067
   51CHL1  H15B 3720   3.998   3.397   7.593 -1.1691 -0.2416  1.7519
   51CHL1   C16 3721   4.071   3.259   7.736  0.2949 -0.2058  0.4439
   51CHL1  H16A 3722   4.169   3.273   7.787  0.2903  1.7908  0.0017
   51CHL1  H16B 3723   3.989   3.302   7.797 -0.9190  2.0156 -2.5481
   51CHL1   C17 3724   4.047   3.101   7.713  0.2260 -0.5439  0.4711
   51CHL1   H17 3725   3.937   3.091   7.725  0.0039  0.5730 -0.5163
   51CHL1   C13 3726   4.099   3.083   7.570  0.0078  0.2737 -0.5433
   51CHL1   C18 3727   4.257   3.082   7.561  0.2978  0.3020 -0.2320
   51CHL1  H18A 3728   4.286   2.982   7.600 -1.0918  0.1910  0.5893
   51CHL1  H18B 3729   4.291   3.094   7.456 -1.3889  1.9631 -0.6334
   51CHL1  H18C 3730   4.298   3.158   7.631  0.2768  1.9071 -1.8922
   51CHL1   C12 3731   4.040   2.961   7.496 -0.2490  0.0351 -0.1026
   51CHL1  H12A 3732   4.079   2.865   7.536  0.2682  0.2842 -0.0121
   51CHL1  H12B 3733   3.930   2.961   7.510 -0.3547  0.1619 -0.8567
   51CHL1   C11 3734   4.069   2.964   7.347  0.2505  0.0091 -0.6259
   51CHL1  H11A 3735   4.178   2.945   7.337 -0.0580 -0.9005 -2.8466
   51CHL1  H11B 3736   4.019   2.875   7.303 -0.3205 -0.3488  0.7008
   51CHL1    C9 3737   4.031   3.102   7.274 -0.0518  0.0439 -0.5208
   51CHL1    H9 3738   3.920   3.099   7.279 -0.1502 -3.4360 -2.1322
   51CHL1   C10 3739   4.065   3.113   7.120 -0.1836  0.2120 -0.6793
   51CHL1   C19 3740   4.209   3.067   7.106  0.4606  0.3145  0.5982
   51CHL1  H19A 3741   4.230   2.960   7.127 -0.3046  0.2198  0.8904
   51CHL1  H19B 3742   4.254   3.070   7.005  0.5965  1.2956  0.6744
   51CHL1  H19C 3743   4.286   3.135   7.150  0.4286  1.6137 -1.2616
   51CHL1    C1 3744   3.956   3.031   7.043 -0.6503 -0.9130 -0.1368
   51CHL1   H1A 3745   3.977   2.923   7.058  1.6760 -0.6473 -1.0928
   51CHL1   H1B 3746   3.852   3.049   7.080 -0.1114  2.0625  0.1991
   51CHL1    C2 3747   3.961   3.040   6.888  0.5625 -0.0428 -0.5371
   51CHL1   H2A 3748   3.893   2.969   6.835  0.8681 -0.5042 -0.3211
   51CHL1   H2B 3749   4.065   3.008   6.866  0.0132 -0.3910 -2.9811
   51CHL1   C20 3750   4.109   3.015   7.834  0.9427  0.0507 -0.0775
   51CHL1   H20 3751   4.217   3.040   7.841  1.0300 -0.4390  0.3932
   51CHL1   C21 3752   4.083   2.859   7.817  0.1033 -0.3230  0.1481
   51CHL1  H21A 3753   4.105   2.800   7.909  1.3912 -4.3118 -2.4626
   51CHL1  H21B 3754   4.158   2.822   7.744  1.4913  1.6818  0.4493
   51CHL1  H21C 3755   3.976   2.844   7.793  0.1234 -0.3894  0.1012
   51CHL1   C22 3756   4.056   3.053   7.971 -0.3964 -0.4178  0.6523
   51CHL1  H22A 3757   4.057   3.163   7.987 -0.7553 -0.3037 -0.0452
   51CHL1  H22B 3758   3.951   3.020   7.988 -0.9309 -0.3245 -1.9451
   51CHL1   C23 3759   4.142   3.005   8.098  0.4021  0.1224  0.0982
   51CHL1  H23A 3760   4.140   2.894   8.093  0.1280 -0.1270  3.4689
   51CHL1  H23B 3761   4.249   3.031   8.079  0.9560 -2.4444 -0.7019
   51CHL1   C24 3762   4.093   3.069   8.227 -0.1193 -0.6650  0.1317
   51CHL1  H24A 3763   4.095   3.179   8.211 -0.9678  0.0022  3.7518
   51CHL1  H24B 3764   3.988   3.039   8.249 -0.3800 -0.0177 -0.1772
   51CHL1   C25 3765   4.187   3.053   8.341 -0.5613  0.8523  0.5627
   51CHL1   H25 3766   4.286   3.096   8.312  0.7655 -1.7527  0.8798
   51CHL1   C26 3767   4.132   3.130   8.456  0.0453 -0.2720 -0.0363
   51CHL1  H26A 3768   4.021   3.116   8.456 -0.1737  1.1069 -1.4627
   51CHL1  H26B 3769   4.180   3.112   8.555 -0.5304  0.4523  0.3971
   51CHL1  H26C 3770   4.167   3.234   8.435  0.4376 -0.6620 -1.4068
   51CHL1   C27 3771   4.211   2.899   8.375  0.2482 -0.2846 -0.7518
   51CHL1  H27A 3772   4.256   2.886   8.477 -0.9597 -2.6304 -0.4645
   51CHL1  H27B 3773   4.112   2.851   8.387  0.2840 -0.8662 -2.5565
   51CHL1  H27C 3774   4.265   2.843   8.296 -0.8093 -4.3543  1.1748
   52CHL1    C3 3775   6.701   4.199   7.018 -0.1890  0.2468 -0.5663
   52CHL1    H3 3776   6.641   4.108   6.994 -0.7114  0.0418  1.3370
   52CHL1    O3 3777   6.753   4.242   6.894 -0.6113 -0.3091 -0.5966
   52CHL1   H3' 3778   6.799   4.323   6.916  1.1635 -1.7826  1.5683
   52CHL1    C4 3779   6.602   4.293   7.079  0.2923 -1.2753  0.3082
   52CHL1   H4A 3780   6.650   4.393   7.087 -0.3435 -0.8784 -0.6689
   52CHL1   H4B 3781   6.524   4.306   7.002  0.3119  1.4632  0.6365
   52CHL1    C5 3782   6.557   4.260   7.218 -0.0186  0.4266 -0.3854
   52CHL1    C6 3783   6.428   4.257   7.246 -0.6988  0.3992  0.1961
   52CHL1    H6 3784   6.366   4.297   7.164  0.2316  1.7688  0.1302
   52CHL1    C7 3785   6.361   4.229   7.373 -0.1582  0.7892 -0.6153
   52CHL1   H7A 3786   6.283   4.306   7.395 -0.3944  0.7763 -1.3569
   52CHL1   H7B 3787   6.311   4.130   7.369  1.2732 -0.1720  2.4064
   52CHL1    C8 3788   6.464   4.227   7.487 -0.9765 -0.9543  0.6555
   52CHL1    H8 3789   6.494   4.331   7.513 -2.1824 -0.9296  2.0718
   52CHL1   C14 3790   6.407   4.168   7.609  0.7062  0.6879 -0.1125
   52CHL1   H14 3791   6.376   4.066   7.575 -0.9920  1.2644 -0.4208
   52CHL1   C15 3792   6.269   4.219   7.662 -0.4067 -0.1296 -0.3795
   52CHL1  H15A 3793   6.284   4.329   7.650  0.5650  0.2317  3.1262
   52CHL1  H15B 3794   6.186   4.179   7.601  0.4054  0.5086 -1.9636
   52CHL1   C16 3795   6.271   4.175   7.817 -0.0312 -0.4975  0.8916
   52CHL1  H16A 3796   6.280   4.273   7.867  1.8804  0.7256 -1.6435
   52CHL1  H16B 3797   6.181   4.119   7.852 -1.0503 -0.2719 -1.2088
   52CHL1   C17 3798   6.405   4.097   7.833 -0.2206  0.9973 -0.4612
   52CHL1   H17 3799   6.374   3.992   7.815  0.1145  1.1638 -2.1952
   52CHL1   C13 3800   6.498   4.149   7.734  0.3256  0.0147 -0.0131
   52CHL1   C18 3801   6.551   4.288   7.776  0.0368  0.9472  0.4171
   52CHL1  H18A 3802   6.631   4.328   7.710  0.8812 -0.9876  0.2294
   52CHL1  H18B 3803   6.475   4.369   7.781 -0.8223  0.4379 -2.4215
   52CHL1  H18C 3804   6.605   4.285   7.873  2.1375 -2.4445 -0.6939
   52CHL1   C12 3805   6.612   4.050   7.689  0.0020 -0.1204 -0.0330
   52CHL1  H12A 3806   6.687   4.028   7.768 -0.7353 -1.8302  0.2241
   52CHL1  H12B 3807   6.561   3.954   7.670  1.9422 -0.8623 -1.9430
   52CHL1   C11 3808   6.683   4.104   7.559  0.3305  0.6724 -0.3908
   52CHL1  H11A 3809   6.750   4.186   7.594  0.1093  0.2933  0.9724
   52CHL1  H11B 3810   6.748   4.023   7.520 -2.6194 -1.5294 -1.0479
   52CHL1    C9 3811   6.587   4.154   7.446 -0.3563  0.3945  0.6787
   52CHL1    H9 3812   6.549   4.054   7.414 -1.5101  0.5830  1.3942
   52CHL1   C10 3813   6.657   4.209   7.317 -0.6908  0.4274 -0.4657
   52CHL1   C19 3814   6.751   4.324   7.371 -0.1390 -0.6613  0.4338
   52CHL1  H19A 3815   6.834   4.290   7.437 -0.2746  1.0695  1.5662
   52CHL1  H19B 3816   6.786   4.375   7.279 -0.0131 -1.0246  0.2813
   52CHL1  H19C 3817   6.695   4.398   7.432 -0.0654  1.2840 -1.7323
   52CHL1    C1 3818   6.739   4.107   7.241 -0.4109  0.4811  0.1652
   52CHL1   H1A 3819   6.828   4.073   7.298  0.6628  1.1618 -1.0666
   52CHL1   H1B 3820   6.673   4.018   7.231 -0.8263  0.8068 -0.0008
   52CHL1    C2 3821   6.807   4.146   7.112  0.4974  0.6497  0.0838
   52CHL1   H2A 3822   6.880   4.077   7.065  0.1798  0.3739 -0.0178
   52CHL1   H2B 3823   6.866   4.231   7.153 -0.3492  0.1293  2.5553
   52CHL1   C20 3824   6.445   4.089   7.991 -0.0257 -0.4951  0.5398
   52CHL1   H20 3825   6.458   4.193   8.027  0.9405  0.6285 -2.7141
   52CHL1   C21 3826   6.581   4.018   8.006 -0.2887  0.0166 -0.4073
   52CHL1  H21A 3827   6.594   4.000   8.115  2.1210  3.1256 -0.0313
   52CHL1  H21B 3828   6.670   4.081   7.986  0.1273 -0.3137  0.3584
   52CHL1  H21C 3829   6.578   3.922   7.950  1.2864 -0.2144 -0.1284
   52CHL1   C22 3830   6.343   4.022   8.080  0.2786  0.0993 -0.2899
   52CHL1  H22A 3831   6.248   4.069   8.047  1.0372 -1.3969 -5.5663
   52CHL1  H22B 3832   6.347   3.915   8.052  1.7483  0.7142 -2.7404
   52CHL1   C23 3833   6.359   4.036   8.229  0.0649  0.7203 -0.6094
   52CHL1  H23A 3834   6.452   3.981   8.255 -0.6477 -0.4422 -0.4210
   52CHL1  H23B 3835   6.374   4.143   8.254 -2.5810  1.3780 -1.4858
   52CHL1   C24 3836   6.241   3.977   8.316 -0.6940  0.0621  0.0900
   52CHL1  H24A 3837   6.151   4.005   8.256  0.1113 -1.1064 -1.7723
   52CHL1  H24B 3838   6.236   3.867   8.327 -1.7749  0.2412  1.5991
   52CHL1   C25 3839   6.231   4.031   8.461  0.2387  0.2328 -0.4076
   52CHL1   H25 3840   6.336   4.023   8.496  0.5202  1.1560 -1.0043
   52CHL1   C26 3841   6.187   4.175   8.491 -0.2409 -0.9736  0.8974
   52CHL1  H26A 3842   6.258   4.227   8.423 -0.8992  1.7399  2.1471
   52CHL1  H26B 3843   6.085   4.196   8.453  0.0711 -1.2070 -0.1276
   52CHL1  H26C 3844   6.203   4.199   8.598  0.9255 -0.4228  0.6195
   52CHL1   C27 3845   6.139   3.937   8.543 -0.3641 -0.4605  0.4782
   52CHL1  H27A 3846   6.046   3.922   8.483 -0.2521  1.5887 -0.2800
   52CHL1  H27B 3847   6.206   3.853   8.568  2.4606  1.8191  1.0769
   52CHL1  H27C 3848   6.124   3.990   8.639  0.9592 -0.5770  0.7607
   53CHL1    C3 3849   1.938   1.488   7.042 -0.1994 -0.1422  0.2137
   53CHL1    H3 3850   2.022   1.556   7.017 -1.3500  1.3625  0.3576
   53CHL1    O3 3851   1.883   1.445   6.919  0.2430 -0.1130  0.3290
   53CHL1   H3' 3852   1.885   1.349   6.909  0.1168  0.0056 -1.0629
   53CHL1    C4 3853   1.991   1.359   7.114 -0.2105 -0.1974  0.7603
   53CHL1   H4A 3854   1.918   1.276   7.100 -1.1262  0.7861 -0.6681
   53CHL1   H4B 3855   2.075   1.328   7.049 -1.3727  1.0893 -1.4707
   53CHL1    C5 3856   2.021   1.359   7.259  0.2137  0.3876  0.3172
   53CHL1    C6 3857   2.138   1.312   7.305  0.1131 -0.4180 -0.1169
   53CHL1    H6 3858   2.212   1.260   7.242  0.1977 -0.7962  0.2884
   53CHL1    C7 3859   2.184   1.308   7.447 -1.0028 -0.1839  0.1104
   53CHL1   H7A 3860   2.236   1.214   7.476 -0.8529  0.1026  0.8117
   53CHL1   H7B 3861   2.266   1.382   7.465 -0.5917 -0.4796 -0.5113
   53CHL1    C8 3862   2.070   1.341   7.550 -0.3607 -0.1868  0.4898
   53CHL1    H8 3863   2.010   1.247   7.551  2.3634 -2.5547 -5.9360
   53CHL1   C14 3864   2.132   1.392   7.676 -0.0634  0.2380  0.0400
   53CHL1   H14 3865   2.194   1.481   7.653 -0.8774  0.5514 -1.0229
   53CHL1   C15 3866   2.225   1.295   7.751 -0.2969 -0.2412  0.0139
   53CHL1  H15A 3867   2.187   1.191   7.751  1.1231 -0.7946 -0.7909
   53CHL1  H15B 3868   2.317   1.283   7.689 -1.1581 -1.9693 -0.9946
   53CHL1   C16 3869   2.251   1.349   7.892  0.2577 -0.2509 -0.5747
   53CHL1  H16A 3870   2.235   1.266   7.963 -0.2869 -0.7275 -1.2367
   53CHL1  H16B 3871   2.356   1.383   7.909  0.0034 -0.3164  1.3192
   53CHL1   C17 3872   2.144   1.463   7.901  0.1252  0.0136 -0.0219
   53CHL1   H17 3873   2.205   1.553   7.878  2.5418 -1.4674  0.2203
   53CHL1   C13 3874   2.037   1.441   7.784  0.1830 -0.2190 -0.2617
   53CHL1   C18 3875   1.948   1.334   7.831  0.3244  0.3205 -0.1517
   53CHL1  H18A 3876   1.997   1.240   7.864 -0.9646 -1.1227 -2.1259
   53CHL1  H18B 3877   1.877   1.353   7.915  1.9208 -0.6307  1.4908
   53CHL1  H18C 3878   1.886   1.297   7.746 -0.2054  0.1679  0.2965
   53CHL1   C12 3879   1.962   1.557   7.723 -0.3895 -0.4269  0.0494
   53CHL1  H12A 3880   1.888   1.588   7.799 -0.2300 -0.1518  0.0926
   53CHL1  H12B 3881   2.038   1.636   7.703 -1.0225  0.6596  1.7578
   53CHL1   C11 3882   1.880   1.522   7.598 -0.1257 -0.6780  0.3196
   53CHL1  H11A 3883   1.800   1.450   7.625  0.3754 -2.6673 -2.9752
   53CHL1  H11B 3884   1.832   1.615   7.561  0.3131 -0.9202 -0.9312
   53CHL1    C9 3885   1.975   1.458   7.490  0.0147 -0.5818 -0.2552
   53CHL1    H9 3886   2.047   1.541   7.471 -0.9450  0.6601  1.2511
   53CHL1   C10 3887   1.913   1.427   7.351 -0.0110  0.0959  0.5029
   53CHL1   C19 3888   1.800   1.329   7.363  0.4689  0.2477  0.4845
   53CHL1  H19A 3889   1.832   1.237   7.416  1.9532  1.0432  1.0303
   53CHL1  H19B 3890   1.717   1.379   7.416  1.1407  1.0365  0.8132
   53CHL1  H19C 3891   1.768   1.295   7.262 -1.1760  0.9618  0.7324
   53CHL1    C1 3892   1.875   1.559   7.282 -0.6011  0.2785 -0.1828
   53CHL1   H1A 3893   1.795   1.609   7.340 -0.0062 -0.0716  0.9640
   53CHL1   H1B 3894   1.963   1.626   7.284 -0.2977  0.0613 -2.5532
   53CHL1    C2 3895   1.829   1.548   7.131 -0.0972  0.1514 -0.0435
   53CHL1   H2A 3896   1.794   1.646   7.091 -0.3934 -0.7776 -2.1510
   53CHL1   H2B 3897   1.744   1.478   7.124 -0.1337  0.3975 -4.3361
   53CHL1   C20 3898   2.093   1.481   8.048  0.2191  0.1978  0.2470
   53CHL1   H20 3899   2.025   1.394   8.064  1.3392 -0.5454  1.1212
   53CHL1   C21 3900   2.015   1.615   8.052 -0.1432 -0.4776 -0.0163
   53CHL1  H21A 3901   1.929   1.623   7.982 -0.7949 -0.3630  0.7855
   53CHL1  H21B 3902   2.083   1.700   8.029  1.1071 -0.4815  3.1775
   53CHL1  H21C 3903   1.988   1.638   8.157 -2.2794  0.6459 -0.7436
   53CHL1   C22 3904   2.200   1.455   8.161  0.6609  0.3946  0.8115
   53CHL1  H22A 3905   2.257   1.362   8.142  0.9041  0.6100  0.4722
   53CHL1  H22B 3906   2.274   1.538   8.158 -0.8774  1.8330  1.2177
   53CHL1   C23 3907   2.125   1.442   8.295  0.1255 -0.4079 -1.1340
   53CHL1  H23A 3908   2.080   1.540   8.321 -0.6605 -1.0171 -0.1152
   53CHL1  H23B 3909   2.042   1.368   8.285 -1.0450  0.4769  1.2852
   53CHL1   C24 3910   2.213   1.393   8.414  0.2181 -0.5549  0.1161
   53CHL1  H24A 3911   2.268   1.302   8.385 -0.5829 -0.9366 -0.2460
   53CHL1  H24B 3912   2.284   1.477   8.434 -0.0584 -0.5033  0.9227
   53CHL1   C25 3913   2.141   1.364   8.547 -0.2579  0.8301  0.4588
   53CHL1   H25 3914   2.071   1.282   8.520  3.3840 -3.2298  2.3303
   53CHL1   C26 3915   2.230   1.289   8.650 -0.2367 -0.0107 -0.1009
   53CHL1  H26A 3916   2.255   1.189   8.609  0.4790  0.9929 -2.2314
   53CHL1  H26B 3917   2.321   1.351   8.666  0.8067 -1.0959 -1.5483
   53CHL1  H26C 3918   2.184   1.282   8.751  0.8234 -1.9556  0.2919
   53CHL1   C27 3919   2.071   1.489   8.598  0.4910  0.0341  0.0003
   53CHL1  H27A 3920   1.981   1.505   8.536  0.9184 -0.1282 -0.6706
   53CHL1  H27B 3921   2.032   1.472   8.701  0.7993 -0.2124  0.0797
   53CHL1  H27C 3922   2.133   1.580   8.588  0.1881  0.7280  3.2249
   54CHL1    C3 3923   3.310   2.091   7.064 -0.6212 -0.2293  0.2335
   54CHL1    H3 3924   3.415   2.055   7.070 -0.1233  0.9817 -0.6911
   54CHL1    O3 3925   3.265   2.065   6.935  0.2218  0.7088  0.1243
   54CHL1   H3' 3926   3.281   2.140   6.877  1.9262  0.6886  0.5310
   54CHL1    C4 3927   3.229   1.996   7.159 -0.7665 -0.8992  0.1151
   54CHL1   H4A 3928   3.127   2.015   7.120 -0.2579  0.7063 -0.4970
   54CHL1   H4B 3929   3.257   1.890   7.139  0.8924 -0.7148  1.2448
   54CHL1    C5 3930   3.243   2.040   7.303 -0.2258  0.2229  0.1800
   54CHL1    C6 3931   3.275   1.943   7.399 -0.6349  0.0179 -0.3896
   54CHL1    H6 3932   3.294   1.840   7.366  1.0163  0.6602 -1.6256
   54CHL1    C7 3933   3.266   1.963   7.550  0.5932  0.1403  0.3120
   54CHL1   H7A 3934   3.174   1.907   7.579 -1.7832  3.9839  0.9246
   54CHL1   H7B 3935   3.355   1.924   7.604 -0.1457 -1.4334  0.4443
   54CHL1    C8 3936   3.222   2.104   7.588  0.3667 -0.3176 -0.2052
   54CHL1    H8 3937   3.112   2.105   7.573  0.1606  0.8763  1.1872
   54CHL1   C14 3938   3.251   2.137   7.734  0.2476 -0.8382 -0.4242
   54CHL1   H14 3939   3.362   2.131   7.736  0.1675 -4.2833  1.2325
   54CHL1   C15 3940   3.206   2.050   7.850  0.1773  0.1988 -0.9139
   54CHL1  H15A 3941   3.096   2.032   7.853 -0.0038  1.4254  0.3781
   54CHL1  H15B 3942   3.271   1.960   7.841  0.1148  0.1536 -0.9098
   54CHL1   C16 3943   3.248   2.129   7.974 -0.7299 -0.7499 -0.3174
   54CHL1  H16A 3944   3.171   2.114   8.052  0.0646 -0.7472  0.4723
   54CHL1  H16B 3945   3.344   2.105   8.023 -0.7654 -2.1178 -0.8794
   54CHL1   C17 3946   3.262   2.279   7.925 -0.7231  0.1900  0.6005
   54CHL1   H17 3947   3.371   2.300   7.916 -1.1779  3.0341  0.6182
   54CHL1   C13 3948   3.214   2.288   7.778 -0.7065 -0.1675 -0.8686
   54CHL1   C18 3949   3.063   2.319   7.773  1.3410 -0.1608 -0.1892
   54CHL1  H18A 3950   2.999   2.266   7.846 -0.5989 -0.5572 -2.0833
   54CHL1  H18B 3951   3.057   2.428   7.797  0.2705 -0.1963 -0.2347
   54CHL1  H18C 3952   3.019   2.305   7.672  1.5901 -0.9679 -0.1900
   54CHL1   C12 3953   3.297   2.379   7.679  0.0773 -0.0960  0.3579
   54CHL1  H12A 3954   3.293   2.488   7.700  0.5299 -0.0071 -0.0119
   54CHL1  H12B 3955   3.407   2.359   7.679 -0.0250 -0.6866 -0.0868
   54CHL1   C11 3956   3.243   2.358   7.531 -0.6418  0.1916 -0.6853
   54CHL1  H11A 3957   3.134   2.381   7.523 -1.2935 -2.5950 -0.8602
   54CHL1  H11B 3958   3.293   2.427   7.461 -0.0530  0.8069  0.3105
   54CHL1    C9 3959   3.276   2.216   7.485 -0.4955 -0.2832 -0.6799
   54CHL1    H9 3960   3.386   2.206   7.481 -0.3121  0.7782  0.9685
   54CHL1   C10 3961   3.229   2.198   7.339  0.5973 -0.0192  1.1791
   54CHL1   C19 3962   3.077   2.244   7.311  0.1632  0.1033 -0.9793
   54CHL1  H19A 3963   3.029   2.186   7.229 -1.7319  1.9423 -1.2632
   54CHL1  H19B 3964   3.017   2.228   7.403 -1.2024  0.8711 -1.7009
   54CHL1  H19C 3965   3.081   2.352   7.285  1.2797  0.0969 -0.8622
   54CHL1    C1 3966   3.330   2.274   7.238  0.6104 -0.4634 -0.4913
   54CHL1   H1A 3967   3.318   2.381   7.264  0.0382 -0.2229 -1.6721
   54CHL1   H1B 3968   3.434   2.237   7.248  1.1060  0.2119 -2.6733
   54CHL1    C2 3969   3.298   2.240   7.087 -0.7122 -0.3142 -0.5390
   54CHL1   H2A 3970   3.367   2.296   7.020  0.0568 -0.9069 -0.2551
   54CHL1   H2B 3971   3.198   2.279   7.058 -0.5237 -0.1174 -0.9260
   54CHL1   C20 3972   3.208   2.387   8.030  0.1506 -0.2150 -0.5207
   54CHL1   H20 3973   3.097   2.393   8.025 -0.2094  1.3716  4.3013
   54CHL1   C21 3974   3.275   2.525   7.997 -0.2984 -0.1423 -0.0415
   54CHL1  H21A 3975   3.385   2.524   8.007 -0.1397 -0.9500 -1.6373
   54CHL1  H21B 3976   3.237   2.612   8.056  0.3025 -0.0832  0.2659
   54CHL1  H21C 3977   3.253   2.560   7.894  0.8596  0.3941 -0.1238
   54CHL1   C22 3978   3.245   2.342   8.174 -0.1679  0.2435  0.9226
   54CHL1  H22A 3979   3.203   2.244   8.204  3.0349 -2.7073 -3.1423
   54CHL1  H22B 3980   3.353   2.320   8.183 -0.9336 -3.8103  1.9946
   54CHL1   C23 3981   3.224   2.446   8.286 -0.6573  0.1286  0.6025
   54CHL1  H23A 3982   3.271   2.543   8.258  2.7811 -1.7470 -0.6900
   54CHL1  H23B 3983   3.116   2.469   8.296 -1.1941 -1.4314 -1.1175
   54CHL1   C24 3984   3.293   2.415   8.416 -0.2614  0.0110  0.5389
   54CHL1  H24A 3985   3.397   2.401   8.379 -0.8612  0.6686 -1.5017
   54CHL1  H24B 3986   3.293   2.501   8.486 -0.0537  0.1171  0.4114
   54CHL1   C25 3987   3.244   2.291   8.483  0.1370 -0.0791  0.4225
   54CHL1   H25 3988   3.265   2.216   8.404  2.0377  1.5617 -0.7308
   54CHL1   C26 3989   3.337   2.254   8.600 -0.7040  1.1153  0.0208
   54CHL1  H26A 3990   3.443   2.269   8.572 -0.5069 -1.1698 -0.6151
   54CHL1  H26B 3991   3.313   2.323   8.684  2.7182  1.7186  0.6651
   54CHL1  H26C 3992   3.335   2.144   8.618  2.1005  0.9215 -0.3483
   54CHL1   C27 3993   3.099   2.284   8.511  0.1045  0.5740  0.0957
   54CHL1  H27A 3994   3.081   2.346   8.601  0.2472 -0.2803  0.7328
   54CHL1  H27B 3995   3.037   2.306   8.422 -0.6032 -1.0416  0.1361
   54CHL1  H27C 3996   3.074   2.177   8.534 -1.2134  0.6061 -1.0438
   55CHL1    C3 3997   1.652   4.243   7.046  0.8578  0.4550  0.0945
   55CHL1    H3 3998   1.543   4.262   7.041  0.7751 -0.0038  0.1019
   55CHL1    O3 3999   1.690   4.219   6.908  0.1713  0.5085 -0.6705
   55CHL1   H3' 4000   1.631   4.148   6.881 -0.9066  1.4244 -0.8244
   55CHL1    C4 4001   1.740   4.356   7.089 -0.0803 -0.3223  0.4882
   55CHL1   H4A 4002   1.848   4.333   7.075 -0.6202 -2.0336 -1.4562
   55CHL1   H4B 4003   1.733   4.444   7.021  3.2840 -1.0285 -0.9952
   55CHL1    C5 4004   1.699   4.394   7.229  0.4179 -0.0103  0.3004
   55CHL1    C6 4005   1.650   4.515   7.263  0.3094  0.0385  0.1198
   55CHL1    H6 4006   1.631   4.586   7.180 -0.3746  1.4275  1.4184
   55CHL1    C7 4007   1.618   4.563   7.396 -0.1097  0.0351 -0.2738
   55CHL1   H7A 4008   1.638   4.673   7.395 -0.6969  0.1473 -0.7041
   55CHL1   H7B 4009   1.510   4.566   7.424  0.0579  2.3204  0.3643
   55CHL1    C8 4010   1.701   4.479   7.490  0.1591 -0.3406 -0.1262
   55CHL1    H8 4011   1.808   4.501   7.473 -0.1332  1.9257  0.5804
   55CHL1   C14 4012   1.676   4.514   7.638 -0.0076  0.0706 -0.4191
   55CHL1   H14 4013   1.570   4.485   7.656  0.1302  0.2735  0.7866
   55CHL1   C15 4014   1.677   4.661   7.674 -0.6233 -0.0188 -0.7528
   55CHL1  H15A 4015   1.756   4.710   7.613 -0.3832  1.2731  0.5200
   55CHL1  H15B 4016   1.583   4.718   7.656 -0.1911  2.3203  3.1272
   55CHL1   C16 4017   1.704   4.660   7.822 -0.0206 -0.9179  0.3057
   55CHL1  H16A 4018   1.794   4.722   7.837 -0.5075 -0.0679 -0.1851
   55CHL1  H16B 4019   1.623   4.709   7.881 -2.1396  1.4241 -4.0520
   55CHL1   C17 4020   1.725   4.508   7.865 -0.2107 -0.7047 -0.0914
   55CHL1   H17 4021   1.626   4.468   7.897  0.4089 -0.9338  1.6591
   55CHL1   C13 4022   1.759   4.436   7.738 -0.3318 -0.0303 -0.0804
   55CHL1   C18 4023   1.913   4.465   7.713  0.2327  0.3675 -0.0571
   55CHL1  H18A 4024   1.942   4.431   7.611 -1.0272  0.1816 -0.3697
   55CHL1  H18B 4025   1.938   4.573   7.708  1.6308  0.0386 -0.5198
   55CHL1  H18C 4026   1.982   4.408   7.779  0.4400  0.9317  0.2199
   55CHL1   C12 4027   1.719   4.288   7.724  0.6037 -0.2667  0.2545
   55CHL1  H12A 4028   1.754   4.219   7.804  0.5662  1.2499  1.6298
   55CHL1  H12B 4029   1.608   4.286   7.713  0.4505 -2.8805  1.5250
   55CHL1   C11 4030   1.753   4.235   7.579  0.0848  0.1746  0.0554
   55CHL1  H11A 4031   1.864   4.243   7.576  0.0246  0.8620 -1.5377
   55CHL1  H11B 4032   1.732   4.126   7.570 -1.7595  0.4993  0.1002
   55CHL1    C9 4033   1.685   4.325   7.475  0.1910  0.9177  0.2060
   55CHL1    H9 4034   1.578   4.303   7.493  0.5447  0.9434  2.7648
   55CHL1   C10 4035   1.729   4.282   7.329  0.0038  0.4375  0.1096
   55CHL1   C19 4036   1.885   4.265   7.327 -0.6226  0.2379 -0.0109
   55CHL1  H19A 4037   1.923   4.245   7.225 -0.5488 -0.6093  0.1826
   55CHL1  H19B 4038   1.940   4.341   7.387  1.2663 -0.0041 -1.3540
   55CHL1  H19C 4039   1.911   4.174   7.384  1.7001  0.5050 -0.5472
   55CHL1    C1 4040   1.655   4.146   7.282 -0.1418 -0.2183 -0.2549
   55CHL1   H1A 4041   1.690   4.055   7.333 -0.4193 -1.1251 -1.6214
   55CHL1   H1B 4042   1.546   4.152   7.307 -0.7401 -1.2912 -2.3448
   55CHL1    C2 4043   1.670   4.111   7.134  0.1714  0.5813  0.6308
   55CHL1   H2A 4044   1.599   4.030   7.108 -0.8080  1.3811  0.7473
   55CHL1   H2B 4045   1.770   4.073   7.105 -0.2691  0.2246 -0.4797
   55CHL1   C20 4046   1.826   4.497   7.982  0.4476  0.3108 -0.3956
   55CHL1   H20 4047   1.926   4.539   7.959  0.3187  0.5110 -0.5982
   55CHL1   C21 4048   1.837   4.351   8.029  0.9673  0.6428 -0.3140
   55CHL1  H21A 4049   1.879   4.286   7.949 -0.7622 -0.3026 -0.4837
   55CHL1  H21B 4050   1.732   4.329   8.054  0.7439  2.3640  0.4492
   55CHL1  H21C 4051   1.893   4.350   8.125  0.6930 -0.0590 -0.1575
   55CHL1   C22 4052   1.787   4.589   8.101  0.0393  0.2377 -0.6647
   55CHL1  H22A 4053   1.844   4.549   8.188  2.1965  1.3496 -1.4759
   55CHL1  H22B 4054   1.832   4.691   8.108  1.1811 -0.1673 -1.7603
   55CHL1   C23 4055   1.632   4.580   8.143  0.6077 -0.5259  0.2648
   55CHL1  H23A 4056   1.557   4.601   8.063  1.2580  1.5866  0.1393
   55CHL1  H23B 4057   1.619   4.479   8.188 -0.3022 -0.0897  1.0225
   55CHL1   C24 4058   1.574   4.681   8.259 -0.7892  0.2670  0.0144
   55CHL1  H24A 4059   1.622   4.649   8.354 -2.9814 -1.8516  0.5160
   55CHL1  H24B 4060   1.604   4.787   8.246  0.0996  0.2824  1.8878
   55CHL1   C25 4061   1.424   4.681   8.288  0.3224  1.1600  0.2107
   55CHL1   H25 4062   1.395   4.575   8.305 -0.5044  1.3262 -0.0928
   55CHL1   C26 4063   1.393   4.765   8.409 -0.4040  0.1032 -1.5167
   55CHL1  H26A 4064   1.397   4.875   8.394 -2.1898  0.7535  1.7487
   55CHL1  H26B 4065   1.293   4.740   8.452  1.3478 -1.1278  2.2198
   55CHL1  H26C 4066   1.467   4.739   8.488  0.2635  1.7684 -1.5537
   55CHL1   C27 4067   1.338   4.721   8.162  0.0964 -0.4269  0.5790
   55CHL1  H27A 4068   1.352   4.652   8.076  1.3784  1.8736 -1.1719
   55CHL1  H27B 4069   1.232   4.723   8.195 -0.2638  1.3140 -0.5634
   55CHL1  H27C 4070   1.363   4.825   8.131  0.8934 -1.5054 -2.7936
   56CHL1    C3 4071   1.464   1.895   6.898  0.2305 -0.0643  0.2738
   56CHL1    H3 4072   1.557   1.834   6.895  0.2527 -0.0471  0.6044
   56CHL1    O3 4073   1.398   1.911   6.774  0.0700  0.0689  0.0209
   56CHL1   H3' 4074   1.366   1.821   6.764  0.4742 -0.4352  2.5389
   56CHL1    C4 4075   1.360   1.813   6.992  0.6237 -0.1323  0.1432
   56CHL1   H4A 4076   1.271   1.879   6.987 -0.8222 -1.8430  1.8080
   56CHL1   H4B 4077   1.352   1.717   6.936  1.2248 -0.6068  0.8551
   56CHL1    C5 4078   1.402   1.811   7.132 -0.3483  0.0378  0.3172
   56CHL1    C6 4079   1.420   1.694   7.200  0.4219 -0.0720 -0.1644
   56CHL1    H6 4080   1.408   1.596   7.151  1.8622 -2.4933  3.8816
   56CHL1    C7 4081   1.473   1.686   7.342 -0.4751  0.0203 -0.5377
   56CHL1   H7A 4082   1.416   1.611   7.402  0.0568  0.7908  0.9928
   56CHL1   H7B 4083   1.576   1.645   7.341  0.4877  2.1492  1.1342
   56CHL1    C8 4084   1.454   1.815   7.415  0.1460 -0.4811 -0.4537
   56CHL1    H8 4085   1.345   1.832   7.418 -0.0898 -1.3786 -2.5477
   56CHL1   C14 4086   1.515   1.804   7.554 -0.1743  0.6730  0.9304
   56CHL1   H14 4087   1.622   1.782   7.534 -0.8048 -0.5264 -1.5253
   56CHL1   C15 4088   1.480   1.675   7.636 -0.1697  0.1549 -0.3816
   56CHL1  H15A 4089   1.371   1.654   7.646  0.3528 -2.5330  0.3511
   56CHL1  H15B 4090   1.527   1.581   7.601 -0.4877  0.8961 -3.0277
   56CHL1   C16 4091   1.517   1.718   7.783 -0.4548 -0.7439 -0.2456
   56CHL1  H16A 4092   1.426   1.707   7.846 -1.0576  0.6283 -0.8488
   56CHL1  H16B 4093   1.606   1.664   7.824  1.7994  2.9580  0.2284
   56CHL1   C17 4094   1.563   1.870   7.769  0.0442  0.1778  0.3716
   56CHL1   H17 4095   1.668   1.858   7.735 -0.0270  0.3723  0.0822
   56CHL1   C13 4096   1.499   1.924   7.642  0.3504  0.1204 -1.5399
   56CHL1   C18 4097   1.347   1.955   7.673 -0.2738 -0.2115 -0.4820
   56CHL1  H18A 4098   1.294   1.867   7.717 -0.5776  0.0422 -0.3392
   56CHL1  H18B 4099   1.341   2.039   7.746  1.1753  0.3293 -0.9636
   56CHL1  H18C 4100   1.296   1.972   7.576  0.8910 -0.7921 -1.2142
   56CHL1   C12 4101   1.572   2.040   7.574  0.5324  0.2754  0.0994
   56CHL1  H12A 4102   1.564   2.137   7.627  0.0483  1.2336 -1.6335
   56CHL1  H12B 4103   1.678   2.010   7.559  0.3870 -1.5294  2.2547
   56CHL1   C11 4104   1.516   2.061   7.428  0.6592  0.2284  0.1399
   56CHL1  H11A 4105   1.413   2.097   7.450  0.5095  0.2626 -0.6086
   56CHL1  H11B 4106   1.570   2.146   7.382 -1.2885  0.7188 -1.3922
   56CHL1    C9 4107   1.511   1.933   7.335  0.2378  0.1473 -0.6084
   56CHL1    H9 4108   1.616   1.903   7.318  0.3660 -0.4638  1.0379
   56CHL1   C10 4109   1.434   1.951   7.198  0.2224  0.2560 -0.9477
   56CHL1   C19 4110   1.292   2.017   7.223 -0.3232 -0.2866  1.1109
   56CHL1  H19A 4111   1.249   2.041   7.123  1.2097  0.6475  0.6292
   56CHL1  H19B 4112   1.224   1.940   7.264 -1.2979  0.7593  1.4974
   56CHL1  H19C 4113   1.297   2.105   7.291 -0.3570 -0.7729  1.7490
   56CHL1    C1 4114   1.530   2.028   7.096  0.4292  0.0946 -0.6442
   56CHL1   H1A 4115   1.553   2.129   7.134  1.7435 -0.7249  0.8671
   56CHL1   H1B 4116   1.629   1.976   7.096 -0.0254 -0.8024 -1.3747
   56CHL1    C2 4117   1.474   2.036   6.959 -0.2101 -0.3407  0.0479
   56CHL1   H2A 4118   1.544   2.099   6.899  0.3406 -0.5920  0.4185
   56CHL1   H2B 4119   1.387   2.105   6.959 -0.2906 -0.4345  0.7057
   56CHL1   C20 4120   1.563   1.937   7.903  0.2757  0.2862  0.5563
   56CHL1   H20 4121   1.457   1.941   7.936  0.1250  2.1492 -0.0285
   56CHL1   C21 4122   1.606   2.084   7.893 -0.7686  0.1752  0.1485
   56CHL1  H21A 4123   1.695   2.073   7.828  0.9901 -3.9929  2.8546
   56CHL1  H21B 4124   1.666   2.094   7.986  0.4743 -2.1337 -0.3352
   56CHL1  H21C 4125   1.527   2.156   7.863 -0.7956  1.0164  2.0921
   56CHL1   C22 4126   1.653   1.859   8.005 -1.3223  0.7811 -0.3231
   56CHL1  H22A 4127   1.644   1.748   8.001  0.3644  0.4532  2.6756
   56CHL1  H22B 4128   1.758   1.887   7.981 -0.2235 -1.8360  1.1039
   56CHL1   C23 4129   1.635   1.896   8.151 -0.7027 -0.2287 -0.4283
   56CHL1  H23A 4130   1.655   2.005   8.148 -0.7509 -0.2444 -1.8308
   56CHL1  H23B 4131   1.529   1.884   8.182 -0.6766  1.2864  0.3526
   56CHL1   C24 4132   1.734   1.817   8.247  0.3336  0.3957  0.5980
   56CHL1  H24A 4133   1.706   1.709   8.241  0.8852  0.3190 -1.1000
   56CHL1  H24B 4134   1.835   1.836   8.204  0.3497 -2.0052 -0.5950
   56CHL1   C25 4135   1.725   1.863   8.388  0.0959  0.1322 -0.0394
   56CHL1   H25 4136   1.621   1.853   8.426 -1.3597  0.5821 -3.5553
   56CHL1   C26 4137   1.822   1.796   8.488 -0.6687 -0.1970  0.4783
   56CHL1  H26A 4138   1.797   1.690   8.510 -0.2564 -0.3969 -0.0028
   56CHL1  H26B 4139   1.815   1.849   8.586 -1.2168  0.5828  0.0312
   56CHL1  H26C 4140   1.928   1.794   8.454 -1.4987  2.0642 -2.6440
   56CHL1   C27 4141   1.744   2.013   8.402 -0.1864 -0.2304  0.2068
   56CHL1  H27A 4142   1.766   2.044   8.506 -0.9962  1.1441 -0.0044
   56CHL1  H27B 4143   1.818   2.052   8.329  0.6182 -0.1854  1.0365
   56CHL1  H27C 4144   1.646   2.061   8.380 -0.0076 -0.2668 -0.6957
   57SAPC     N 4145   1.883   1.092  10.928  0.0264 -0.0535  0.0729
   57SAPC   C12 4146   1.892   1.218  10.844  0.7555  0.0952  0.1104
   57SAPC  H12A 4147   1.862   1.202  10.742  1.4670 -1.2079  0.0808
   57SAPC  H12B 4148   1.995   1.239  10.820  0.2320  2.3673 -0.3274
   57SAPC   C13 4149   1.741   1.068  10.968  0.1027 -0.1798  0.0157
   57SAPC  H13A 4150   1.684   1.059  10.877  3.0908  0.5917 -2.0946
   57SAPC  H13B 4151   1.734   0.982  11.033  0.9267  1.0373  1.8191
   57SAPC  H13C 4152   1.704   1.161  11.008 -1.3835 -0.2078 -1.2508
   57SAPC   C14 4153   1.934   0.971  10.853  0.1719 -0.6166 -0.0660
   57SAPC  H14A 4154   1.944   0.892  10.926  0.0258  1.1939  2.0127
   57SAPC  H14B 4155   1.863   0.950  10.775 -0.0605  1.2598 -0.4008
   57SAPC  H14C 4156   2.031   1.002  10.815 -0.0567 -0.9253 -0.9256
   57SAPC   C15 4157   1.967   1.107  11.049 -0.5637 -0.4828 -0.2734
   57SAPC  H15A 4158   1.952   1.201  11.100  0.5786 -0.1526 -0.5237
   57SAPC  H15B 4159   1.947   1.030  11.122  1.0123 -0.7533 -0.1008
   57SAPC  H15C 4160   2.071   1.108  11.019 -0.7745 -1.1098 -1.0596
   57SAPC   C11 4161   1.851   1.351  10.909 -0.0563  0.3701  0.3060
   57SAPC  H11A 4162   1.863   1.350  11.020 -2.9960 -4.4874  0.8757
   57SAPC  H11B 4163   1.742   1.350  10.886  0.4547 -0.3684 -2.4089
   57SAPC     P 4164   2.067   1.484  10.850  0.0683 -0.0181  0.1455
   57SAPC   O13 4165   2.082   1.593  10.943 -0.0566 -1.0590  0.3336
   57SAPC   O14 4166   2.133   1.364  10.887 -0.6348  0.2299  0.2510
   57SAPC   O12 4167   1.911   1.462  10.844 -0.2808  0.1076  0.9264
   57SAPC   O11 4168   2.108   1.532  10.708 -0.5869  0.3137 -0.0722
   57SAPC    C1 4169   2.044   1.460  10.593  0.3916 -0.0024  0.1835
   57SAPC    HA 4170   2.117   1.441  10.512  0.5639  0.0453  0.3280
   57SAPC    HB 4171   2.000   1.361  10.618  0.7955 -0.2085  0.0871
   57SAPC    C2 4172   1.922   1.537  10.547  0.7659 -0.6160  0.1883
   57SAPC    HS 4173   1.839   1.508  10.615  0.6950  0.4550  0.5873
   57SAPC   O21 4174   1.911   1.529  10.405  0.1671  0.0158 -0.6134
   57SAPC   C21 4175   1.849   1.425  10.371  0.3822  0.5718  0.3702
   57SAPC   O22 4176   1.793   1.344  10.445  0.1392  0.3379 -0.0225
   57SAPC   C22 4177   1.843   1.416  10.220 -0.6458  0.2627  0.2487
   57SAPC   H2R 4178   1.746   1.440  10.173  0.3280 -3.4692 -4.5113
   57SAPC   H2S 4179   1.927   1.473  10.174  2.5977 -3.9672  0.2681
   57SAPC    C3 4180   1.934   1.693  10.574  0.3019  0.5462  0.4676
   57SAPC    HX 4181   2.038   1.720  10.547 -0.3570  1.8030 -1.0252
   57SAPC    HY 4182   1.928   1.709  10.683 -1.7434  0.9011  0.3434
   57SAPC   O31 4183   1.845   1.781  10.496 -0.1994 -0.5269 -0.3398
   57SAPC   C31 4184   1.718   1.777  10.522 -0.2825 -0.2041 -0.3364
   57SAPC   O32 4185   1.662   1.733  10.617 -0.1449  0.0549  0.1213
   57SAPC   C32 4186   1.648   1.858  10.409 -0.4453 -0.1694  0.1125
   57SAPC   H2X 4187   1.705   1.863  10.314 -1.3780  2.3253 -0.3732
   57SAPC   H2Y 4188   1.662   1.962  10.445  2.2403  0.1845 -1.6404
   57SAPC   C23 4189   1.864   1.269  10.163  0.1560 -0.1386 -0.5136
   57SAPC   H3R 4190   1.796   1.202  10.220  0.4505 -0.8552 -0.9945
   57SAPC   H3S 4191   1.959   1.222  10.198  0.5555  0.3158 -0.9759
   57SAPC   C24 4192   1.856   1.251  10.017 -0.1192  0.0353  0.0339
   57SAPC   H4R 4193   1.957   1.269   9.974  1.4665 -2.2451  2.4571
   57SAPC   H4S 4194   1.780   1.321   9.978 -1.3134 -0.3796  1.5275
   57SAPC   C25 4195   1.822   1.109   9.981  0.4349 -0.0518 -0.2869
   57SAPC   H5R 4196   1.718   1.077   9.999  0.4391 -0.7649 -1.4209
   57SAPC   C26 4197   1.901   1.020   9.925  0.0189 -0.4388 -0.5656
   57SAPC   H6R 4198   1.858   0.926   9.887  2.3778 -1.5488 -0.6798
   57SAPC   C27 4199   2.044   1.043   9.885  0.2088 -0.2948  0.3189
   57SAPC   H7R 4200   2.104   1.050   9.978  2.0027 -0.2869 -0.7851
   57SAPC   H7S 4201   2.048   1.139   9.830  1.7997 -0.4039  0.2045
   57SAPC   C28 4202   2.095   0.926   9.801  0.2650 -0.4825 -0.2488
   57SAPC   H8R 4203   2.097   0.821   9.834 -0.4428 -0.3814  0.1357
   57SAPC   C29 4204   2.151   0.938   9.676  0.1519  0.5822  0.0105
   57SAPC   H9R 4205   2.201   0.851   9.630  5.0213  2.9888  0.1518
   57SAPC  C210 4206   2.157   1.051   9.582 -0.0819  0.7756  0.4248
   57SAPC  H10R 4207   2.247   1.039   9.519 -0.9069 -2.7341 -0.2783
   57SAPC  H10S 4208   2.178   1.146   9.636 -0.9264 -0.3206  2.8431
   57SAPC  C211 4209   2.040   1.055   9.484  0.0651  0.2612  0.2290
   57SAPC  H11R 4210   2.001   0.956   9.457 -0.1276  0.3436  0.2006
   57SAPC  C212 4211   1.998   1.165   9.417  0.7618 -0.6434 -0.7702
   57SAPC  H12R 4212   1.908   1.161   9.353  0.7702 -0.0583 -0.8291
   57SAPC  C213 4213   2.058   1.302   9.440 -0.1035 -0.7368  0.2412
   57SAPC  H13R 4214   2.083   1.348   9.342  1.0551 -3.0674 -0.6336
   57SAPC  H13S 4215   2.152   1.299   9.499  1.5660 -1.8632 -2.3028
   57SAPC  C214 4216   1.953   1.391   9.517  0.7756 -0.2775  0.0750
   57SAPC  H14R 4217   1.957   1.380   9.626 -1.1828 -1.2453  0.1016
   57SAPC  C215 4218   1.866   1.478   9.459  0.5617 -0.1829 -0.1177
   57SAPC  H15R 4219   1.792   1.534   9.517  1.1047  0.8167 -0.3734
   57SAPC  C216 4220   1.866   1.511   9.315  0.2875 -0.4254  0.2941
   57SAPC  H16R 4221   1.963   1.519   9.263  0.5510  0.0372  0.8441
   57SAPC  H16S 4222   1.850   1.621   9.311 -0.9552 -0.6155 -0.7194
   57SAPC  C217 4223   1.757   1.434   9.233  0.8446 -0.4966  0.0437
   57SAPC  H17R 4224   1.663   1.435   9.294  0.1645  0.6510 -0.9831
   57SAPC  H17S 4225   1.788   1.328   9.222 -0.3278 -0.7621 -0.9140
   57SAPC  C218 4226   1.722   1.491   9.095 -0.1886  0.2523 -0.3378
   57SAPC  H18R 4227   1.726   1.602   9.095  1.0453  0.2357 -1.2757
   57SAPC  H18S 4228   1.621   1.458   9.064  0.2210 -1.1154 -0.2764
   57SAPC  C219 4229   1.829   1.443   8.994 -0.3514 -0.2720 -0.0081
   57SAPC  H19R 4230   1.929   1.470   9.033  0.2603  1.3760 -2.4427
   57SAPC  H19S 4231   1.819   1.493   8.895 -0.1130 -2.7628 -1.3636
   57SAPC  C220 4232   1.829   1.293   8.966  0.1038  0.1462  0.8917
   57SAPC  H20R 4233   1.813   1.234   9.059 -0.8705  0.1447  0.7324
   57SAPC  H20S 4234   1.918   1.255   8.913 -0.1399 -0.4309  0.8848
   57SAPC  H20T 4235   1.737   1.264   8.911  0.5488 -3.4152  1.7926
   57SAPC   C33 4236   1.503   1.832  10.396 -0.7778  1.0301  0.3225
   57SAPC   H3X 4237   1.443   1.905  10.338  0.0872  1.3145 -0.2231
   57SAPC   H3Y 4238   1.461   1.822  10.499 -0.9979 -1.2903  0.0634
   57SAPC   C34 4239   1.474   1.698  10.324  0.3072 -0.3406  0.5878
   57SAPC   H4X 4240   1.366   1.703  10.298  0.5309 -0.5352 -0.3914
   57SAPC   H4Y 4241   1.496   1.611  10.389  2.8629  0.2283  0.6137
   57SAPC   C35 4242   1.544   1.675  10.198  0.6932 -0.1701  0.4589
   57SAPC   H5X 4243   1.531   1.569  10.170  2.0315 -0.3705  0.5485
   57SAPC   H5Y 4244   1.652   1.698  10.214 -0.0964  2.7176  2.5757
   57SAPC   C36 4245   1.503   1.765  10.081 -0.4627  0.0584 -0.4458
   57SAPC   H6X 4246   1.512   1.872  10.110 -0.6465  0.0660 -0.4142
   57SAPC   H6Y 4247   1.396   1.738  10.069 -1.4995  2.2821  2.4051
   57SAPC   C37 4248   1.590   1.732   9.955  0.2046 -0.2084  0.8397
   57SAPC   H7X 4249   1.540   1.636   9.928 -1.6631  0.7723  0.6795
   57SAPC   H7Y 4250   1.698   1.712   9.973  0.6050 -0.3495 -1.3702
   57SAPC   C38 4251   1.583   1.842   9.848  0.2171  0.2442  0.1606
   57SAPC   H8X 4252   1.612   1.943   9.884  1.5389 -0.3836  0.9024
   57SAPC   H8Y 4253   1.478   1.852   9.811  0.1304 -2.2389 -0.4251
   57SAPC   C39 4254   1.662   1.817   9.718  0.0230  0.2198  0.6680
   57SAPC   H9X 4255   1.651   1.708   9.699  1.5646  0.2717 -0.7213
   57SAPC   H9Y 4256   1.771   1.816   9.737 -0.2848 -0.5053  2.6792
   57SAPC  C310 4257   1.621   1.908   9.595 -0.2684  0.3753 -0.1253
   57SAPC  H10X 4258   1.658   2.010   9.617  0.8405 -0.1135  0.3494
   57SAPC  H10Y 4259   1.510   1.901   9.592 -0.4091  1.6794  1.2482
   57SAPC  C311 4260   1.681   1.862   9.462  0.1034 -0.0573  0.6917
   57SAPC  H11X 4261   1.665   1.755   9.437 -1.3881  0.4494 -0.6703
   57SAPC  H11Y 4262   1.791   1.879   9.471  0.1183 -0.7840  2.3464
   57SAPC  C312 4263   1.623   1.949   9.353  0.8059  0.0693 -0.0559
   57SAPC  H12X 4264   1.636   2.059   9.363 -0.8968  0.3409 -0.5148
   57SAPC  H12Y 4265   1.512   1.936   9.346  0.8267 -0.0316 -0.1986
   57SAPC  C313 4266   1.676   1.918   9.207  0.2925 -0.0380  0.6399
   57SAPC  H13X 4267   1.657   1.809   9.191  0.1895  0.0168  0.3832
   57SAPC  H13Y 4268   1.784   1.944   9.201  0.3074 -0.2399 -0.0401
   57SAPC  C314 4269   1.588   1.993   9.097 -0.2558 -0.4741  0.1577
   57SAPC  H14X 4270   1.617   2.100   9.089 -2.6137  0.3013  1.1755
   57SAPC  H14Y 4271   1.485   1.987   9.139 -0.3555  0.5767  0.0794
   57SAPC  C315 4272   1.579   1.924   8.957 -0.4554  0.3243  0.7730
   57SAPC  H15X 4273   1.512   1.839   8.981 -0.1222 -0.4030 -0.7532
   57SAPC  H15Y 4274   1.682   1.896   8.926  0.6732  2.3943  2.4532
   57SAPC  C316 4275   1.510   2.006   8.844  0.1831 -0.2561 -0.4132
   57SAPC  H16X 4276   1.561   2.104   8.839  0.0868 -0.1999 -0.2800
   57SAPC  H16Y 4277   1.408   2.027   8.882  0.4626  0.4969 -0.0655
   57SAPC  C317 4278   1.480   1.935   8.706 -0.3662 -0.3741  0.1152
   57SAPC  H17X 4279   1.572   1.889   8.664  0.7345  2.4020 -0.7132
   57SAPC  H17Y 4280   1.460   2.023   8.642 -0.8641 -0.3852  0.2532
   57SAPC  C318 4281   1.360   1.845   8.705 -0.5354  0.2979 -0.6697
   57SAPC  H18X 4282   1.276   1.903   8.747 -1.8079 -2.0643  0.2450
   57SAPC  H18Y 4283   1.376   1.759   8.774 -2.0711  0.6072  0.1120
   57SAPC  H18Z 4284   1.329   1.809   8.605 -0.3303 -3.4365  0.4460
   58SAPC     N 4285   3.100   3.619  10.698  0.1760  0.1577  0.4219
   58SAPC   C12 4286   2.955   3.554  10.689 -0.3221 -0.4359 -0.0056
   58SAPC  H12A 4287   2.879   3.626  10.662  1.6754  3.1194  2.9113
   58SAPC  H12B 4288   2.917   3.524  10.786 -1.1510 -0.1911 -0.2430
   58SAPC   C13 4289   3.201   3.533  10.766  0.5072 -0.6218 -0.6770
   58SAPC  H13A 4290   3.186   3.515  10.872  2.3039 -2.3065 -0.6402
   58SAPC  H13B 4291   3.202   3.433  10.727 -0.2923 -0.3650 -1.3774
   58SAPC  H13C 4292   3.302   3.569  10.751  0.4122  0.5392  1.0261
   58SAPC   C14 4293   3.137   3.659  10.561  0.0959  0.6048  0.3222
   58SAPC  H14A 4294   3.049   3.688  10.505 -0.4554 -0.0437  0.8405
   58SAPC  H14B 4295   3.207   3.741  10.571  1.8020 -0.7692  0.1159
   58SAPC  H14C 4296   3.187   3.587  10.498 -1.5789  0.7621 -1.2812
   58SAPC   C15 4297   3.092   3.738  10.785  0.4415 -0.5892 -0.2275
   58SAPC  H15A 4298   3.006   3.800  10.765  0.3269 -1.0820 -1.2857
   58SAPC  H15B 4299   3.090   3.697  10.885 -0.9176 -0.8614 -0.3533
   58SAPC  H15C 4300   3.182   3.797  10.777 -0.4807  0.9936  0.5585
   58SAPC   C11 4301   2.941   3.430  10.605  0.2326  0.1848  0.2590
   58SAPC  H11A 4302   2.990   3.463  10.511  2.1645  0.7152  1.4049
   58SAPC  H11B 4303   2.833   3.414  10.582  0.0541  3.1925 -1.5417
   58SAPC     P 4304   2.952   3.240  10.777 -0.1070  0.0185 -0.0095
   58SAPC   O13 4305   3.064   3.167  10.837 -0.0038 -0.3099 -0.4047
   58SAPC   O14 4306   2.887   3.331  10.868  0.7026 -0.0401  0.2184
   58SAPC   O12 4307   3.010   3.317  10.658  0.2921 -0.0595 -0.3208
   58SAPC   O11 4308   2.841   3.151  10.714  0.0661  0.3104 -0.2722
   58SAPC    C1 4309   2.886   3.046  10.633 -0.1446 -0.2562 -0.0253
   58SAPC    HA 4310   2.993   3.018  10.644 -0.6382 -1.8972  1.1562
   58SAPC    HB 4311   2.839   2.950  10.662  2.4397 -1.2391  1.2897
   58SAPC    C2 4312   2.858   3.068  10.479  0.2593 -0.4204 -0.5786
   58SAPC    HS 4313   2.903   3.166  10.454 -2.0396  1.6736  2.6613
   58SAPC   O21 4314   2.719   3.060  10.448 -0.1308  0.3697 -0.3528
   58SAPC   C21 4315   2.674   3.137  10.354 -0.3417 -0.5799 -0.3484
   58SAPC   O22 4316   2.731   3.230  10.302  0.8861  0.0323 -0.4811
   58SAPC   C22 4317   2.546   3.085  10.297 -0.4866  0.0446 -0.4972
   58SAPC   H2R 4318   2.492   3.026  10.374  0.2399 -0.8701 -0.6812
   58SAPC   H2S 4319   2.475   3.165  10.266 -1.0448 -0.4128 -0.3990
   58SAPC    C3 4320   2.934   2.954  10.407  0.6057  0.1360 -0.3096
   58SAPC    HX 4321   2.875   2.865  10.439 -0.5457  1.2373  0.7569
   58SAPC    HY 4322   3.035   2.929  10.445  0.3776 -0.6013 -0.1722
   58SAPC   O31 4323   2.922   2.962  10.254  0.0720  0.3055 -0.5661
   58SAPC   C31 4324   3.012   3.047  10.206  0.5651  0.2920  0.1606
   58SAPC   O32 4325   3.080   3.115  10.277  0.5932 -0.3016 -0.0236
   58SAPC   C32 4326   3.015   3.028  10.055 -0.4947 -0.2233  0.5818
   58SAPC   H2X 4327   2.937   3.089  10.003  1.3309  1.7011 -0.0513
   58SAPC   H2Y 4328   2.979   2.924  10.041 -4.0534  0.7645  1.2880
   58SAPC   C23 4329   2.563   2.977  10.185 -0.6170 -0.2007  0.0632
   58SAPC   H3R 4330   2.465   2.926  10.177  0.1697 -1.8791  0.5454
   58SAPC   H3S 4331   2.633   2.898  10.221  0.6321  1.4553  1.3977
   58SAPC   C24 4332   2.609   3.038  10.044  0.1912  0.7103  0.6989
   58SAPC   H4R 4333   2.692   3.109  10.064  1.7955 -0.2631 -1.9589
   58SAPC   H4S 4334   2.519   3.084  10.000 -0.4068 -0.6628  0.4284
   58SAPC   C25 4335   2.664   2.919   9.959  0.2530  0.6910 -0.4770
   58SAPC   H5R 4336   2.698   2.832  10.017 -1.0868 -0.5147 -1.4202
   58SAPC   C26 4337   2.666   2.907   9.825 -0.1909 -0.0919  0.1528
   58SAPC   H6R 4338   2.680   2.807   9.780 -1.9740 -0.4903  0.4025
   58SAPC   C27 4339   2.623   3.009   9.726  0.4128 -0.0888  0.2751
   58SAPC   H7R 4340   2.689   3.098   9.729 -2.9621  2.6285  0.5281
   58SAPC   H7S 4341   2.533   3.062   9.762  0.6663 -0.1459  1.0079
   58SAPC   C28 4342   2.622   2.955   9.583 -0.4240  0.0468  0.4274
   58SAPC   H8R 4343   2.532   2.904   9.547  0.1541 -0.4313 -0.3735
   58SAPC   C29 4344   2.722   2.959   9.491  0.6345 -0.0890 -0.0689
   58SAPC   H9R 4345   2.689   2.933   9.389  0.2595  0.2514 -0.0369
   58SAPC  C210 4346   2.855   3.022   9.515 -0.1840 -0.1064  0.3792
   58SAPC  H10R 4347   2.876   3.039   9.622 -1.2221 -2.0301  0.9287
   58SAPC  H10S 4348   2.846   3.120   9.464  0.9514 -0.8074 -1.2744
   58SAPC  C211 4349   2.967   2.937   9.467  0.3336 -0.2307 -0.0133
   58SAPC  H11R 4350   3.013   2.877   9.547  1.3979 -0.4072 -0.7385
   58SAPC  C212 4351   3.024   2.935   9.343  0.0959  0.1192 -0.5509
   58SAPC  H12R 4352   3.102   2.858   9.356 -0.8842 -0.7310  0.4340
   58SAPC  C213 4353   2.996   3.011   9.221 -0.8031  0.1075  0.2396
   58SAPC  H13R 4354   3.059   2.983   9.134  3.4516  1.1983  2.6567
   58SAPC  H13S 4355   3.033   3.112   9.250 -0.6215 -0.2439  1.2717
   58SAPC  C214 4356   2.856   3.016   9.183  0.0030  0.2064 -0.1716
   58SAPC  H14R 4357   2.792   2.940   9.231  1.1480  0.9962  2.8452
   58SAPC  C215 4358   2.805   3.102   9.095  0.0581  0.1840 -0.4966
   58SAPC  H15R 4359   2.697   3.091   9.081  0.1438 -1.8997  0.1345
   58SAPC  C216 4360   2.877   3.202   9.019  0.0605 -0.0802  0.3536
   58SAPC  H16R 4361   2.979   3.213   9.062 -0.3510 -0.4997  1.4561
   58SAPC  H16S 4362   2.827   3.299   9.039 -0.8411 -0.7523  1.4316
   58SAPC  C217 4363   2.888   3.158   8.871 -0.2151  0.5960  0.2889
   58SAPC  H17R 4364   2.787   3.122   8.840 -0.6246  1.5579  0.4789
   58SAPC  H17S 4365   2.955   3.070   8.866 -0.5565  0.3330  0.2642
   58SAPC  C218 4366   2.923   3.267   8.777  0.4822 -0.9252 -0.7796
   58SAPC  H18R 4367   3.031   3.290   8.792  0.6697 -0.7779 -2.2503
   58SAPC  H18S 4368   2.885   3.367   8.806  1.9467 -0.1046 -1.5507
   58SAPC  C219 4369   2.874   3.250   8.635 -0.1056  0.0460  0.1913
   58SAPC  H19R 4370   2.902   3.343   8.581  0.2552  0.0155  0.3188
   58SAPC  H19S 4371   2.764   3.239   8.639 -0.4939  3.3957  1.6688
   58SAPC  C220 4372   2.928   3.126   8.568  0.4101 -0.3519 -0.6955
   58SAPC  H20R 4373   2.874   3.113   8.471 -0.7273 -1.0716  0.0129
   58SAPC  H20S 4374   2.916   3.039   8.635  1.2247  0.6997  0.8811
   58SAPC  H20T 4375   3.032   3.151   8.539  0.9779 -0.9042  0.7741
   58SAPC   C33 4376   3.156   3.062   9.988 -0.0198  0.3034  0.6526
   58SAPC   H3X 4377   3.230   3.001  10.043 -1.0973 -0.4549  1.3160
   58SAPC   H3Y 4378   3.177   3.171   9.995 -0.2832  0.5451 -1.6234
   58SAPC   C34 4379   3.157   3.034   9.840  0.0624  0.3940  0.3931
   58SAPC   H4X 4380   3.081   3.080   9.773  1.0675  1.0078 -0.3527
   58SAPC   H4Y 4381   3.143   2.927   9.813  0.1608  0.3340  0.5837
   58SAPC   C35 4382   3.296   3.077   9.780  0.6168  0.1146  0.4015
   58SAPC   H5X 4383   3.383   3.021   9.821 -0.1874  0.3645  2.6028
   58SAPC   H5Y 4384   3.305   3.185   9.800  1.6570 -0.4109  3.2537
   58SAPC   C36 4385   3.299   3.049   9.633 -0.8685 -0.3486 -0.4524
   58SAPC   H6X 4386   3.229   3.117   9.580  1.1006  0.8819 -1.5879
   58SAPC   H6Y 4387   3.267   2.943   9.626 -3.8143  0.1231  2.9995
   58SAPC   C37 4388   3.439   3.064   9.574 -0.1228 -0.7349  0.1991
   58SAPC   H7X 4389   3.520   3.014   9.631  0.7698  1.9998  1.4934
   58SAPC   H7Y 4390   3.467   3.168   9.599  1.7100 -0.7956 -1.3743
   58SAPC   C38 4391   3.444   3.038   9.425  0.2204 -0.3560 -0.1765
   58SAPC   H8X 4392   3.405   2.935   9.411 -0.8881  0.0244 -0.0162
   58SAPC   H8Y 4393   3.553   3.037   9.408  0.0778 -2.0494 -1.2605
   58SAPC   C39 4394   3.380   3.140   9.333 -0.1568 -0.4147  0.1187
   58SAPC   H9X 4395   3.392   3.246   9.366  3.0653 -0.6253 -0.0998
   58SAPC   H9Y 4396   3.270   3.124   9.340  0.1402 -3.0691 -0.3383
   58SAPC  C310 4397   3.424   3.123   9.187  0.7983 -0.7270  0.5349
   58SAPC  H10X 4398   3.399   3.016   9.168 -0.4899 -0.2729 -0.3946
   58SAPC  H10Y 4399   3.534   3.135   9.181  0.9102 -1.5037  0.9028
   58SAPC  C311 4400   3.345   3.221   9.094  0.4847  0.8812 -0.0033
   58SAPC  H11X 4401   3.374   3.326   9.112  0.5136  0.8933 -0.1253
   58SAPC  H11Y 4402   3.239   3.212   9.128  0.0195  0.5463 -1.4823
   58SAPC  C312 4403   3.334   3.173   8.945  0.2874 -0.1309 -0.2245
   58SAPC  H12X 4404   3.243   3.110   8.948 -1.3044  2.0733  0.0093
   58SAPC  H12Y 4405   3.433   3.135   8.912  1.3799  2.7675 -0.5969
   58SAPC  C313 4406   3.317   3.291   8.844 -0.4250  0.2676  0.1732
   58SAPC  H13X 4407   3.391   3.371   8.866  0.0638 -0.0560 -0.2719
   58SAPC  H13Y 4408   3.218   3.338   8.861  1.3233  3.5527  2.3371
   58SAPC  C314 4409   3.299   3.240   8.698  0.4265  0.4238  0.1805
   58SAPC  H14X 4410   3.199   3.191   8.693  0.2804  0.7405 -0.0331
   58SAPC  H14Y 4411   3.373   3.158   8.688  1.8569  1.8416 -1.3541
   58SAPC  C315 4412   3.322   3.337   8.579 -0.0667 -0.3952  0.1089
   58SAPC  H15X 4413   3.403   3.410   8.596  0.0357 -0.2227 -1.0667
   58SAPC  H15Y 4414   3.229   3.398   8.583  0.9471  1.1565  2.5907
   58SAPC  C316 4415   3.349   3.265   8.443 -0.4065  0.0274 -0.0509
   58SAPC  H16X 4416   3.268   3.205   8.398  0.6706 -1.7286  0.2280
   58SAPC  H16Y 4417   3.435   3.200   8.473 -0.8343 -0.4693  0.1101
   58SAPC  C317 4418   3.391   3.365   8.339 -0.0978 -0.0265  0.0779
   58SAPC  H17X 4419   3.445   3.309   8.259  2.1019 -2.5588  3.0624
   58SAPC  H17Y 4420   3.469   3.427   8.388  0.8120 -1.9371  1.1693
   58SAPC  C318 4421   3.279   3.456   8.292 -0.6067  0.4218 -0.2035
   58SAPC  H18X 4422   3.316   3.532   8.220 -0.3760  0.5432  0.0382
   58SAPC  H18Y 4423   3.226   3.517   8.369 -1.0828  1.0927 -1.0471
   58SAPC  H18Z 4424   3.204   3.404   8.229 -1.4131  1.4055 -0.0929
   59SAPC     N 4425   4.867   0.244  11.208 -0.4141 -0.3833 -0.0072
   59SAPC   C12 4426   4.873   0.181  11.072 -0.3781 -0.1346 -0.4126
   59SAPC  H12A 4427   4.792   0.212  11.008  0.4058 -1.0961 -1.9401
   59SAPC  H12B 4428   4.848   0.078  11.095 -0.6441  0.4842  2.4474
   59SAPC   C13 4429   4.720   0.238  11.257  0.4357 -0.0309  0.8833
   59SAPC  H13A 4430   4.654   0.286  11.186  1.2912 -0.7483 -0.4270
   59SAPC  H13B 4431   4.694   0.133  11.268  2.1872 -0.5941 -0.0685
   59SAPC  H13C 4432   4.708   0.287  11.353  1.4699  0.0643  0.9743
   59SAPC   C14 4433   4.953   0.162  11.302 -0.0071 -0.8560  0.3234
   59SAPC  H14A 4434   4.924   0.189  11.403  0.4869  0.0620  0.2272
   59SAPC  H14B 4435   4.938   0.057  11.279  2.3305 -1.0231 -0.7038
   59SAPC  H14C 4436   5.056   0.186  11.281 -0.2408  0.2580  0.4070
   59SAPC   C15 4437   4.918   0.384  11.192 -0.0180 -0.3764 -0.6164
   59SAPC  H15A 4438   5.011   0.398  11.139  0.2074 -0.9105 -0.3705
   59SAPC  H15B 4439   4.852   0.456  11.145  1.3704  1.8346  0.6725
   59SAPC  H15C 4440   4.933   0.408  11.296  0.5735 -1.5876 -0.4032
   59SAPC   C11 4441   5.009   0.178  10.997 -0.2359  0.1694 -0.4098
   59SAPC  H11A 4442   5.041   0.283  10.983 -1.8893  0.6977 -0.4827
   59SAPC  H11B 4443   4.995   0.126  10.900 -0.2877 -0.9876  0.1904
   59SAPC     P 4444   5.097  -0.068  11.058 -0.2299 -0.4332  0.1867
   59SAPC   O13 4445   5.190  -0.126  11.154  0.5668 -0.7984 -0.2234
   59SAPC   O14 4446   4.957  -0.106  11.082  0.2140  0.0860 -0.8223
   59SAPC   O12 4447   5.113   0.100  11.073  0.4231  0.1214  0.1860
   59SAPC   O11 4448   5.144  -0.101  10.917  0.8197 -0.6088 -0.1895
   59SAPC    C1 4449   5.075  -0.174  10.810  0.7039  0.0378  0.0822
   59SAPC    HA 4450   4.970  -0.203  10.831 -0.3734  1.0782 -3.1884
   59SAPC    HB 4451   5.072  -0.135  10.706 -2.5650 -2.9637 -1.1222
   59SAPC    C2 4452   5.153  -0.311  10.781  0.1660  0.0812  0.2585
   59SAPC    HS 4453   5.171  -0.360  10.880 -0.1069  0.6294  0.5829
   59SAPC   O21 4454   5.274  -0.291  10.723 -0.1899  0.4686  0.3483
   59SAPC   C21 4455   5.371  -0.388  10.736 -0.0927 -0.1393  0.8446
   59SAPC   O22 4456   5.353  -0.490  10.796  0.4960  0.1792 -0.0721
   59SAPC   C22 4457   5.503  -0.356  10.666  0.2162  0.0394 -0.3597
   59SAPC   H2R 4458   5.486  -0.268  10.600  1.9751  1.4002  0.9410
   59SAPC   H2S 4459   5.572  -0.312  10.741 -1.7276  2.4389  0.1468
   59SAPC    C3 4460   5.062  -0.412  10.694  0.2976 -0.2900 -0.3053
   59SAPC    HX 4461   4.961  -0.402  10.739 -0.0661  0.6260 -1.2985
   59SAPC    HY 4462   5.104  -0.514  10.710  0.8537 -0.1273 -0.7104
   59SAPC   O31 4463   5.053  -0.373  10.551 -0.4034 -0.7954 -0.4137
   59SAPC   C31 4464   4.943  -0.420  10.488 -0.0582  0.4236 -0.1732
   59SAPC   O32 4465   4.873  -0.508  10.535 -0.1047  0.1650  0.7445
   59SAPC   C32 4466   4.937  -0.354  10.354 -0.5841  0.5738  0.5270
   59SAPC   H2X 4467   5.043  -0.347  10.321  0.7689  0.1679  4.2431
   59SAPC   H2Y 4468   4.922  -0.245  10.368  0.2101  0.9436 -1.2316
   59SAPC   C23 4469   5.558  -0.483  10.594 -0.0601 -0.3467  0.1540
   59SAPC   H3R 4470   5.491  -0.530  10.519  1.9319  2.0599 -3.4611
   59SAPC   H3S 4471   5.578  -0.557  10.675 -0.6628 -1.0743 -0.3453
   59SAPC   C24 4472   5.694  -0.465  10.531 -0.2411  0.3649 -0.5193
   59SAPC   H4R 4473   5.756  -0.415  10.608 -0.3429 -1.1998  0.6204
   59SAPC   H4S 4474   5.681  -0.392  10.448  0.3884 -0.5974 -1.4877
   59SAPC   C25 4475   5.765  -0.588  10.487  0.9176  0.3081  0.0846
   59SAPC   H5R 4476   5.787  -0.665  10.562 -1.8921 -0.5173  0.1789
   59SAPC   C26 4477   5.764  -0.632  10.357  0.2634  0.4952 -0.0435
   59SAPC   H6R 4478   5.818  -0.726  10.340 -1.5924 -0.3871 -1.4559
   59SAPC   C27 4479   5.707  -0.570  10.230  0.1668 -0.4186  0.3546
   59SAPC   H7R 4480   5.788  -0.589  10.156 -1.9113 -0.2341 -2.1314
   59SAPC   H7S 4481   5.700  -0.460  10.244  0.6517 -0.3436  0.0484
   59SAPC   C28 4482   5.570  -0.612  10.191 -0.7928  0.4474 -0.8556
   59SAPC   H8R 4483   5.486  -0.586  10.257 -0.8992  0.8956 -1.1636
   59SAPC   C29 4484   5.534  -0.663  10.073  0.1876  0.5426 -0.7089
   59SAPC   H9R 4485   5.428  -0.689  10.058  0.3608 -1.6577  1.2721
   59SAPC  C210 4486   5.634  -0.695   9.964  0.3623 -0.0167 -0.4805
   59SAPC  H10R 4487   5.600  -0.793   9.923  2.3339 -1.1768  0.4865
   59SAPC  H10S 4488   5.735  -0.722  10.003  1.0032  0.0654 -2.0305
   59SAPC  C211 4489   5.645  -0.588   9.861  0.0217 -0.4122 -0.3429
   59SAPC  H11R 4490   5.638  -0.489   9.909  0.5885 -1.5014  2.1060
   59SAPC  C212 4491   5.673  -0.602   9.734 -0.2517 -0.1723 -0.9210
   59SAPC  H12R 4492   5.686  -0.515   9.668  0.8584  1.3983  1.2654
   59SAPC  C213 4493   5.701  -0.730   9.665  0.1590 -0.0652  0.1415
   59SAPC  H13R 4494   5.657  -0.727   9.564 -1.9035 -0.8701  0.9598
   59SAPC  H13S 4495   5.639  -0.808   9.714 -2.1790  2.8455  2.1973
   59SAPC  C214 4496   5.840  -0.780   9.636  0.0249 -0.4557  0.1681
   59SAPC  H14R 4497   5.885  -0.836   9.720 -1.8019  2.7663  3.5513
   59SAPC  C215 4498   5.921  -0.743   9.530  0.0539  0.2746 -0.3142
   59SAPC  H15R 4499   6.018  -0.792   9.520  0.3053  1.1559 -3.1762
   59SAPC  C216 4500   5.888  -0.644   9.421 -0.3600 -0.1283  0.5826
   59SAPC  H16R 4501   5.962  -0.562   9.432 -0.0462 -0.3906  0.4423
   59SAPC  H16S 4502   5.781  -0.616   9.410 -0.3695 -0.7535 -1.3347
   59SAPC  C217 4503   5.905  -0.707   9.282 -0.2777 -0.2649  0.1503
   59SAPC  H17R 4504   5.817  -0.774   9.266 -0.1296 -0.3805 -0.1986
   59SAPC  H17S 4505   6.003  -0.759   9.271 -0.3526 -0.4891  0.5141
   59SAPC  C218 4506   5.873  -0.601   9.175  0.0958 -0.0584  0.6219
   59SAPC  H18R 4507   5.930  -0.505   9.178 -0.2029  0.1892 -0.7942
   59SAPC  H18S 4508   5.767  -0.572   9.191  0.2714  0.0313  1.6814
   59SAPC  C219 4509   5.892  -0.667   9.043  0.0744 -0.0283  0.5775
   59SAPC  H19R 4510   5.866  -0.774   9.059  1.9346 -0.4240  1.1469
   59SAPC  H19S 4511   6.001  -0.658   9.025 -0.2055  0.0430 -1.2932
   59SAPC  C220 4512   5.813  -0.608   8.922 -0.4098  0.2730  0.2886
   59SAPC  H20R 4513   5.864  -0.612   8.823  1.0426  0.5814  1.0022
   59SAPC  H20S 4514   5.784  -0.502   8.938 -0.3637  0.0785  1.8081
   59SAPC  H20T 4515   5.720  -0.664   8.899 -0.0564 -0.0067 -0.4976
   59SAPC   C33 4516   4.849  -0.413  10.235 -0.9866 -0.9336 -0.9869
   59SAPC   H3X 4517   4.746  -0.410  10.276  0.2416 -2.7769  2.7439
   59SAPC   H3Y 4518   4.887  -0.518  10.226 -2.5840 -1.4984 -1.4106
   59SAPC   C34 4519   4.871  -0.341  10.101  0.3965  0.2748 -0.1876
   59SAPC   H4X 4520   4.975  -0.341  10.060  1.3637 -0.0317  2.0927
   59SAPC   H4Y 4521   4.841  -0.236  10.122 -0.5198  0.0341 -0.2481
   59SAPC   C35 4522   4.792  -0.411   9.983  0.2792  0.2510 -0.0850
   59SAPC   H5X 4523   4.686  -0.433  10.006  0.6220 -1.5829 -0.1090
   59SAPC   H5Y 4524   4.844  -0.509   9.987 -1.3263 -0.6720  4.9213
   59SAPC   C36 4525   4.793  -0.343   9.846 -0.4022 -0.6114 -0.5893
   59SAPC   H6X 4526   4.892  -0.295   9.832  0.6218 -1.8671  1.8303
   59SAPC   H6Y 4527   4.718  -0.261   9.848  0.0892 -0.1415  1.9931
   59SAPC   C37 4528   4.764  -0.433   9.737  0.6458 -0.0989  0.0334
   59SAPC   H7X 4529   4.657  -0.461   9.747  0.4726  0.8628  1.0688
   59SAPC   H7Y 4530   4.837  -0.516   9.736  0.9223  0.0913 -2.4287
   59SAPC   C38 4531   4.777  -0.357   9.604  0.5991 -0.2914  0.0760
   59SAPC   H8X 4532   4.884  -0.330   9.595  0.2802  0.1960 -3.8030
   59SAPC   H8Y 4533   4.712  -0.267   9.609 -0.1322 -0.7628 -0.6173
   59SAPC   C39 4534   4.738  -0.431   9.482 -0.2804 -0.6999 -0.0264
   59SAPC   H9X 4535   4.712  -0.370   9.393 -0.3760 -1.3104 -0.4162
   59SAPC   H9Y 4536   4.654  -0.494   9.515  0.8414 -1.5167  1.3716
   59SAPC  C310 4537   4.849  -0.527   9.458 -0.5325  0.8142  0.2660
   59SAPC  H10X 4538   4.840  -0.606   9.535 -1.4826  1.3519  0.7256
   59SAPC  H10Y 4539   4.949  -0.478   9.449 -0.0288 -0.4762 -1.9163
   59SAPC  C311 4540   4.834  -0.604   9.323  0.5895  0.5331  0.2632
   59SAPC  H11X 4541   4.858  -0.550   9.229  2.1972 -2.2867 -1.0657
   59SAPC  H11Y 4542   4.726  -0.630   9.317  1.1787 -1.9476 -0.4571
   59SAPC  C312 4543   4.940  -0.713   9.317  0.1503  0.5525  0.2277
   59SAPC  H12X 4544   4.926  -0.788   9.397 -2.4894 -0.4171 -1.0233
   59SAPC  H12Y 4545   5.040  -0.665   9.331 -0.3183  1.1453  1.7818
   59SAPC  C313 4546   4.955  -0.793   9.187  0.3474  0.1245  1.0682
   59SAPC  H13X 4547   5.039  -0.866   9.190  0.5992  0.4538  3.7293
   59SAPC  H13Y 4548   4.971  -0.717   9.107 -0.1946  2.6783  3.2364
   59SAPC  C314 4549   4.833  -0.882   9.147 -0.0316 -0.1437  0.1458
   59SAPC  H14X 4550   4.755  -0.834   9.211  4.0157  6.0100  1.3441
   59SAPC  H14Y 4551   4.838  -0.990   9.173  1.2297  0.1581  1.2570
   59SAPC  C315 4552   4.781  -0.870   8.997  0.0138  0.0104 -0.6163
   59SAPC  H15X 4553   4.775  -0.760   8.980  0.4554  0.4753  1.8976
   59SAPC  H15Y 4554   4.674  -0.901   9.000 -0.6869  2.3317  2.0564
   59SAPC  C316 4555   4.865  -0.941   8.890  0.0900 -0.8031  0.6927
   59SAPC  H16X 4556   4.897  -1.038   8.934 -0.9591 -1.1806  0.6540
   59SAPC  H16Y 4557   4.956  -0.880   8.873 -1.4901  1.2334 -1.0198
   59SAPC  C317 4558   4.798  -0.951   8.754  0.2919 -0.4373 -0.5639
   59SAPC  H17X 4559   4.746  -0.853   8.742  0.4888 -0.1790  0.6066
   59SAPC  H17Y 4560   4.726  -1.036   8.755 -0.9667  0.4907  3.1455
   59SAPC  C318 4561   4.902  -0.975   8.637  0.6009  0.0943 -0.0149
   59SAPC  H18X 4562   4.842  -1.009   8.550 -0.0013  1.9105 -0.3487
   59SAPC  H18Y 4563   4.977  -1.051   8.667  0.9879  0.3952 -0.2124
   59SAPC  H18Z 4564   4.954  -0.881   8.609  0.2982  0.3018  0.1114
   60SAPC     N 4565   6.322   4.018  10.777  0.0441  0.0532  0.2217
   60SAPC   C12 4566   6.239   4.050  10.651  0.1360  0.6949 -0.0806
   60SAPC  H12A 4567   6.202   3.955  10.615  2.9690 -1.6165  2.5970
   60SAPC  H12B 4568   6.305   4.096  10.579 -0.6220  0.9405 -0.6304
   60SAPC   C13 4569   6.238   3.979  10.896 -0.3237  0.7832  0.1260
   60SAPC  H13A 4570   6.193   3.881  10.884  1.0301 -0.0736  1.6372
   60SAPC  H13B 4571   6.297   3.970  10.986 -4.1014  1.3308  2.9114
   60SAPC  H13C 4572   6.171   4.062  10.908 -0.5813  0.4590  0.9909
   60SAPC   C14 4573   6.422   3.912  10.745  0.2609 -0.6689  0.9259
   60SAPC  H14A 4574   6.480   3.881  10.830  2.3950 -0.8512 -0.5346
   60SAPC  H14B 4575   6.385   3.820  10.702 -1.1459  0.1213  0.3471
   60SAPC  H14C 4576   6.500   3.940  10.676  0.3841 -0.7031  1.0525
   60SAPC   C15 4577   6.391   4.139  10.813 -0.6590  0.1792 -0.1641
   60SAPC  H15A 4578   6.458   4.124  10.896  0.2887 -1.2622 -1.1401
   60SAPC  H15B 4579   6.458   4.169  10.733 -2.1180  0.8205 -1.2002
   60SAPC  H15C 4580   6.328   4.226  10.819  0.1629  0.7312  0.7761
   60SAPC   C11 4581   6.117   4.139  10.656  0.3607  0.0660 -0.4397
   60SAPC  H11A 4582   6.033   4.082  10.703 -0.9452  0.6044 -2.0396
   60SAPC  H11B 4583   6.067   4.159  10.559  0.9843  0.9492 -0.5920
   60SAPC     P 4584   6.197   4.389  10.660  0.4107  0.3734  0.0480
   60SAPC   O13 4585   6.175   4.503  10.750 -0.4288 -0.0801  0.4002
   60SAPC   O14 4586   6.342   4.372  10.621 -0.3824  0.5354 -0.3918
   60SAPC   O12 4587   6.141   4.259  10.730 -0.2402 -0.7029  0.0506
   60SAPC   O11 4588   6.106   4.414  10.529  0.1466 -0.4042  0.2285
   60SAPC    C1 4589   5.963   4.403  10.529 -0.0968 -0.3499 -0.2681
   60SAPC    HA 4590   5.921   4.369  10.626 -2.7088  0.7221 -0.9545
   60SAPC    HB 4591   5.929   4.508  10.518  2.7047  0.6153 -0.5454
   60SAPC    C2 4592   5.902   4.313  10.413  0.7067  0.4765  0.0285
   60SAPC    HS 4593   5.929   4.206  10.426 -1.8483 -0.4220 -1.4868
   60SAPC   O21 4594   5.943   4.355  10.282 -0.6771  0.7348  0.1519
   60SAPC   C21 4595   6.062   4.312  10.250 -0.4386  0.1624  1.4612
   60SAPC   O22 4596   6.129   4.226  10.304  0.4525  0.3861  0.4706
   60SAPC   C22 4597   6.103   4.387  10.126  0.0086 -0.4351  0.4277
   60SAPC   H2R 4598   6.024   4.396  10.048  2.3673  1.0374 -2.0031
   60SAPC   H2S 4599   6.122   4.496  10.141  0.8196 -0.4275 -0.5311
   60SAPC    C3 4600   5.746   4.317  10.431 -0.4777  0.1762 -0.5608
   60SAPC    HX 4601   5.713   4.422  10.415  0.5646  0.4701 -0.8759
   60SAPC    HY 4602   5.722   4.293  10.536  0.2780 -0.7235 -0.5834
   60SAPC   O31 4603   5.677   4.238  10.330  0.1817 -0.1922 -0.1773
   60SAPC   C31 4604   5.672   4.115  10.357 -0.0748 -0.1579 -0.4163
   60SAPC   O32 4605   5.729   4.057  10.447  0.5015 -0.6292  0.4532
   60SAPC   C32 4606   5.565   4.049  10.270 -0.1959  0.1263 -0.1245
   60SAPC   H2X 4607   5.466   4.100  10.271 -0.0762  0.4726 -1.8406
   60SAPC   H2Y 4608   5.559   3.946  10.311  0.1858  0.5589  1.0410
   60SAPC   C23 4609   6.235   4.337  10.055  1.2055  0.2698 -0.4348
   60SAPC   H3R 4610   6.224   4.232  10.022  1.2963  0.0479  0.2211
   60SAPC   H3S 4611   6.310   4.339  10.137 -1.2586 -3.6825  2.2276
   60SAPC   C24 4612   6.278   4.413   9.929 -0.1179 -0.4550  0.0932
   60SAPC   H4R 4613   6.377   4.382   9.889  0.3603  1.6011 -0.4307
   60SAPC   H4S 4614   6.281   4.520   9.957 -0.7649 -0.3244 -0.3225
   60SAPC   C25 4615   6.179   4.407   9.815  0.0002 -0.2127  0.2846
   60SAPC   H5R 4616   6.087   4.463   9.836 -0.2810 -0.6144  0.1257
   60SAPC   C26 4617   6.195   4.364   9.691  0.7848  0.3530  0.1023
   60SAPC   H6R 4618   6.127   4.381   9.606  2.8416 -0.3271 -1.7900
   60SAPC   C27 4619   6.323   4.309   9.635  0.0653 -0.4200  0.3554
   60SAPC   H7R 4620   6.290   4.214   9.588  0.9826 -0.8799  0.6043
   60SAPC   H7S 4621   6.412   4.287   9.699  2.8704 -0.8166 -3.3305
   60SAPC   C28 4622   6.386   4.398   9.526 -0.1230  0.0589  0.8133
   60SAPC   H8R 4623   6.478   4.454   9.550  0.4520 -0.3292 -0.3995
   60SAPC   C29 4624   6.343   4.410   9.399  0.6197  0.0236 -0.0267
   60SAPC   H9R 4625   6.388   4.497   9.350  1.9263 -0.4849  0.2228
   60SAPC  C210 4626   6.236   4.339   9.329 -0.4644 -0.2579  0.4082
   60SAPC  H10R 4627   6.147   4.406   9.329  0.9189  1.6890 -1.0077
   60SAPC  H10S 4628   6.205   4.247   9.381 -1.8141 -0.6698 -1.0494
   60SAPC  C211 4629   6.276   4.304   9.186 -0.2582 -0.4714 -0.7689
   60SAPC  H11R 4630   6.228   4.377   9.119 -0.5065 -0.8959 -1.0591
   60SAPC  C212 4631   6.345   4.195   9.140 -0.2920 -0.3870 -0.2872
   60SAPC  H12R 4632   6.351   4.182   9.031 -0.1553 -1.9140 -0.1111
   60SAPC  C213 4633   6.401   4.092   9.231  0.7529  0.2031 -0.3225
   60SAPC  H13R 4634   6.323   4.017   9.257  0.6461 -0.2044 -1.7373
   60SAPC  H13S 4635   6.417   4.126   9.336 -3.0564 -1.1369  0.8517
   60SAPC  C214 4636   6.522   4.019   9.178  0.3986  0.2718 -0.2291
   60SAPC  H14R 4637   6.619   4.066   9.200 -0.9301  3.9042 -1.5218
   60SAPC  C215 4638   6.515   3.910   9.095 -0.5232 -0.3622 -0.2431
   60SAPC  H15R 4639   6.607   3.882   9.042 -0.2668  2.1341 -1.2604
   60SAPC  C216 4640   6.386   3.848   9.050 -0.5567 -0.1004  0.4969
   60SAPC  H16R 4641   6.292   3.899   9.080 -0.6341  0.0814 -0.0501
   60SAPC  H16S 4642   6.381   3.751   9.104 -5.1647  0.8166  2.1678
   60SAPC  C217 4643   6.353   3.820   8.891 -0.1728  0.0470 -0.3655
   60SAPC  H17R 4644   6.342   3.916   8.836  0.5654 -1.1709 -2.7533
   60SAPC  H17S 4645   6.247   3.787   8.894 -0.9350  2.3357  0.2911
   60SAPC  C218 4646   6.464   3.728   8.839  0.6419 -0.5035  0.2368
   60SAPC  H18R 4647   6.472   3.640   8.906  0.6479  1.1246  2.4917
   60SAPC  H18S 4648   6.558   3.787   8.847 -0.1392  0.4929  3.2365
   60SAPC  C219 4649   6.439   3.684   8.691  0.6332 -0.1219  0.0195
   60SAPC  H19R 4650   6.517   3.615   8.653 -0.5154 -1.3419 -0.1868
   60SAPC  H19S 4651   6.458   3.780   8.637  2.2977 -0.7724 -0.5938
   60SAPC  C220 4652   6.296   3.617   8.672  0.2723  0.0121  0.6809
   60SAPC  H20R 4653   6.300   3.515   8.715  0.6792  0.2666  1.2578
   60SAPC  H20S 4654   6.278   3.608   8.562 -0.6594 -0.7056  0.8884
   60SAPC  H20T 4655   6.211   3.677   8.709 -0.8089  0.4489 -2.2100
   60SAPC   C33 4656   5.601   4.043  10.120 -0.0329 -0.5889 -0.1361
   60SAPC   H3X 4657   5.695   3.985  10.117 -0.5016 -1.5608  1.7892
   60SAPC   H3Y 4658   5.611   4.147  10.082  0.6503 -0.4707  0.3555
   60SAPC   C34 4659   5.493   3.974  10.034  0.0808 -0.5048 -0.0167
   60SAPC   H4X 4660   5.391   4.004  10.068  0.2217 -0.7611  0.6463
   60SAPC   H4Y 4661   5.503   3.864  10.038 -0.7816 -0.6027 -0.4307
   60SAPC   C35 4662   5.493   4.020   9.889 -0.1256  0.4609 -0.2450
   60SAPC   H5X 4663   5.597   4.029   9.849 -0.2684 -0.6865 -0.9229
   60SAPC   H5Y 4664   5.441   4.118   9.885  0.2344  0.6386 -0.5946
   60SAPC   C36 4665   5.400   3.936   9.800  0.4898  0.3932  0.2677
   60SAPC   H6X 4666   5.293   3.958   9.818  0.0507 -1.6977  0.3748
   60SAPC   H6Y 4667   5.411   3.828   9.823  1.5023  0.1763 -1.0973
   60SAPC   C37 4668   5.445   3.950   9.653  0.8876  0.0547 -0.0487
   60SAPC   H7X 4669   5.417   3.859   9.597 -1.8527 -0.4508  1.9238
   60SAPC   H7Y 4670   5.556   3.960   9.649  0.9277 -0.6277 -0.8878
   60SAPC   C38 4671   5.375   4.068   9.580 -0.2878 -0.3120 -0.7219
   60SAPC   H8X 4672   5.391   4.164   9.634 -0.4001 -1.1926  0.9513
   60SAPC   H8Y 4673   5.267   4.042   9.586 -0.5496  0.0006 -3.1129
   60SAPC   C39 4674   5.425   4.083   9.436  0.0103 -0.4085 -0.1802
   60SAPC   H9X 4675   5.393   3.988   9.388 -1.9352  0.1684 -0.1407
   60SAPC   H9Y 4676   5.534   4.095   9.424  0.3561 -1.3730  1.6215
   60SAPC  C310 4677   5.361   4.203   9.364  0.2019 -0.5175 -0.1542
   60SAPC  H10X 4678   5.388   4.305   9.398 -0.1538  0.0989 -1.6339
   60SAPC  H10Y 4679   5.253   4.195   9.387  0.3582  0.1663  0.8778
   60SAPC  C311 4680   5.370   4.189   9.209 -0.3608 -0.7952  0.5354
   60SAPC  H11X 4681   5.340   4.285   9.162  1.0265  0.4316  2.0400
   60SAPC  H11Y 4682   5.303   4.112   9.165  1.9507 -1.5319 -1.8800
   60SAPC  C312 4683   5.514   4.154   9.160  0.6417  0.5330 -1.1555
   60SAPC  H12X 4684   5.546   4.053   9.194  0.3465  1.4139  2.0316
   60SAPC  H12Y 4685   5.579   4.218   9.222 -0.6009  1.0207 -0.3251
   60SAPC  C313 4686   5.513   4.168   9.010 -0.8381  0.4023  0.4535
   60SAPC  H13X 4687   5.620   4.184   8.983 -0.2475 -1.6214  1.3725
   60SAPC  H13Y 4688   5.457   4.257   8.976  0.4045  0.3173 -2.0609
   60SAPC  C314 4689   5.465   4.038   8.935  0.1521 -0.8440  0.2181
   60SAPC  H14X 4690   5.363   4.013   8.970 -1.1681  0.8437 -2.1342
   60SAPC  H14Y 4691   5.547   3.964   8.946  1.6148  0.8199  1.0047
   60SAPC  C315 4692   5.445   4.077   8.787 -0.3385  0.5035  0.5515
   60SAPC  H15X 4693   5.541   4.117   8.750 -1.1480  2.3907  0.3458
   60SAPC  H15Y 4694   5.365   4.154   8.775 -1.9083 -1.1819 -0.2502
   60SAPC  C316 4695   5.400   3.961   8.706 -0.0376  0.0118  0.3563
   60SAPC  H16X 4696   5.327   3.902   8.766  2.8395 -2.0879  2.0146
   60SAPC  H16Y 4697   5.482   3.888   8.694  0.1221  0.3073 -0.4096
   60SAPC  C317 4698   5.354   4.001   8.566  0.0918  0.1113 -0.3515
   60SAPC  H17X 4699   5.426   4.078   8.533  0.0741  1.5648  2.6401
   60SAPC  H17Y 4700   5.255   4.046   8.589 -0.2763 -1.2123  0.8291
   60SAPC  C318 4701   5.332   3.875   8.470 -0.2353 -0.7888 -0.5125
   60SAPC  H18X 4702   5.251   3.807   8.504  0.5269 -0.1638  2.9360
   60SAPC  H18Y 4703   5.429   3.822   8.481 -0.5572 -1.0048  1.9976
   60SAPC  H18Z 4704   5.304   3.912   8.369 -2.3035 -0.5848  0.0787
   61SAPC     N 4705   0.978   4.349  11.281 -0.1353  0.2872  0.1546
   61SAPC   C12 4706   1.052   4.383  11.150  0.0845  0.0012  0.2554
   61SAPC  H12A 4707   1.109   4.296  11.120 -0.9046  0.0196 -1.8827
   61SAPC  H12B 4708   1.123   4.464  11.157 -0.4332  0.4219  0.7398
   61SAPC   C13 4709   0.888   4.459  11.325  0.2553 -0.0773  0.6164
   61SAPC  H13A 4710   0.810   4.473  11.251  1.5897  0.9448 -0.6461
   61SAPC  H13B 4711   0.850   4.440  11.424 -1.3599 -0.5045 -0.0401
   61SAPC  H13C 4712   0.947   4.549  11.327  0.4850 -0.1662 -0.7951
   61SAPC   C14 4713   0.887   4.225  11.254 -0.1998  0.1351 -0.3820
   61SAPC  H14A 4714   0.814   4.245  11.176 -0.0084 -3.1317 -1.5659
   61SAPC  H14B 4715   0.951   4.147  11.217  0.9310  1.8442 -2.2433
   61SAPC  H14C 4716   0.833   4.220  11.347 -0.8030  2.9629 -0.4906
   61SAPC   C15 4717   1.076   4.313  11.381  0.1484  0.5651 -0.6745
   61SAPC  H15A 4718   1.157   4.378  11.411  2.1821 -1.5177 -1.3183
   61SAPC  H15B 4719   1.021   4.301  11.474 -0.3190  1.2405 -0.8547
   61SAPC  H15C 4720   1.131   4.224  11.354 -0.0491 -0.3301  1.5879
   61SAPC   C11 4721   0.970   4.400  11.024  0.4799  0.0692 -0.4409
   61SAPC  H11A 4722   0.951   4.294  10.998 -2.3684  0.6473 -1.0262
   61SAPC  H11B 4723   1.034   4.434  10.940  0.9772 -1.3170 -0.6399
   61SAPC     P 4724   0.735   4.482  10.938 -0.0390  0.0401 -0.1375
   61SAPC   O13 4725   0.720   4.340  10.900 -0.1024 -0.3529  0.8057
   61SAPC   O14 4726   0.618   4.541  11.007  0.1799  0.4080 -0.5814
   61SAPC   O12 4727   0.865   4.497  11.035 -0.0982 -0.4741 -0.5160
   61SAPC   O11 4728   0.774   4.566  10.806 -0.4443  0.2137  0.5920
   61SAPC    C1 4729   0.817   4.703  10.804  0.5498  0.9432 -0.0082
   61SAPC    HA 4730   0.738   4.777  10.826 -1.1587 -0.8879  0.2548
   61SAPC    HB 4731   0.900   4.723  10.875  1.0638  0.4622 -0.4581
   61SAPC    C2 4732   0.867   4.730  10.659  0.4257  0.3635  0.0025
   61SAPC    HS 4733   0.891   4.838  10.653 -0.5038  0.4942 -1.9886
   61SAPC   O21 4734   0.777   4.699  10.550  0.4215  0.0733 -0.8531
   61SAPC   C21 4735   0.663   4.756  10.543 -0.6553  0.5284  0.2112
   61SAPC   O22 4736   0.613   4.835  10.615 -0.2894 -0.9119 -0.1702
   61SAPC   C22 4737   0.602   4.702  10.413 -0.8992 -0.0840 -0.4976
   61SAPC   H2R 4738   0.677   4.634  10.367  0.2643  0.6343  0.2779
   61SAPC   H2S 4739   0.512   4.644  10.443 -1.3649  2.4031  3.9434
   61SAPC    C3 4740   1.002   4.660  10.635  0.0876 -0.2294  0.4726
   61SAPC    HX 4741   0.981   4.552  10.650 -0.6368  0.1833  2.8960
   61SAPC    HY 4742   1.072   4.689  10.717  0.9828 -0.6770 -0.1174
   61SAPC   O31 4743   1.056   4.698  10.505  0.3000  0.2335  0.1942
   61SAPC   C31 4744   1.171   4.643  10.486  0.6958  0.3979  0.6324
   61SAPC   O32 4745   1.228   4.559  10.555 -0.4419 -0.6519  0.2415
   61SAPC   C32 4746   1.226   4.697  10.361 -0.4463  0.2723 -0.0995
   61SAPC   H2X 4747   1.329   4.664  10.335 -0.2016  0.3683  0.7041
   61SAPC   H2Y 4748   1.226   4.808  10.367 -0.1764  0.1906  2.3702
   61SAPC   C23 4749   0.558   4.814  10.313  0.7620  0.7234  0.3015
   61SAPC   H3R 4750   0.657   4.857  10.286  0.0489  2.8793  0.9324
   61SAPC   H3S 4751   0.511   4.893  10.375  1.6380  2.4089 -1.0828
   61SAPC   C24 4752   0.466   4.775  10.201 -0.0792  0.8141  0.1537
   61SAPC   H4R 4753   0.416   4.860  10.151 -1.0766 -1.4619 -3.0248
   61SAPC   H4S 4754   0.400   4.707  10.259  1.2081 -0.2973  0.3673
   61SAPC   C25 4755   0.542   4.688  10.102  0.2410  0.2585 -0.1142
   61SAPC   H5R 4756   0.573   4.593  10.148 -1.1812  0.2659  0.9342
   61SAPC   C26 4757   0.579   4.710   9.971 -0.1006  0.3570  0.8865
   61SAPC   H6R 4758   0.639   4.631   9.922 -2.6904 -1.5473  0.5773
   61SAPC   C27 4759   0.555   4.835   9.890 -0.5144  0.0806  0.0287
   61SAPC   H7R 4760   0.634   4.837   9.812 -0.3091 -0.0871  0.2316
   61SAPC   H7S 4761   0.570   4.926   9.952 -2.2159  1.9975 -2.2056
   61SAPC   C28 4762   0.423   4.853   9.822 -0.8836 -1.0533 -0.1420
   61SAPC   H8R 4763   0.336   4.858   9.889 -2.2332 -3.1246 -1.6128
   61SAPC   C29 4764   0.391   4.860   9.689  0.2101 -0.5834  0.0487
   61SAPC   H9R 4765   0.282   4.866   9.678  0.1878  2.0985  1.0441
   61SAPC  C210 4766   0.471   4.843   9.559 -0.5462 -0.5556 -0.8722
   61SAPC  H10R 4767   0.398   4.790   9.494  1.0020 -1.1201 -2.2285
   61SAPC  H10S 4768   0.550   4.764   9.567  0.0166  0.0293 -0.6054
   61SAPC  C211 4769   0.534   4.959   9.502  0.3225 -0.6141 -0.0489
   61SAPC  H11R 4770   0.599   5.023   9.564  1.2179 -0.7367 -0.8419
   61SAPC  C212 4771   0.516   4.985   9.372 -0.8296 -0.2393 -0.8218
   61SAPC  H12R 4772   0.570   5.072   9.333 -1.3133  0.5765  0.2805
   61SAPC  C213 4773   0.444   4.899   9.267 -0.6741 -0.7299  0.1037
   61SAPC  H13R 4774   0.354   4.957   9.235 -2.1523 -2.7023  0.5124
   61SAPC  H13S 4775   0.396   4.803   9.297  0.9715 -2.1306 -1.5544
   61SAPC  C214 4776   0.531   4.879   9.145 -0.2003 -0.2655  0.2885
   61SAPC  H14R 4777   0.639   4.879   9.164  0.2871 -0.9646 -2.1277
   61SAPC  C215 4778   0.492   4.874   9.015 -0.6868 -0.4499  0.9869
   61SAPC  H15R 4779   0.572   4.848   8.945 -1.4227  0.0800 -0.0945
   61SAPC  C216 4780   0.354   4.895   8.963  0.2211  0.0242 -0.7373
   61SAPC  H16R 4781   0.282   4.848   9.034  0.7998  0.3004  0.0475
   61SAPC  H16S 4782   0.332   4.842   8.868  1.0758 -1.7563  0.0126
   61SAPC  C217 4783   0.316   5.048   8.952  0.3311 -0.7017 -0.1153
   61SAPC  H17R 4784   0.344   5.107   9.042 -1.7338 -0.3147  0.3254
   61SAPC  H17S 4785   0.205   5.056   8.950  0.2242 -2.0089 -0.2130
   61SAPC  C218 4786   0.364   5.106   8.819  0.4884 -0.3425 -0.2552
   61SAPC  H18R 4787   0.350   5.054   8.721  2.5326  2.0834 -1.9616
   61SAPC  H18S 4788   0.473   5.121   8.830  0.2129  1.1517  0.7344
   61SAPC  C219 4789   0.298   5.243   8.796 -0.2111  0.2524 -0.2991
   61SAPC  H19R 4790   0.362   5.301   8.725  0.0637  3.1509  2.1342
   61SAPC  H19S 4791   0.302   5.296   8.893 -0.2648 -0.9009  0.3576
   61SAPC  C220 4792   0.152   5.225   8.742  0.1334  0.3896 -0.3368
   61SAPC  H20R 4793   0.156   5.148   8.662 -0.2216 -1.4910  1.3621
   61SAPC  H20S 4794   0.116   5.321   8.702 -0.0529 -0.7453 -3.0989
   61SAPC  H20T 4795   0.087   5.174   8.816  2.1471 -0.0310  1.2506
   61SAPC   C33 4796   1.144   4.663  10.238  1.1878 -0.3792  0.2172
   61SAPC   H3X 4797   1.193   4.715  10.152  0.1983  0.7558  0.2960
   61SAPC   H3Y 4798   1.038   4.697  10.239  1.0010 -0.3750 -3.5906
   61SAPC   C34 4799   1.138   4.512  10.207  0.3200 -0.6965 -0.5953
   61SAPC   H4X 4800   1.112   4.449  10.295 -0.9530 -1.3209 -1.3956
   61SAPC   H4Y 4801   1.240   4.483  10.174  2.3011  0.4796  3.7056
   61SAPC   C35 4802   1.035   4.485  10.096 -0.8499 -0.1247 -0.2715
   61SAPC   H5X 4803   0.935   4.507  10.137  0.4340  1.5950  2.2068
   61SAPC   H5Y 4804   1.036   4.379  10.063 -0.3668 -0.2025 -0.0207
   61SAPC   C36 4805   1.061   4.569   9.970 -0.2046  0.3598 -0.1387
   61SAPC   H6X 4806   1.164   4.562   9.928  0.7538 -2.8239  2.3455
   61SAPC   H6Y 4807   1.046   4.674  10.004 -1.6934  0.4437 -0.9498
   61SAPC   C37 4808   0.954   4.543   9.869 -0.0058  0.3126  0.0776
   61SAPC   H7X 4809   0.851   4.542   9.913 -0.4928 -2.1924 -0.9166
   61SAPC   H7Y 4810   0.979   4.444   9.826  0.3496 -1.0583  3.1284
   61SAPC   C38 4811   0.956   4.641   9.751 -0.7995  0.9381 -0.0555
   61SAPC   H8X 4812   1.052   4.634   9.695 -0.8004 -2.0491  0.1259
   61SAPC   H8Y 4813   0.931   4.742   9.790  2.4787  2.1149 -0.7390
   61SAPC   C39 4814   0.856   4.604   9.639 -0.0413  0.4504 -0.2688
   61SAPC   H9X 4815   0.757   4.607   9.690  1.6951  0.0567  3.4494
   61SAPC   H9Y 4816   0.880   4.505   9.596 -1.1813 -0.0306  0.1684
   61SAPC  C310 4817   0.855   4.703   9.518  0.2318 -0.2476  0.1379
   61SAPC  H10X 4818   0.841   4.801   9.569  1.6501 -0.3694  0.8129
   61SAPC  H10Y 4819   0.762   4.692   9.458  0.0629  1.8456 -0.0836
   61SAPC  C311 4820   0.977   4.724   9.427 -0.8162 -0.1526  0.4797
   61SAPC  H11X 4821   1.000   4.626   9.380 -0.2648  0.6789 -1.0695
   61SAPC  H11Y 4822   1.065   4.748   9.489  0.1405 -1.4215 -0.3548
   61SAPC  C312 4823   0.956   4.831   9.322 -0.4924 -0.7341  0.0728
   61SAPC  H12X 4824   0.910   4.913   9.380  0.6473  0.4428 -0.6422
   61SAPC  H12Y 4825   0.875   4.797   9.254 -0.9473 -0.4397  0.4671
   61SAPC  C313 4826   1.073   4.892   9.244 -0.5355 -0.4952  0.5818
   61SAPC  H13X 4827   1.120   4.823   9.171 -0.1356 -1.7100  1.9311
   61SAPC  H13Y 4828   1.147   4.920   9.322 -0.2905 -0.4617  0.3380
   61SAPC  C314 4829   1.035   5.022   9.172  0.3090  0.8906 -0.4683
   61SAPC  H14X 4830   1.125   5.084   9.149  1.0611 -0.5733 -1.6779
   61SAPC  H14Y 4831   0.984   5.073   9.256  1.1640  1.4366 -0.2660
   61SAPC  C315 4832   0.945   5.008   9.053  0.3020  0.0414 -0.4050
   61SAPC  H15X 4833   0.927   5.110   9.012 -2.9088 -0.3458 -0.2581
   61SAPC  H15Y 4834   0.845   4.970   9.083  0.0228  0.2233 -1.0818
   61SAPC  C316 4835   1.006   4.924   8.945 -0.7788 -0.1596 -0.8797
   61SAPC  H16X 4836   1.024   4.816   8.968 -0.4365 -0.1653 -1.1644
   61SAPC  H16Y 4837   1.107   4.964   8.921  0.3948 -1.4189  1.6201
   61SAPC  C317 4838   0.923   4.921   8.816  0.2308  0.1190  0.2370
   61SAPC  H17X 4839   0.935   5.022   8.771  0.4730 -0.4028 -0.8980
   61SAPC  H17Y 4840   0.817   4.894   8.832  0.6789 -1.5481  0.5857
   61SAPC  C318 4841   0.997   4.832   8.721  0.7016 -0.1584 -0.0807
   61SAPC  H18X 4842   1.106   4.853   8.719  1.0542 -1.8729 -0.6329
   61SAPC  H18Y 4843   0.955   4.840   8.619  1.8998  1.7120 -0.4899
   61SAPC  H18Z 4844   0.978   4.726   8.747  1.7296 -0.3922 -0.2445
   62SAPC     N 4845   0.539   3.718  11.082 -0.1845  0.2421 -0.4931
   62SAPC   C12 4846   0.508   3.788  10.949 -0.5673 -0.5831  0.2571
   62SAPC  H12A 4847   0.586   3.760  10.879 -0.1878 -2.3250  1.3060
   62SAPC  H12B 4848   0.506   3.890  10.984  0.2479 -0.5086  0.1197
   62SAPC   C13 4849   0.417   3.731  11.170  0.2362  0.1742  0.1261
   62SAPC  H13A 4850   0.328   3.684  11.132 -0.5237 -2.4499  4.4735
   62SAPC  H13B 4851   0.427   3.679  11.264 -1.7098 -0.3267  0.0992
   62SAPC  H13C 4852   0.398   3.837  11.182 -0.2311  0.3255 -1.6359
   62SAPC   C14 4853   0.559   3.574  11.062 -0.0694 -0.4302  0.3594
   62SAPC  H14A 4854   0.480   3.535  11.000 -2.1716  1.3644  1.7897
   62SAPC  H14B 4855   0.646   3.553  11.001  0.1064 -3.3192  1.4378
   62SAPC  H14C 4856   0.559   3.508  11.148 -1.2443 -1.7880 -0.6371
   62SAPC   C15 4857   0.657   3.778  11.140 -0.8136  0.2837 -0.3278
   62SAPC  H15A 4858   0.748   3.761  11.085 -0.6661  2.4007 -0.8176
   62SAPC  H15B 4859   0.645   3.885  11.142  0.5065  0.4727 -1.2043
   62SAPC  H15C 4860   0.682   3.753  11.241  0.0667  0.8864 -0.3913
   62SAPC   C11 4861   0.376   3.751  10.880 -0.7895 -0.0594  0.3702
   62SAPC  H11A 4862   0.374   3.824  10.797 -0.9318  0.2366  0.6332
   62SAPC  H11B 4863   0.284   3.764  10.941 -0.3898 -0.6016  1.1029
   62SAPC     P 4864   0.409   3.584  10.686 -0.2344  0.0723  0.4418
   62SAPC   O13 4865   0.535   3.643  10.652  0.0904  0.0850  0.2575
   62SAPC   O14 4866   0.401   3.436  10.665 -0.2192  0.3752 -0.8394
   62SAPC   O12 4867   0.381   3.612  10.839  0.1054  0.0130  0.2525
   62SAPC   O11 4868   0.297   3.652  10.612  0.8511 -0.1504  0.7033
   62SAPC    C1 4869   0.311   3.779  10.554 -0.7677 -0.7709  0.1048
   62SAPC    HA 4870   0.373   3.852  10.610 -0.0690  0.2773 -1.9111
   62SAPC    HB 4871   0.352   3.774  10.451 -2.9803  1.8824 -1.0403
   62SAPC    C2 4872   0.180   3.863  10.536  0.2857 -0.3028  0.0736
   62SAPC    HS 4873   0.154   3.874  10.644 -0.7064  2.1898 -0.3516
   62SAPC   O21 4874   0.082   3.795  10.459  0.3279 -0.3204  0.7772
   62SAPC   C21 4875  -0.042   3.852  10.472  0.3154  0.3875  0.1227
   62SAPC   O22 4876  -0.057   3.947  10.541  0.4305 -0.3346  0.3025
   62SAPC   C22 4877  -0.151   3.771  10.392  0.2888 -0.2530  0.1675
   62SAPC   H2R 4878  -0.100   3.694  10.330  2.7215  3.1608 -2.4896
   62SAPC   H2S 4879  -0.207   3.724  10.476 -0.1626 -0.2668 -0.1410
   62SAPC    C3 4880   0.227   4.002  10.467 -0.0122  0.3311  0.1928
   62SAPC    HX 4881   0.305   4.042  10.534  0.5594  1.8202 -1.2801
   62SAPC    HY 4882   0.140   4.069  10.482 -0.2724 -0.1975  1.1721
   62SAPC   O31 4883   0.269   3.972  10.337  0.3431 -0.2942  0.3427
   62SAPC   C31 4884   0.187   4.017  10.243  0.2434 -0.4316  0.7232
   62SAPC   O32 4885   0.093   4.095  10.258 -0.3268  0.5366  0.0145
   62SAPC   C32 4886   0.228   3.962  10.109  0.3124  0.3443  0.0458
   62SAPC   H2X 4887   0.222   3.851  10.114  0.5425  0.1486 -2.4732
   62SAPC   H2Y 4888   0.335   3.988  10.103  1.2878 -3.3093 -0.7186
   62SAPC   C23 4889  -0.248   3.858  10.311  0.5038  0.4884 -0.3333
   62SAPC   H3R 4890  -0.271   3.949  10.370 -2.7863  0.0768 -0.8066
   62SAPC   H3S 4891  -0.337   3.793  10.298  0.7423  0.1386 -0.2344
   62SAPC   C24 4892  -0.192   3.900  10.173 -0.6317 -0.0708 -0.0733
   62SAPC   H4R 4893  -0.180   3.806  10.116  0.7303 -0.7415  1.2295
   62SAPC   H4S 4894  -0.090   3.942  10.190  0.1298 -1.6367 -0.5558
   62SAPC   C25 4895  -0.284   4.000  10.103  0.1700 -0.1155  0.2493
   62SAPC   H5R 4896  -0.348   4.069  10.160 -2.7286 -3.0145  0.8091
   62SAPC   C26 4897  -0.313   4.010   9.971  0.0932  0.5349  0.3032
   62SAPC   H6R 4898  -0.375   4.094   9.936  1.7167  2.4351  1.7640
   62SAPC   C27 4899  -0.260   3.920   9.862  0.5832  0.5188 -0.3410
   62SAPC   H7R 4900  -0.302   3.817   9.870  0.8384  0.5088  1.1386
   62SAPC   H7S 4901  -0.150   3.906   9.876  0.7752  0.6854 -1.5778
   62SAPC   C28 4902  -0.275   3.983   9.727 -0.3957 -0.4262  0.1971
   62SAPC   H8R 4903  -0.260   4.092   9.725 -0.0099 -0.4784  0.1907
   62SAPC   C29 4904  -0.316   3.930   9.617 -0.2914 -0.2204  0.4553
   62SAPC   H9R 4905  -0.336   3.988   9.526 -1.3667 -0.7126  0.3665
   62SAPC  C210 4906  -0.357   3.786   9.592 -0.2799 -0.5380  0.4594
   62SAPC  H10R 4907  -0.321   3.730   9.682 -3.6337  1.1696  3.1091
   62SAPC  H10S 4908  -0.304   3.756   9.500  0.8919 -0.8318  1.2060
   62SAPC  C211 4909  -0.505   3.768   9.585  0.1551  0.0336 -0.6480
   62SAPC  H11R 4910  -0.551   3.790   9.683  2.2102 -2.8667  1.1442
   62SAPC  C212 4911  -0.576   3.723   9.479 -0.7190  0.6329  0.4177
   62SAPC  H12R 4912  -0.685   3.720   9.493 -1.0144  0.1440 -1.6499
   62SAPC  C213 4913  -0.525   3.681   9.341  0.1927 -0.3292 -0.4768
   62SAPC  H13R 4914  -0.439   3.747   9.318 -1.5176  2.1736 -0.0783
   62SAPC  H13S 4915  -0.599   3.713   9.264  0.0465  0.3743 -0.0524
   62SAPC  C214 4916  -0.497   3.538   9.334  0.4413  0.0211  0.4766
   62SAPC  H14R 4917  -0.461   3.498   9.430  0.3108  0.0760  0.5493
   62SAPC  C215 4918  -0.502   3.463   9.221  0.4320 -0.6018 -0.4897
   62SAPC  H15R 4919  -0.486   3.354   9.227  1.5948 -0.4355 -0.3450
   62SAPC  C216 4920  -0.552   3.519   9.083  0.0682 -0.1475 -0.1199
   62SAPC  H16R 4921  -0.482   3.482   9.005  0.0705 -1.7597  0.6059
   62SAPC  H16S 4922  -0.532   3.628   9.078  2.0600 -0.3504  1.8287
   62SAPC  C217 4923  -0.700   3.494   9.046 -0.3493  0.1408 -0.3302
   62SAPC  H17R 4924  -0.766   3.538   9.123 -0.3655 -2.2100  1.1141
   62SAPC  H17S 4925  -0.725   3.385   9.042 -1.4671  0.3765 -4.5588
   62SAPC  C218 4926  -0.736   3.536   8.903  0.8233 -0.4201  0.4274
   62SAPC  H18R 4927  -0.687   3.474   8.825 -1.6200 -2.1950  0.1820
   62SAPC  H18S 4928  -0.712   3.642   8.883 -0.7303 -0.5788 -2.8599
   62SAPC  C219 4929  -0.889   3.534   8.876  0.6323 -0.3839 -0.3399
   62SAPC  H19R 4930  -0.923   3.430   8.892  1.7814 -0.5669  1.2726
   62SAPC  H19S 4931  -0.898   3.560   8.768  0.7403  0.0167 -0.2574
   62SAPC  C220 4932  -0.972   3.633   8.956 -0.3059 -0.3478 -0.3588
   62SAPC  H20R 4933  -1.009   3.597   9.055 -0.5199 -0.8249 -0.6077
   62SAPC  H20S 4934  -1.069   3.631   8.901 -1.8447 -0.5157  2.1996
   62SAPC  H20T 4935  -0.926   3.733   8.968  0.7308 -0.8603  0.0268
   62SAPC   C33 4936   0.138   4.014   9.994 -0.0578 -0.2745  0.4464
   62SAPC   H3X 4937   0.129   4.124  10.004  2.1193  0.3617 -2.9267
   62SAPC   H3Y 4938   0.039   3.964   9.999 -0.7341  1.0791  1.0275
   62SAPC   C34 4939   0.186   3.980   9.854 -0.8532  0.1595 -0.3662
   62SAPC   H4X 4940   0.215   3.872   9.852  2.0298  0.8588 -0.7451
   62SAPC   H4Y 4941   0.288   4.021   9.836 -1.1737  0.6086 -1.2320
   62SAPC   C35 4942   0.105   4.012   9.721  0.2060 -0.0032  0.3225
   62SAPC   H5X 4943   0.044   4.103   9.740 -0.0188 -0.2284  0.6871
   62SAPC   H5Y 4944   0.032   3.929   9.711 -0.5996  0.6855  0.3417
   62SAPC   C36 4945   0.202   4.024   9.602  0.3602  0.5637  0.5660
   62SAPC   H6X 4946   0.270   3.936   9.604  0.3669  0.5686  0.5529
   62SAPC   H6Y 4947   0.258   4.120   9.600 -0.1212  0.9256 -3.8091
   62SAPC   C37 4948   0.125   4.017   9.469 -0.4139  0.3614 -0.3775
   62SAPC   H7X 4949   0.085   4.121   9.464  0.0193  0.5443 -0.0541
   62SAPC   H7Y 4950   0.053   3.934   9.482  0.4125 -0.1130  1.5522
   62SAPC   C38 4951   0.217   4.003   9.341 -0.3552  0.2465 -0.7532
   62SAPC   H8X 4952   0.277   3.909   9.347  1.6590  1.4845 -0.5296
   62SAPC   H8Y 4953   0.296   4.080   9.356 -0.6302  0.6198 -1.2240
   62SAPC   C39 4954   0.137   4.035   9.218 -0.3317  0.4879 -1.0302
   62SAPC   H9X 4955   0.092   4.137   9.221 -1.2817  0.0610  0.7311
   62SAPC   H9Y 4956   0.053   3.964   9.207 -0.9734  0.9272  0.6869
   62SAPC  C310 4957   0.214   4.017   9.087  0.3808 -0.6811 -0.1802
   62SAPC  H10X 4958   0.156   3.977   9.001  0.9129 -2.2824  0.1624
   62SAPC  H10Y 4959   0.299   3.950   9.112 -0.3841 -0.9083  2.0504
   62SAPC  C311 4960   0.261   4.152   9.046  0.2094  0.0272 -0.7157
   62SAPC  H11X 4961   0.344   4.182   9.114 -2.0794  3.7861  0.6999
   62SAPC  H11Y 4962   0.186   4.230   9.071 -0.6803 -1.2509  0.7818
   62SAPC  C312 4963   0.296   4.162   8.896 -0.8254  0.0711 -0.1971
   62SAPC  H12X 4964   0.348   4.260   8.886 -0.5139 -0.1799 -1.1689
   62SAPC  H12Y 4965   0.210   4.152   8.826 -1.3011  0.0231  0.3910
   62SAPC  C313 4966   0.421   4.079   8.851 -0.1020  0.7697 -0.5539
   62SAPC  H13X 4967   0.391   3.972   8.853  1.1458  0.3746 -1.7242
   62SAPC  H13Y 4968   0.497   4.078   8.932 -0.4726 -2.3016 -0.1123
   62SAPC  C314 4969   0.490   4.126   8.721  0.0540 -0.9211 -0.7644
   62SAPC  H14X 4970   0.539   4.226   8.724 -2.1866  0.2424 -0.9972
   62SAPC  H14Y 4971   0.414   4.150   8.644  0.0782  3.7667  0.3447
   62SAPC  C315 4972   0.581   4.015   8.662 -0.1749 -0.7799 -0.5977
   62SAPC  H15X 4973   0.598   4.056   8.560  0.3180  1.7288  0.4145
   62SAPC  H15Y 4974   0.519   3.923   8.653 -0.5275 -0.6516  0.3648
   62SAPC  C316 4975   0.711   3.990   8.732 -0.1473 -0.9037  0.5143
   62SAPC  H16X 4976   0.761   3.916   8.667 -0.8759 -0.3740 -0.6755
   62SAPC  H16Y 4977   0.699   3.958   8.838 -0.0685  1.3107  1.2411
   62SAPC  C317 4978   0.802   4.114   8.723  0.5572  0.3024  0.7463
   62SAPC  H17X 4979   0.755   4.205   8.766 -0.5314  2.4311 -4.1749
   62SAPC  H17Y 4980   0.816   4.145   8.617  0.4200  1.7684  1.1440
   62SAPC  C318 4981   0.944   4.092   8.773  0.1181  0.4918  0.0716
   62SAPC  H18X 4982   0.934   4.065   8.880  0.3304  0.1771  0.0121
   62SAPC  H18Y 4983   1.012   4.179   8.774  0.4919  0.2013  1.5900
   62SAPC  H18Z 4984   0.992   4.007   8.720 -2.9428 -0.3018 -1.7243
   63SAPC     N 4985   4.613   5.958   6.573 -0.1419  0.6900  0.5160
   63SAPC   C12 4986   4.688   6.085   6.545 -0.2308 -0.1884 -0.4480
   63SAPC  H12A 4987   4.787   6.068   6.585 -0.0140 -0.8895 -1.2514
   63SAPC  H12B 4988   4.637   6.159   6.604  0.1546 -0.6987  0.5571
   63SAPC   C13 4989   4.595   5.935   6.710  1.1404  0.3339 -0.6477
   63SAPC  H13A 4990   4.545   5.840   6.726  0.0677  0.8548 -0.8517
   63SAPC  H13B 4991   4.686   5.940   6.769  1.1110  1.7383 -0.7011
   63SAPC  H13C 4992   4.535   6.006   6.764  2.3775  0.4159  0.6840
   63SAPC   C14 4993   4.474   5.969   6.515 -0.3410 -0.1781  0.1901
   63SAPC  H14A 4994   4.432   5.871   6.501 -0.1340 -0.8256  3.3506
   63SAPC  H14B 4995   4.400   5.999   6.588 -0.2163 -0.8918  0.6196
   63SAPC  H14C 4996   4.476   6.021   6.421  0.0318 -0.4927  0.0249
   63SAPC   C15 4997   4.686   5.838   6.512 -0.2538  0.0787 -0.4116
   63SAPC  H15A 4998   4.641   5.752   6.560 -1.2459  0.2933 -0.9188
   63SAPC  H15B 4999   4.679   5.842   6.404 -2.3743  1.3270 -0.2789
   63SAPC  H15C 5000   4.791   5.841   6.536 -0.3822  0.1609  0.1569
   63SAPC   C11 5001   4.706   6.136   6.398  0.0943 -0.1639 -0.6503
   63SAPC  H11A 5002   4.714   6.041   6.342  0.3345 -1.2521  1.1612
   63SAPC  H11B 5003   4.792   6.205   6.389 -0.0021  0.6748  3.2064
   63SAPC     P 5004   4.553   6.347   6.397  0.5339  0.0004  0.3987
   63SAPC   O13 5005   4.654   6.440   6.334  0.0859  0.5836  0.6790
   63SAPC   O14 5006   4.408   6.375   6.360  0.2928  0.2635  0.1623
   63SAPC   O12 5007   4.583   6.201   6.362  0.4060  0.3030 -0.0964
   63SAPC   O11 5008   4.573   6.359   6.553 -0.2079 -0.2142 -0.1779
   63SAPC    C1 5009   4.461   6.329   6.633 -0.3949  0.2169 -0.0710
   63SAPC    HA 5010   4.374   6.397   6.623 -0.9646  0.6399  4.9520
   63SAPC    HB 5011   4.432   6.223   6.621  0.7795  0.0490 -1.6825
   63SAPC    C2 5012   4.496   6.349   6.781 -0.1985  0.0235 -0.4320
   63SAPC    HS 5013   4.526   6.456   6.789  0.6511 -0.3101  1.1973
   63SAPC   O21 5014   4.616   6.267   6.807  0.3447 -0.6642 -0.1924
   63SAPC   C21 5015   4.699   6.308   6.899 -0.3695  0.2666 -0.0497
   63SAPC   O22 5016   4.706   6.419   6.942 -0.3735 -0.3795 -0.1540
   63SAPC   C22 5017   4.820   6.209   6.907 -0.0944 -0.3274  0.1804
   63SAPC   H2R 5018   4.819   6.143   6.818  1.8530  2.7305 -2.3273
   63SAPC   H2S 5019   4.914   6.267   6.897 -0.3536 -0.1564 -1.4749
   63SAPC    C3 5020   4.374   6.310   6.874 -0.6435  0.4100 -0.4875
   63SAPC    HX 5021   4.366   6.199   6.881  1.3418  0.3185  1.5218
   63SAPC    HY 5022   4.280   6.349   6.830 -0.4646  0.7366 -0.5847
   63SAPC   O31 5023   4.392   6.351   7.010  0.3996  0.0174  0.9150
   63SAPC   C31 5024   4.362   6.471   7.035  0.0094 -0.6883 -0.4709
   63SAPC   O32 5025   4.310   6.557   6.959  0.3400 -0.3469  0.0426
   63SAPC   C32 5026   4.406   6.503   7.176 -0.4529  0.1562  0.1668
   63SAPC   H2X 5027   4.481   6.431   7.216  1.5314  2.3175  0.5247
   63SAPC   H2Y 5028   4.321   6.505   7.247  1.5144  3.7055  2.7817
   63SAPC   C23 5029   4.817   6.130   7.043  0.5296 -0.2939 -0.4874
   63SAPC   H3R 5030   4.842   6.188   7.134 -1.8176  1.7370 -1.0445
   63SAPC   H3S 5031   4.899   6.058   7.024  0.1685 -0.6825 -0.5828
   63SAPC   C24 5032   4.693   6.045   7.063  0.2367  0.3521 -0.7506
   63SAPC   H4R 5033   4.701   5.949   7.117  1.3838 -1.2385 -3.4993
   63SAPC   H4S 5034   4.664   6.018   6.959  1.1139 -0.5662 -0.7757
   63SAPC   C25 5035   4.587   6.125   7.137 -0.4420 -0.7379 -0.1024
   63SAPC   H5R 5036   4.516   6.176   7.069  0.5180  1.3619  0.3841
   63SAPC   C26 5037   4.579   6.147   7.267 -0.7340 -0.7053 -0.4482
   63SAPC   H6R 5038   4.499   6.212   7.308  0.3205  0.2627  0.1200
   63SAPC   C27 5039   4.674   6.104   7.375 -0.3752 -0.7927 -0.2589
   63SAPC   H7R 5040   4.774   6.075   7.337  1.0763 -0.6880  3.1029
   63SAPC   H7S 5041   4.631   6.012   7.420 -0.6657 -0.9324 -0.8172
   63SAPC   C28 5042   4.704   6.206   7.489 -0.2608  0.0543  0.8872
   63SAPC   H8R 5043   4.710   6.310   7.454  2.5440 -1.3691 -3.7903
   63SAPC   C29 5044   4.735   6.186   7.620  0.5161  0.6113 -0.5176
   63SAPC   H9R 5045   4.739   6.272   7.688 -0.2404  0.4613 -0.2676
   63SAPC  C210 5046   4.757   6.050   7.691  0.2401 -0.6086 -0.0641
   63SAPC  H10R 5047   4.861   6.042   7.730 -0.4245  1.7443  2.4523
   63SAPC  H10S 5048   4.749   5.963   7.622 -1.3338 -0.1990 -0.4244
   63SAPC  C211 5049   4.668   6.033   7.809  0.0681 -0.0584  0.0425
   63SAPC  H11R 5050   4.580   5.970   7.790  0.9041 -1.7102  1.3615
   63SAPC  C212 5051   4.692   6.069   7.938 -0.7717  0.8024  0.9374
   63SAPC  H12R 5052   4.622   6.044   8.019 -1.2385  0.4316  0.4217
   63SAPC  C213 5053   4.817   6.139   7.988  0.6246  0.3471 -0.6013
   63SAPC  H13R 5054   4.903   6.109   7.924  0.4667  0.8295 -1.0415
   63SAPC  H13S 5055   4.852   6.099   8.086 -1.0098 -1.9093 -0.8687
   63SAPC  C214 5056   4.812   6.287   7.994 -1.4019  0.5291  0.5783
   63SAPC  H14R 5057   4.853   6.338   7.906 -0.5574  0.2041  0.7796
   63SAPC  C215 5058   4.766   6.365   8.097  0.5069  0.3753  0.3645
   63SAPC  H15R 5059   4.762   6.475   8.089  0.0471  0.1951 -3.3422
   63SAPC  C216 5060   4.706   6.306   8.221  0.3086 -0.6025 -0.2946
   63SAPC  H16R 5061   4.638   6.227   8.180  0.6119 -0.3561 -1.3019
   63SAPC  H16S 5062   4.643   6.377   8.278  2.4157  1.7411 -0.6956
   63SAPC  C217 5063   4.799   6.244   8.325 -0.4259  0.0429 -0.2418
   63SAPC  H17R 5064   4.896   6.298   8.317 -1.4974  1.8794 -1.7249
   63SAPC  H17S 5065   4.831   6.138   8.314  1.5341  0.6858 -1.2003
   63SAPC  C218 5066   4.747   6.242   8.457 -0.3203 -0.1694 -0.7648
   63SAPC  H18R 5067   4.666   6.167   8.458  0.8294 -1.4633 -1.9347
   63SAPC  H18S 5068   4.702   6.330   8.510 -0.6913 -0.6683 -0.2392
   63SAPC  C219 5069   4.843   6.185   8.566 -0.5602 -0.7967  0.0734
   63SAPC  H19R 5070   4.891   6.091   8.533 -2.2651 -1.3961 -0.8297
   63SAPC  H19S 5071   4.778   6.153   8.650  0.0325 -1.6928  0.1994
   63SAPC  C220 5072   4.949   6.283   8.611 -0.4559  0.0815 -0.3964
   63SAPC  H20R 5073   4.893   6.376   8.632  0.5952  0.1564  2.6940
   63SAPC  H20S 5074   5.017   6.290   8.524 -2.1755 -1.4662 -1.9351
   63SAPC  H20T 5075   4.989   6.256   8.712 -2.3516 -0.4244  0.2591
   63SAPC   C33 5076   4.464   6.641   7.199 -0.1252 -1.1166 -0.1856
   63SAPC   H3X 5077   4.379   6.701   7.237  0.5583 -1.0345  1.3039
   63SAPC   H3Y 5078   4.504   6.678   7.102  0.6195 -0.8649  0.2086
   63SAPC   C34 5079   4.577   6.640   7.303  0.1667 -0.1094  0.6074
   63SAPC   H4X 5080   4.605   6.747   7.318 -3.3442  1.0046  0.2122
   63SAPC   H4Y 5081   4.662   6.571   7.284 -0.0941  0.2940 -2.4026
   63SAPC   C35 5082   4.520   6.609   7.441 -0.0429 -0.1877 -0.2208
   63SAPC   H5X 5083   4.501   6.500   7.442  1.4583 -0.4602 -0.3084
   63SAPC   H5Y 5084   4.422   6.660   7.454  0.6121  0.9663  0.4311
   63SAPC   C36 5085   4.625   6.644   7.548  0.4828 -0.3097 -0.0283
   63SAPC   H6X 5086   4.643   6.753   7.535 -1.5577 -0.1098 -1.8669
   63SAPC   H6Y 5087   4.716   6.585   7.526  0.0222 -1.2817  0.5927
   63SAPC   C37 5088   4.584   6.620   7.698 -0.3907  0.0467  0.5589
   63SAPC   H7X 5089   4.589   6.510   7.716 -1.2169  0.3040  2.6987
   63SAPC   H7Y 5090   4.484   6.660   7.726 -0.7101 -0.7243  0.5516
   63SAPC   C38 5091   4.679   6.688   7.794  0.0322  0.0609 -0.1863
   63SAPC   H8X 5092   4.680   6.797   7.772 -1.2833 -0.1970 -1.6671
   63SAPC   H8Y 5093   4.776   6.633   7.793  0.1645  0.0898  2.8937
   63SAPC   C39 5094   4.624   6.671   7.942  0.1890 -0.4753 -0.8069
   63SAPC   H9X 5095   4.645   6.563   7.958 -0.0552 -0.4491 -0.3066
   63SAPC   H9Y 5096   4.515   6.692   7.943  0.9196  4.4993  1.5930
   63SAPC  C310 5097   4.695   6.759   8.052 -0.2432  0.3067 -0.0733
   63SAPC  H10X 5098   4.676   6.855   8.000 -0.1489  0.1748 -0.3592
   63SAPC  H10Y 5099   4.805   6.741   8.045 -0.5549 -1.5898 -0.7490
   63SAPC  C311 5100   4.627   6.753   8.189  0.5179  0.4093  0.1929
   63SAPC  H11X 5101   4.642   6.653   8.234  0.2016  0.6329  0.8143
   63SAPC  H11Y 5102   4.517   6.767   8.179  0.6497  0.3276 -1.8556
   63SAPC  C312 5103   4.685   6.854   8.287  0.1965 -0.6704  0.0359
   63SAPC  H12X 5104   4.697   6.956   8.246  2.3378 -1.6151 -1.9169
   63SAPC  H12Y 5105   4.792   6.824   8.298  0.8610  1.9260  1.5354
   63SAPC  C313 5106   4.599   6.843   8.409  0.0420  0.3033  0.2694
   63SAPC  H13X 5107   4.493   6.861   8.380  0.2020 -0.7837 -1.1106
   63SAPC  H13Y 5108   4.623   6.913   8.492  0.4527  0.3598  0.1084
   63SAPC  C314 5109   4.588   6.704   8.485  0.0678  0.2368  1.2444
   63SAPC  H14X 5110   4.527   6.636   8.421 -1.0139  1.4771  0.9134
   63SAPC  H14Y 5111   4.521   6.711   8.574 -0.1986  0.0147  1.0620
   63SAPC  C315 5112   4.725   6.640   8.515 -0.0708 -0.7075  0.2592
   63SAPC  H15X 5113   4.782   6.618   8.422  0.3555  2.8692 -0.4655
   63SAPC  H15Y 5114   4.717   6.544   8.572 -0.5402 -0.7190  0.1709
   63SAPC  C316 5115   4.797   6.730   8.615 -0.0703 -0.2469  0.1753
   63SAPC  H16X 5116   4.738   6.763   8.704 -0.5608 -0.1695 -0.1752
   63SAPC  H16Y 5117   4.839   6.808   8.548  1.4946 -0.7211  0.5691
   63SAPC  C317 5118   4.922   6.668   8.661 -0.2242  0.5374 -0.3789
   63SAPC  H17X 5119   4.970   6.616   8.575 -1.5388 -2.1850  0.4161
   63SAPC  H17Y 5120   4.902   6.584   8.731 -0.5056 -0.4284 -1.5800
   63SAPC  C318 5121   5.027   6.767   8.713  0.5033  0.5604 -0.4094
   63SAPC  H18X 5122   5.069   6.832   8.634 -1.0913 -1.5072 -3.1016
   63SAPC  H18Y 5123   5.117   6.708   8.742 -0.1734 -0.5340 -0.4845
   63SAPC  H18Z 5124   4.994   6.816   8.807 -0.8670  0.3323 -0.7529
   64SAPC     N 5125   6.712   2.220   5.849 -0.5679  0.1159 -0.1822
   64SAPC   C12 5126   6.748   2.094   5.922 -0.5993 -0.3576 -0.0653
   64SAPC  H12A 5127   6.855   2.088   5.908 -0.2134  2.0879  1.3539
   64SAPC  H12B 5128   6.680   2.022   5.879  1.1405 -2.6731  0.8665
   64SAPC   C13 5129   6.773   2.340   5.920 -0.1922 -0.2984  0.1746
   64SAPC  H13A 5130   6.751   2.340   6.025 -1.0040  3.1202  0.1249
   64SAPC  H13B 5131   6.880   2.322   5.923 -0.1142  0.2439  0.7728
   64SAPC  H13C 5132   6.749   2.432   5.869 -0.3881 -0.2694  0.3192
   64SAPC   C14 5133   6.769   2.212   5.715  0.6533  0.4804 -0.0617
   64SAPC  H14A 5134   6.862   2.160   5.698 -0.5519 -2.2829  1.1684
   64SAPC  H14B 5135   6.704   2.151   5.655  1.5532 -0.4448 -0.1349
   64SAPC  H14C 5136   6.769   2.309   5.668  1.5483 -0.6458 -2.5431
   64SAPC   C15 5137   6.569   2.242   5.851  0.1847 -0.8150  0.1370
   64SAPC  H15A 5138   6.534   2.262   5.951  0.4560  1.5614 -0.1638
   64SAPC  H15B 5139   6.543   2.318   5.778  1.1510  0.4790  1.0840
   64SAPC  H15C 5140   6.513   2.156   5.819 -1.7407  1.5731 -3.5322
   64SAPC   C11 5141   6.721   2.089   6.073 -0.0043 -0.3946  0.6767
   64SAPC  H11A 5142   6.712   1.985   6.112  0.3498 -0.1575  1.4142
   64SAPC  H11B 5143   6.629   2.140   6.107  0.8460  0.8241  1.2225
   64SAPC     P 5144   6.955   2.074   6.200 -0.1281 -0.1155  0.1300
   64SAPC   O13 5145   7.020   1.990   6.099  0.2559  0.7983  0.1100
   64SAPC   O14 5146   7.047   2.163   6.271  0.3951  0.5106 -0.1757
   64SAPC   O12 5147   6.826   2.153   6.147 -0.3064 -0.3651  0.2966
   64SAPC   O11 5148   6.891   1.974   6.304  0.1028  0.1747  0.0193
   64SAPC    C1 5149   6.958   1.928   6.424  0.5435  0.0410 -0.3682
   64SAPC    HA 5150   6.930   1.823   6.447  2.2364 -0.6175 -1.1679
   64SAPC    HB 5151   7.068   1.919   6.412  0.8047  1.0002  0.9553
   64SAPC    C2 5152   6.919   2.007   6.548 -0.4463  0.4852 -0.6449
   64SAPC    HS 5153   6.956   2.110   6.534  1.0230 -0.0313 -0.6779
   64SAPC   O21 5154   6.973   1.939   6.665 -0.0086 -0.9259 -0.1622
   64SAPC   C21 5155   7.090   1.982   6.710 -1.3103  0.0432  0.0447
   64SAPC   O22 5156   7.162   2.062   6.651  0.0322  0.5196 -0.9753
   64SAPC   C22 5157   7.124   1.903   6.848 -0.5219  0.1771  0.5045
   64SAPC   H2R 5158   7.022   1.890   6.890 -0.8859  0.5053 -0.2524
   64SAPC   H2S 5159   7.155   1.801   6.816 -2.3430  0.1229 -1.2929
   64SAPC    C3 5160   6.763   2.012   6.561 -0.4301  0.1087 -0.7357
   64SAPC    HX 5161   6.729   1.913   6.600 -1.5808  0.8733  0.2708
   64SAPC    HY 5162   6.715   2.044   6.466 -2.3616  2.6023  0.9622
   64SAPC   O31 5163   6.717   2.110   6.663  0.6933  0.1098  0.5535
   64SAPC   C31 5164   6.592   2.105   6.701 -0.2338 -0.5039 -0.1172
   64SAPC   O32 5165   6.507   2.027   6.665  0.1578 -0.6341  0.0306
   64SAPC   C32 5166   6.569   2.226   6.796 -0.1233  0.3496 -1.1853
   64SAPC   H2X 5167   6.473   2.271   6.762 -0.6657 -0.9249 -1.3658
   64SAPC   H2Y 5168   6.648   2.303   6.782  1.7666 -1.0036  1.1995
   64SAPC   C23 5169   7.231   1.972   6.939  0.1765  0.0328  0.1271
   64SAPC   H3R 5170   7.187   2.057   6.996  1.3324  0.7461  0.0129
   64SAPC   H3S 5171   7.309   2.007   6.868  1.1309 -2.0489  0.0819
   64SAPC   C24 5172   7.295   1.873   7.040  0.6653  0.5225 -0.5872
   64SAPC   H4R 5173   7.386   1.923   7.080  0.6270  2.5937 -2.8610
   64SAPC   H4S 5174   7.332   1.795   6.970 -0.3494  0.1683 -0.7322
   64SAPC   C25 5175   7.209   1.798   7.137 -0.2098 -0.0342  0.1345
   64SAPC   H5R 5176   7.179   1.697   7.106 -2.0878 -0.6220  3.3799
   64SAPC   C26 5177   7.166   1.830   7.262  0.1132  0.2636  0.9501
   64SAPC   H6R 5178   7.111   1.748   7.311  0.1934 -0.4192 -0.0809
   64SAPC   C27 5179   7.194   1.953   7.346 -0.6433  0.5116 -0.0099
   64SAPC   H7R 5180   7.112   1.979   7.416 -1.6250 -0.2717 -0.8377
   64SAPC   H7S 5181   7.216   2.036   7.275 -2.0754 -0.2798 -1.4558
   64SAPC   C28 5182   7.330   1.927   7.416  0.1389  0.3207 -0.4153
   64SAPC   H8R 5183   7.417   1.933   7.348  0.6175 -1.9712 -0.1134
   64SAPC   C29 5184   7.348   1.925   7.550  0.4905  0.1854  0.2105
   64SAPC   H9R 5185   7.446   1.896   7.590  0.7181 -0.2358 -0.6449
   64SAPC  C210 5186   7.235   1.926   7.648 -1.0105 -0.2534  0.0214
   64SAPC  H10R 5187   7.153   1.862   7.609 -0.5868  0.3209 -1.9216
   64SAPC  H10S 5188   7.187   2.026   7.646 -0.8697 -0.1813  0.2451
   64SAPC  C211 5189   7.269   1.904   7.797 -0.1746  0.2838  0.3215
   64SAPC  H11R 5190   7.367   1.941   7.830 -0.1911  2.2203 -1.6305
   64SAPC  C212 5191   7.191   1.842   7.886 -0.2466 -0.3018 -0.9349
   64SAPC  H12R 5192   7.236   1.821   7.984 -0.0425  0.0511 -0.9516
   64SAPC  C213 5193   7.053   1.788   7.870 -0.4184  0.2111  0.0034
   64SAPC  H13R 5194   7.019   1.780   7.765 -2.3057 -0.5179  0.6284
   64SAPC  H13S 5195   6.982   1.861   7.915 -3.1783 -2.4484  0.2756
   64SAPC  C214 5196   7.031   1.657   7.948 -0.5739  0.5334  0.3636
   64SAPC  H14R 5197   7.048   1.575   7.877  0.1812  2.0926 -1.3618
   64SAPC  C215 5198   7.004   1.647   8.080  0.5283  0.4138  0.2181
   64SAPC  H15R 5199   6.982   1.548   8.122  1.9281  0.2717  0.6838
   64SAPC  C216 5200   6.973   1.757   8.180 -0.4684  0.2331 -0.3876
   64SAPC  H16R 5201   6.870   1.752   8.222  0.6190 -0.0757  2.5123
   64SAPC  H16S 5202   6.976   1.852   8.121 -0.8660 -0.4159 -1.4733
   64SAPC  C217 5203   7.072   1.777   8.309  0.8159 -0.5724  0.6876
   64SAPC  H17R 5204   7.071   1.685   8.371 -0.9127  0.5933  2.5448
   64SAPC  H17S 5205   7.032   1.870   8.356  0.2172  1.2895 -3.1185
   64SAPC  C218 5206   7.208   1.818   8.251  0.3356 -0.1765  0.4953
   64SAPC  H18R 5207   7.206   1.903   8.179  2.1165 -2.7120 -2.8157
   64SAPC  H18S 5208   7.242   1.734   8.188  0.2964 -0.6030  1.0331
   64SAPC  C219 5209   7.315   1.858   8.355  0.0320  0.3455 -0.1125
   64SAPC  H19R 5210   7.342   1.762   8.403  0.4302  0.8367  0.6710
   64SAPC  H19S 5211   7.279   1.930   8.431  1.1849 -0.1981  0.9669
   64SAPC  C220 5212   7.442   1.926   8.287 -0.2269 -0.9051 -0.1982
   64SAPC  H20R 5213   7.518   1.923   8.367 -1.8064  0.4667  1.4669
   64SAPC  H20S 5214   7.428   2.030   8.249 -1.0533 -1.5462 -1.7227
   64SAPC  H20T 5215   7.488   1.862   8.209  0.3071  0.6353 -1.1874
   64SAPC   C33 5216   6.571   2.169   6.943  0.6212  0.0808  0.0488
   64SAPC   H3X 5217   6.532   2.066   6.932 -1.9351  0.9260  0.5525
   64SAPC   H3Y 5218   6.501   2.220   7.013 -0.2016 -3.0933  1.7047
   64SAPC   C34 5219   6.701   2.182   7.026  0.5190 -0.0999  0.5137
   64SAPC   H4X 5220   6.733   2.289   7.027 -0.3021  0.1888  2.8538
   64SAPC   H4Y 5221   6.776   2.125   6.968  1.3562  0.5519  0.9372
   64SAPC   C35 5222   6.680   2.130   7.169 -0.1826  0.4941 -0.7680
   64SAPC   H5X 5223   6.615   2.040   7.178  0.7419 -0.1316 -0.1927
   64SAPC   H5Y 5224   6.640   2.212   7.234  1.3455  0.5806  0.1117
   64SAPC   C36 5225   6.823   2.086   7.227 -0.0806 -0.2418  0.4375
   64SAPC   H6X 5226   6.899   2.163   7.201 -0.4583 -0.6388 -2.1629
   64SAPC   H6Y 5227   6.866   2.000   7.172  1.1078  0.0841  0.8150
   64SAPC   C37 5228   6.806   2.033   7.364  0.2880  0.3650 -0.2492
   64SAPC   H7X 5229   6.891   1.967   7.392 -0.1287  0.1818  0.6315
   64SAPC   H7Y 5230   6.718   1.965   7.367  1.3738 -1.2063 -1.8605
   64SAPC   C38 5231   6.815   2.137   7.476  0.4409 -0.1613  0.3883
   64SAPC   H8X 5232   6.730   2.208   7.461  0.4206 -0.6985 -2.6072
   64SAPC   H8Y 5233   6.915   2.185   7.464 -0.7035  2.2268 -0.3078
   64SAPC   C39 5234   6.815   2.083   7.627 -0.6092  0.3426  0.8936
   64SAPC   H9X 5235   6.860   2.165   7.686  0.0187  1.0329 -0.4921
   64SAPC   H9Y 5236   6.887   1.998   7.627 -1.3699 -0.3711  2.9878
   64SAPC  C310 5237   6.675   2.037   7.678 -0.2327  0.4533  0.2743
   64SAPC  H10X 5238   6.640   1.943   7.630  2.1121 -0.1981 -0.2611
   64SAPC  H10Y 5239   6.602   2.120   7.663 -0.6377  0.4483  2.0139
   64SAPC  C311 5240   6.685   2.000   7.829  0.2494 -0.1540  0.0343
   64SAPC  H11X 5241   6.777   1.941   7.845 -0.3785 -0.8948  1.1214
   64SAPC  H11Y 5242   6.598   1.936   7.856 -1.1327  1.3638 -0.6348
   64SAPC  C312 5243   6.683   2.130   7.911 -0.2028 -0.4368 -0.1759
   64SAPC  H12X 5244   6.585   2.181   7.898  0.5307  0.3398 -4.3245
   64SAPC  H12Y 5245   6.758   2.202   7.872  0.3011 -0.2831  1.0404
   64SAPC  C313 5246   6.726   2.107   8.058 -0.6167  0.5836 -0.1300
   64SAPC  H13X 5247   6.819   2.049   8.077 -0.9953 -0.4602 -1.3171
   64SAPC  H13Y 5248   6.648   2.044   8.107 -1.6777  1.4895 -0.6101
   64SAPC  C314 5249   6.741   2.242   8.125  0.4405  0.5870  0.1115
   64SAPC  H14X 5250   6.667   2.309   8.077 -0.6985 -1.1078 -0.5859
   64SAPC  H14Y 5251   6.844   2.282   8.108  0.9101  0.1705  1.8273
   64SAPC  C315 5252   6.703   2.230   8.276  0.6840 -0.0614  0.8367
   64SAPC  H15X 5253   6.796   2.193   8.326  1.8745  1.2530 -0.2940
   64SAPC  H15Y 5254   6.615   2.164   8.288 -1.1519  1.4578 -2.6528
   64SAPC  C316 5255   6.669   2.367   8.339  0.2107 -0.4159 -0.8354
   64SAPC  H16X 5256   6.621   2.343   8.436 -3.1839  0.9368 -2.0371
   64SAPC  H16Y 5257   6.594   2.421   8.277 -1.4163 -1.1759  0.3968
   64SAPC  C317 5258   6.784   2.471   8.346  0.1741 -0.1487 -0.4647
   64SAPC  H17X 5259   6.831   2.481   8.247  1.4720  2.0492  0.3008
   64SAPC  H17Y 5260   6.859   2.418   8.409 -0.7742  0.0831  0.9085
   64SAPC  C318 5261   6.732   2.598   8.405 -0.4539  0.5261  0.8519
   64SAPC  H18X 5262   6.817   2.667   8.424  0.9873 -1.0219  0.2884
   64SAPC  H18Y 5263   6.691   2.567   8.503 -0.0427 -2.9007  0.0791
   64SAPC  H18Z 5264   6.663   2.652   8.338 -0.9593 -0.7859  0.2722
   65SAPC     N 5265   5.962   2.601   6.021  0.2914  0.0845 -0.3277
   65SAPC   C12 5266   6.024   2.622   6.159  0.5865  0.0583  0.3406
   65SAPC  H12A 5267   5.946   2.598   6.229 -1.8984 -1.5666 -2.7071
   65SAPC  H12B 5268   6.027   2.729   6.173 -1.2384  0.3315 -0.9493
   65SAPC   C13 5269   5.846   2.692   6.005  0.6517 -0.3757 -0.3557
   65SAPC  H13A 5270   5.794   2.691   6.100  0.9435 -0.9226 -0.1938
   65SAPC  H13B 5271   5.882   2.790   5.975  1.0305 -0.8224 -1.4303
   65SAPC  H13C 5272   5.774   2.666   5.929 -1.8204 -0.9249  2.0027
   65SAPC   C14 5273   6.057   2.629   5.914 -0.2028 -0.0732  0.3046
   65SAPC  H14A 5274   6.098   2.728   5.925 -0.3015  0.0399 -0.3374
   65SAPC  H14B 5275   6.142   2.561   5.917 -1.0737 -1.3146 -1.2834
   65SAPC  H14C 5276   6.017   2.629   5.814 -0.6714 -1.7912  0.4480
   65SAPC   C15 5277   5.922   2.459   6.022  0.7641  0.1718  0.5139
   65SAPC  H15A 5278   6.007   2.399   6.052 -1.5732 -2.8122  1.6745
   65SAPC  H15B 5279   5.846   2.432   6.093  1.2644 -1.3452  0.5064
   65SAPC  H15C 5280   5.881   2.426   5.928 -0.7553  0.6172  1.0001
   65SAPC   C11 5281   6.153   2.560   6.205  0.1704 -0.2372  0.7807
   65SAPC  H11A 5282   6.140   2.450   6.191  0.3564 -0.0885 -0.6762
   65SAPC  H11B 5283   6.174   2.586   6.311 -1.2529  1.1031  0.7678
   65SAPC     P 5284   6.328   2.746   6.136 -0.4066  0.0749  0.3859
   65SAPC   O13 5285   6.452   2.750   6.055 -0.5835  0.7558  0.2831
   65SAPC   O14 5286   6.224   2.850   6.104 -0.1938  0.2363 -0.8353
   65SAPC   O12 5287   6.261   2.601   6.121  0.6226  0.4409 -0.1490
   65SAPC   O11 5288   6.367   2.746   6.290 -0.9228  0.1644  0.2334
   65SAPC    C1 5289   6.509   2.772   6.326  0.5648  0.2293 -0.1233
   65SAPC    HA 5290   6.585   2.752   6.248  1.7995 -1.8706  1.4868
   65SAPC    HB 5291   6.512   2.878   6.358 -1.1289  1.7135 -4.3181
   65SAPC    C2 5292   6.547   2.677   6.449  0.1400 -0.7329 -0.0285
   65SAPC    HS 5293   6.520   2.572   6.422 -1.5540 -0.8212  1.7312
   65SAPC   O21 5294   6.471   2.711   6.564  0.0579  0.2336 -0.4968
   65SAPC   C21 5295   6.453   2.615   6.651  0.7642  0.0198 -0.4349
   65SAPC   O22 5296   6.493   2.504   6.637  0.6568 -0.4142 -0.9220
   65SAPC   C22 5297   6.350   2.654   6.763  0.7329  0.2289  0.3926
   65SAPC   H2R 5298   6.403   2.718   6.836  1.7017 -2.1298  1.8627
   65SAPC   H2S 5299   6.263   2.707   6.718 -1.2773 -0.5050  3.1368
   65SAPC    C3 5300   6.697   2.687   6.472  0.5301 -0.1326  0.0499
   65SAPC    HX 5301   6.722   2.795   6.476  0.9840 -0.2652  1.6737
   65SAPC    HY 5302   6.759   2.640   6.392  1.3900 -2.4192  1.9359
   65SAPC   O31 5303   6.731   2.618   6.594 -0.3537  0.3736  0.7456
   65SAPC   C31 5304   6.864   2.590   6.609  0.1408  0.4276  0.4409
   65SAPC   O32 5305   6.948   2.664   6.555 -0.2605  0.7114  0.4194
   65SAPC   C32 5306   6.883   2.478   6.716  0.1022  0.5622  0.3880
   65SAPC   H2X 5307   6.853   2.382   6.669  0.4943  0.3619  0.5461
   65SAPC   H2Y 5308   6.794   2.491   6.782  0.1187 -1.3123  0.8339
   65SAPC   C23 5309   6.293   2.533   6.840  0.2342 -0.0254 -0.7655
   65SAPC   H3R 5310   6.378   2.471   6.874  0.3212  0.7146  0.4159
   65SAPC   H3S 5311   6.226   2.471   6.776 -1.3323 -1.5842  2.1501
   65SAPC   C24 5312   6.220   2.579   6.966 -0.1810  0.7940  0.3594
   65SAPC   H4R 5313   6.273   2.663   7.016  0.0661  0.2739  0.9762
   65SAPC   H4S 5314   6.228   2.499   7.043 -3.1326 -1.1171 -1.1182
   65SAPC   C25 5315   6.084   2.635   6.932  0.0655  0.2581  0.0006
   65SAPC   H5R 5316   6.080   2.721   6.863 -0.9374  1.4768  1.5174
   65SAPC   C26 5317   5.972   2.600   6.992 -0.1681  0.7174 -0.4387
   65SAPC   H6R 5318   5.881   2.654   6.962 -1.3575 -0.5531  0.7516
   65SAPC   C27 5319   5.947   2.494   7.098  0.4288 -0.5634 -0.0087
   65SAPC   H7R 5320   6.042   2.485   7.155 -0.0928 -2.3119  0.6692
   65SAPC   H7S 5321   5.936   2.393   7.054 -0.5159  0.1380 -1.4436
   65SAPC   C28 5322   5.828   2.523   7.188 -0.4161 -0.0133  0.0129
   65SAPC   H8R 5323   5.731   2.481   7.156 -0.7923  0.3246  0.6945
   65SAPC   C29 5324   5.829   2.583   7.312 -0.1800 -0.2526 -0.1945
   65SAPC   H9R 5325   5.733   2.582   7.365 -1.3071 -1.7370 -2.1436
   65SAPC  C210 5326   5.942   2.645   7.391  0.0154 -0.3023 -0.0454
   65SAPC  H10R 5327   5.904   2.675   7.491  2.8462 -1.3306  1.4504
   65SAPC  H10S 5328   5.967   2.742   7.342 -0.9331 -1.0278 -2.0800
   65SAPC  C211 5329   6.064   2.564   7.430 -0.3176  1.0498 -0.3790
   65SAPC  H11R 5330   6.155   2.576   7.368  0.7773 -3.1103  0.1113
   65SAPC  C212 5331   6.081   2.493   7.541  0.0579  1.0504 -0.2831
   65SAPC  H12R 5332   6.166   2.425   7.552 -1.0981 -1.0933 -3.2264
   65SAPC  C213 5333   5.979   2.473   7.654 -0.2672  1.0405  0.2119
   65SAPC  H13R 5334   5.875   2.489   7.620 -0.3582  1.9789  0.8999
   65SAPC  H13S 5335   6.000   2.546   7.735 -2.3710  2.5289 -0.4979
   65SAPC  C214 5336   5.979   2.328   7.711  0.0775  0.0053  0.7355
   65SAPC  H14R 5337   5.942   2.261   7.632 -1.7734  2.1565 -0.3512
   65SAPC  C215 5338   6.012   2.286   7.836  0.1986 -0.4597  0.6116
   65SAPC  H15R 5339   5.998   2.182   7.869  0.2264 -0.1218  1.7140
   65SAPC  C216 5340   6.047   2.374   7.957 -0.5755 -0.1898 -0.0608
   65SAPC  H16R 5341   6.123   2.447   7.922 -2.5577  1.3371 -1.3803
   65SAPC  H16S 5342   6.098   2.305   8.029 -3.1884 -0.9343  1.1981
   65SAPC  C217 5343   5.932   2.447   8.018 -0.0126 -0.4798 -0.3011
   65SAPC  H17R 5344   5.878   2.505   7.940  2.2290  2.2701  0.0418
   65SAPC  H17S 5345   5.975   2.510   8.098  2.6058 -2.0802 -0.3418
   65SAPC  C218 5346   5.846   2.339   8.077  0.4893  0.8222 -0.4444
   65SAPC  H18R 5347   5.903   2.272   8.144  0.4824  0.4573 -0.8005
   65SAPC  H18S 5348   5.797   2.280   7.996 -0.5815  2.6659 -1.2232
   65SAPC  C219 5349   5.737   2.401   8.161  0.0442 -0.2221 -0.5072
   65SAPC  H19R 5350   5.686   2.314   8.210 -0.3113 -0.9352 -2.0781
   65SAPC  H19S 5351   5.660   2.443   8.092  1.6512  1.2266 -1.4823
   65SAPC  C220 5352   5.773   2.495   8.282 -0.2003 -0.6062 -0.2709
   65SAPC  H20R 5353   5.820   2.591   8.251  1.9631 -1.3847  0.4284
   65SAPC  H20S 5354   5.843   2.447   8.353 -1.1502 -0.6122  0.6925
   65SAPC  H20T 5355   5.679   2.507   8.341  0.5500  1.1548  0.6533
   65SAPC   C33 5356   7.018   2.458   6.780  0.1643  0.1853 -0.5027
   65SAPC   H3X 5357   7.086   2.444   6.693 -0.6364  1.7001 -1.4157
   65SAPC   H3Y 5358   7.008   2.366   6.841  0.0047  0.3230 -0.3215
   65SAPC   C34 5359   7.064   2.574   6.867 -0.0386 -0.1325  0.0256
   65SAPC   H4X 5360   6.999   2.575   6.957 -1.4062 -0.7198 -0.9257
   65SAPC   H4Y 5361   7.058   2.673   6.818 -0.4964  0.1178  0.5739
   65SAPC   C35 5362   7.208   2.543   6.927  0.1222 -0.7130 -0.2079
   65SAPC   H5X 5363   7.258   2.635   6.963  1.9615 -1.3904 -0.8981
   65SAPC   H5Y 5364   7.273   2.511   6.842  2.2705 -0.3065  1.2098
   65SAPC   C36 5365   7.204   2.438   7.037 -0.0862  0.7060 -0.0863
   65SAPC   H6X 5366   7.308   2.426   7.075 -0.5547  0.1751  1.0620
   65SAPC   H6Y 5367   7.178   2.338   6.997  0.1910  0.5409  0.1366
   65SAPC   C37 5368   7.129   2.481   7.166  0.5258  0.5807  0.3985
   65SAPC   H7X 5369   7.021   2.464   7.148  0.6732 -1.6373  1.3018
   65SAPC   H7Y 5370   7.155   2.588   7.184  1.2843  1.0744 -3.0177
   65SAPC   C38 5371   7.168   2.396   7.291 -0.6798 -0.6441  0.1112
   65SAPC   H8X 5372   7.279   2.384   7.297 -0.0300  3.4709 -0.3595
   65SAPC   H8Y 5373   7.112   2.303   7.268 -1.6479  0.5215 -2.7860
   65SAPC   C39 5374   7.136   2.454   7.430  0.6810  0.1659  0.1393
   65SAPC   H9X 5375   7.028   2.457   7.455  0.9570 -0.8954  1.5985
   65SAPC   H9Y 5376   7.160   2.562   7.422  1.2055 -0.0869 -2.4877
   65SAPC  C310 5377   7.204   2.376   7.543 -0.3443  0.2279 -0.2312
   65SAPC  H10X 5378   7.306   2.417   7.557 -0.9996  2.4904 -1.5043
   65SAPC  H10Y 5379   7.201   2.267   7.520 -1.3969  0.3418 -0.7052
   65SAPC  C311 5380   7.135   2.394   7.682 -0.2169  0.5071 -0.2717
   65SAPC  H11X 5381   7.024   2.386   7.680 -0.1362 -0.7808 -2.3592
   65SAPC  H11Y 5382   7.166   2.495   7.715 -0.0021  0.4759 -0.3797
   65SAPC  C312 5383   7.192   2.301   7.790  0.2293  0.4174  0.0213
   65SAPC  H12X 5384   7.299   2.326   7.808  0.3423  0.6379 -0.8936
   65SAPC  H12Y 5385   7.178   2.199   7.748 -4.6346  1.0771 -0.5337
   65SAPC  C313 5386   7.117   2.308   7.925  0.0534  0.3349 -0.4501
   65SAPC  H13X 5387   7.016   2.262   7.924 -0.0661  0.5816  0.2672
   65SAPC  H13Y 5388   7.108   2.414   7.959  0.9480 -1.0609  4.9665
   65SAPC  C314 5389   7.188   2.235   8.044 -0.7669 -1.0827  0.5033
   65SAPC  H14X 5390   7.291   2.275   8.030 -1.6447  0.5018 -2.2540
   65SAPC  H14Y 5391   7.196   2.125   8.030  5.1554 -1.0990  1.5034
   65SAPC  C315 5392   7.129   2.284   8.179  0.0471  0.7066 -1.0222
   65SAPC  H15X 5393   7.038   2.227   8.208 -0.5565  2.4992  0.8032
   65SAPC  H15Y 5394   7.118   2.394   8.190  0.2053  0.5124  1.8881
   65SAPC  C316 5395   7.219   2.235   8.293  0.2352  0.4880  0.1910
   65SAPC  H16X 5396   7.323   2.274   8.287  0.2739  0.3372 -0.1248
   65SAPC  H16Y 5397   7.242   2.127   8.287  0.2914  0.5674 -1.3859
   65SAPC  C317 5398   7.180   2.271   8.432 -0.6037 -0.1980 -0.4529
   65SAPC  H17X 5399   7.079   2.230   8.453 -0.3430 -1.0085 -0.7419
   65SAPC  H17Y 5400   7.189   2.382   8.430  1.3081 -0.3219 -0.2590
   65SAPC  C318 5401   7.271   2.225   8.538 -0.8500  0.0918 -0.7637
   65SAPC  H18X 5402   7.367   2.280   8.538 -1.2570  0.8019 -1.5835
   65SAPC  H18Y 5403   7.306   2.120   8.524  1.9940  0.7147  0.7975
   65SAPC  H18Z 5404   7.230   2.238   8.641  0.4026 -3.2992  0.3180
   66SAPC     N 5405   4.110   1.719   6.128 -0.2351  0.0621  0.0847
   66SAPC   C12 5406   4.205   1.800   6.211  0.5525 -0.5561  0.1526
   66SAPC  H12A 5407   4.150   1.853   6.287  2.0807  1.4069 -0.0114
   66SAPC  H12B 5408   4.234   1.881   6.147 -0.6124  0.1686  0.5148
   66SAPC   C13 5409   4.183   1.644   6.015  0.4269  0.0679  0.1643
   66SAPC  H13A 5410   4.274   1.596   6.051  1.6293  2.0962 -0.0259
   66SAPC  H13B 5411   4.112   1.576   5.971  0.9923 -2.1941  2.4690
   66SAPC  H13C 5412   4.227   1.712   5.944 -0.0313 -0.1286 -0.3102
   66SAPC   C14 5413   4.037   1.629   6.219 -0.3593  0.4292 -0.6896
   66SAPC  H14A 5414   3.958   1.580   6.164 -1.3188  1.3733 -0.1890
   66SAPC  H14B 5415   4.097   1.548   6.257 -0.9535  0.4171  0.2597
   66SAPC  H14C 5416   3.982   1.686   6.293 -1.2489  0.5898 -1.4502
   66SAPC   C15 5417   4.020   1.812   6.052 -0.3028 -0.3739 -0.4496
   66SAPC  H15A 5418   4.076   1.860   5.973 -0.8544 -0.9349 -1.2031
   66SAPC  H15B 5419   3.942   1.765   5.993 -0.9841 -3.0418  2.3311
   66SAPC  H15C 5420   3.977   1.878   6.126  1.5461 -0.6147  0.9105
   66SAPC   C11 5421   4.334   1.729   6.263  0.0481 -0.8812  0.7983
   66SAPC  H11A 5422   4.299   1.646   6.328 -0.3493  0.1287  1.9060
   66SAPC  H11B 5423   4.371   1.799   6.340 -1.3921  1.1061 -0.2178
   66SAPC     P 5424   4.529   1.580   6.179  0.0255 -0.3898 -0.4085
   66SAPC   O13 5425   4.460   1.466   6.233  0.3566  0.5565 -0.4646
   66SAPC   O14 5426   4.604   1.559   6.052 -0.0379 -0.3040  0.0665
   66SAPC   O12 5427   4.425   1.697   6.150  0.2134 -0.3222 -0.0991
   66SAPC   O11 5428   4.624   1.641   6.292  0.0672 -0.0594 -0.5660
   66SAPC    C1 5429   4.717   1.747   6.283  0.0579  0.4352  0.4536
   66SAPC    HA 5430   4.803   1.716   6.220 -0.6907  0.6315 -0.6937
   66SAPC    HB 5431   4.668   1.831   6.230 -0.5137 -0.8291 -1.0950
   66SAPC    C2 5432   4.756   1.797   6.423  0.5256  0.0554 -0.1208
   66SAPC    HS 5433   4.801   1.898   6.411  0.8269 -0.2139 -1.4989
   66SAPC   O21 5434   4.860   1.711   6.479  0.4575  0.9657 -0.2888
   66SAPC   C21 5435   4.939   1.762   6.570 -0.0831  0.3303  0.2125
   66SAPC   O22 5436   4.948   1.879   6.599  0.5933  0.1255 -0.4378
   66SAPC   C22 5437   5.021   1.643   6.624 -0.0787 -0.5057  0.3371
   66SAPC   H2R 5438   4.949   1.565   6.657  0.5347 -0.3843  2.0347
   66SAPC   H2S 5439   5.078   1.590   6.544 -0.9772 -2.6984  1.0684
   66SAPC    C3 5440   4.634   1.807   6.518  0.2348  0.2380  0.2009
   66SAPC    HX 5441   4.552   1.736   6.492 -1.0968  0.6090  2.9388
   66SAPC    HY 5442   4.586   1.903   6.488 -2.8583 -1.7918 -1.8568
   66SAPC   O31 5443   4.673   1.783   6.656 -0.0051 -0.3389  0.7038
   66SAPC   C31 5444   4.595   1.841   6.753  0.6368 -0.9562  0.1254
   66SAPC   O32 5445   4.487   1.896   6.727 -0.0776 -0.3372 -0.6775
   66SAPC   C32 5446   4.659   1.835   6.887 -0.7472 -0.0378 -0.0323
   66SAPC   H2X 5447   4.747   1.903   6.878 -0.3681 -0.4212  0.6529
   66SAPC   H2Y 5448   4.689   1.728   6.899 -0.1355  0.0115 -0.9956
   66SAPC   C23 5449   5.122   1.674   6.733 -0.3461  0.6367 -0.1545
   66SAPC   H3R 5450   5.182   1.757   6.690  0.0748 -0.6437 -2.1583
   66SAPC   H3S 5451   5.191   1.588   6.746 -1.2351 -0.3065 -1.4245
   66SAPC   C24 5452   5.053   1.706   6.865  0.0824 -0.5321 -0.0455
   66SAPC   H4R 5453   4.980   1.625   6.887 -0.8905 -0.4499 -2.6552
   66SAPC   H4S 5454   4.998   1.801   6.853 -1.0416 -1.3156 -1.4278
   66SAPC   C25 5455   5.148   1.706   6.984 -0.4106 -0.9185  0.7688
   66SAPC   H5R 5456   5.253   1.715   6.955 -1.3640  0.9233 -2.6697
   66SAPC   C26 5457   5.115   1.714   7.111 -0.2548 -0.0581  0.1205
   66SAPC   H6R 5458   5.193   1.694   7.186 -0.0633 -2.3259 -0.6217
   66SAPC   C27 5459   4.978   1.730   7.178  0.4474  0.3265 -0.1811
   66SAPC   H7R 5460   4.958   1.643   7.244 -1.0920 -0.3822 -1.5010
   66SAPC   H7S 5461   4.895   1.719   7.104  0.0911  0.0895  0.2513
   66SAPC   C28 5462   4.965   1.868   7.237 -0.5538 -0.6918  0.4151
   66SAPC   H8R 5463   5.030   1.942   7.187  0.0901 -2.0888 -0.8857
   66SAPC   C29 5464   4.899   1.897   7.356  0.1988  0.1352  0.1799
   66SAPC   H9R 5465   4.903   1.999   7.395  2.1526  0.3813 -0.5677
   66SAPC  C210 5466   4.822   1.799   7.441  0.5057  0.0710 -0.6701
   66SAPC  H10R 5467   4.768   1.725   7.378  0.6089  0.1574 -0.8636
   66SAPC  H10S 5468   4.739   1.844   7.499 -0.3202  1.0616 -2.5161
   66SAPC  C211 5469   4.916   1.723   7.532  0.7325  0.0658 -0.3972
   66SAPC  H11R 5470   5.019   1.717   7.494  0.3946  1.4870 -1.6252
   66SAPC  C212 5471   4.872   1.657   7.648 -0.4927 -1.0583  0.1095
   66SAPC  H12R 5472   4.952   1.618   7.714  1.1585  1.1343 -0.4673
   66SAPC  C213 5473   4.734   1.652   7.700  0.2308  0.7900  0.0773
   66SAPC  H13R 5474   4.659   1.716   7.647 -2.6628 -0.3773  2.4959
   66SAPC  H13S 5475   4.734   1.688   7.805 -1.2241 -0.0615  0.3997
   66SAPC  C214 5476   4.676   1.517   7.706  0.9586  0.0626  0.7013
   66SAPC  H14R 5477   4.645   1.478   7.608  2.2070 -0.0683  0.3520
   66SAPC  C215 5478   4.638   1.442   7.816 -0.3889  0.6506 -0.2957
   66SAPC  H15R 5479   4.592   1.344   7.794  1.2004  0.4997 -3.5121
   66SAPC  C216 5480   4.650   1.477   7.958 -0.1260 -0.1417 -0.4385
   66SAPC  H16R 5481   4.741   1.536   7.983 -1.9848  2.4804  0.6189
   66SAPC  H16S 5482   4.661   1.381   8.012 -0.7692 -0.9194 -1.6438
   66SAPC  C217 5483   4.532   1.533   8.028  0.0901 -0.5733  0.6701
   66SAPC  H17R 5484   4.506   1.619   7.962 -0.3678 -1.3041 -0.1311
   66SAPC  H17S 5485   4.555   1.583   8.124  1.8637 -1.7525  0.9134
   66SAPC  C218 5486   4.415   1.436   8.042 -0.5359 -0.2460 -0.7671
   66SAPC  H18R 5487   4.452   1.336   8.074  1.1856  0.5445 -0.1866
   66SAPC  H18S 5488   4.373   1.417   7.940 -1.4082 -2.3457 -0.0821
   66SAPC  C219 5489   4.299   1.462   8.145  0.0518  0.4722 -0.3272
   66SAPC  H19R 5490   4.225   1.381   8.132 -0.4321  0.8429  0.0842
   66SAPC  H19S 5491   4.248   1.552   8.102 -0.4505 -0.5479 -1.9803
   66SAPC  C220 5492   4.334   1.482   8.296 -0.1926 -0.0501 -0.4614
   66SAPC  H20R 5493   4.255   1.541   8.347  1.1364  3.4136 -2.0506
   66SAPC  H20S 5494   4.423   1.549   8.306  0.6465 -0.8998 -1.9380
   66SAPC  H20T 5495   4.364   1.392   8.355 -1.2089  0.3207  0.6676
   66SAPC   C33 5496   4.572   1.878   7.012 -0.2393 -0.1459  0.7599
   66SAPC   H3X 5497   4.483   1.940   6.988 -1.4051 -2.2392 -0.6386
   66SAPC   H3Y 5498   4.637   1.926   7.088 -0.4342  2.2317 -0.4804
   66SAPC   C34 5499   4.521   1.747   7.083 -0.1844  0.4306 -0.9217
   66SAPC   H4X 5500   4.601   1.674   7.108 -1.5845 -0.7182  0.3973
   66SAPC   H4Y 5501   4.448   1.701   7.013  0.0205  2.2225 -2.3683
   66SAPC   C35 5502   4.450   1.769   7.221  0.4165 -0.0857 -0.2548
   66SAPC   H5X 5503   4.404   1.870   7.216 -0.4846 -0.5338 -4.5110
   66SAPC   H5Y 5504   4.534   1.791   7.291  0.7171  1.1415 -0.9578
   66SAPC   C36 5505   4.349   1.671   7.266  0.6432  0.0811 -0.7384
   66SAPC   H6X 5506   4.390   1.568   7.272 -0.7415 -0.4075  1.7900
   66SAPC   H6Y 5507   4.272   1.677   7.187 -0.2699  0.6585  0.1629
   66SAPC   C37 5508   4.276   1.703   7.404 -0.9943 -0.2177  0.4623
   66SAPC   H7X 5509   4.192   1.633   7.419 -1.3680  0.0350 -0.4229
   66SAPC   H7Y 5510   4.236   1.806   7.393  0.5882  0.3618 -0.1993
   66SAPC   C38 5511   4.390   1.703   7.510  0.0671 -0.5084 -0.2137
   66SAPC   H8X 5512   4.454   1.793   7.496 -0.5077 -0.1635 -0.6815
   66SAPC   H8Y 5513   4.456   1.617   7.485 -2.1211 -1.6448 -2.5064
   66SAPC   C39 5514   4.344   1.694   7.660 -0.3432  0.6066 -0.8723
   66SAPC   H9X 5515   4.434   1.700   7.724 -0.7891  1.1673 -0.2846
   66SAPC   H9Y 5516   4.317   1.588   7.678  1.9235  0.4443  2.3687
   66SAPC  C310 5517   4.236   1.797   7.699 -0.5376 -0.5624  0.1682
   66SAPC  H10X 5518   4.146   1.773   7.637 -0.6343  0.8903 -0.2819
   66SAPC  H10Y 5519   4.266   1.901   7.677 -0.7041 -1.0343 -2.6895
   66SAPC  C311 5520   4.201   1.782   7.846  0.2711 -0.5340 -0.2753
   66SAPC  H11X 5521   4.284   1.819   7.909 -0.0479  0.6576 -0.5326
   66SAPC  H11Y 5522   4.178   1.675   7.866  0.9306 -0.4988  0.7304
   66SAPC  C312 5523   4.073   1.867   7.887  0.1123  0.0168 -0.0266
   66SAPC  H12X 5524   3.980   1.815   7.855 -0.0137  0.8294 -1.0251
   66SAPC  H12Y 5525   4.071   1.971   7.847  1.9983  0.1677  0.1731
   66SAPC  C313 5526   4.053   1.878   8.042 -0.3057  0.1589 -0.0904
   66SAPC  H13X 5527   4.052   1.772   8.076  2.0727  0.5266  1.4251
   66SAPC  H13Y 5528   3.950   1.915   8.058  0.3284  2.3593 -0.8124
   66SAPC  C314 5529   4.157   1.950   8.123  0.2311 -0.3103  0.3732
   66SAPC  H14X 5530   4.177   2.044   8.069 -0.4218  1.1896  2.5754
   66SAPC  H14Y 5531   4.240   1.882   8.152 -1.4504 -2.1809  1.0114
   66SAPC  C315 5532   4.104   1.992   8.263 -0.0416 -0.2631 -0.0805
   66SAPC  H15X 5533   4.022   2.066   8.254  1.8441  1.6857 -2.7769
   66SAPC  H15Y 5534   4.181   2.047   8.320 -0.7259  0.5238  0.0976
   66SAPC  C316 5535   4.058   1.871   8.350  0.0989 -0.2253  0.0943
   66SAPC  H16X 5536   4.129   1.786   8.340  0.0645 -0.6150  2.6154
   66SAPC  H16Y 5537   3.966   1.838   8.299  0.2091  1.1179 -1.0479
   66SAPC  C317 5538   4.031   1.902   8.498 -0.1316 -0.6542  0.3741
   66SAPC  H17X 5539   3.958   1.985   8.493  2.7126  1.9815 -1.0110
   66SAPC  H17Y 5540   4.125   1.929   8.551 -0.5712 -1.8013  1.7922
   66SAPC  C318 5541   3.972   1.786   8.576 -0.0888  0.4191  0.1632
   66SAPC  H18X 5542   3.988   1.798   8.685  1.2623  1.9985 -0.1708
   66SAPC  H18Y 5543   4.025   1.696   8.539 -1.1933 -0.7822  1.4078
   66SAPC  H18Z 5544   3.864   1.788   8.546 -0.2998  0.8905  0.9330
   67SAPC     N 5545   5.474   3.709   6.351  0.1912  0.0351 -0.3477
   67SAPC   C12 5546   5.485   3.557   6.347 -0.0090  0.1158  0.5023
   67SAPC  H12A 5547   5.585   3.530   6.316  0.5433 -1.1233  3.0787
   67SAPC  H12B 5548   5.411   3.527   6.275  0.9016  1.4439 -1.0643
   67SAPC   C13 5549   5.339   3.755   6.395  0.5887  0.0021  0.0087
   67SAPC  H13A 5550   5.264   3.715   6.329 -0.5662  2.7326 -0.4504
   67SAPC  H13B 5551   5.312   3.731   6.496 -1.1849 -0.5686 -0.5740
   67SAPC  H13C 5552   5.333   3.863   6.390  2.2815  0.1243 -0.1262
   67SAPC   C14 5553   5.578   3.764   6.451 -0.0673 -0.3320  0.0783
   67SAPC  H14A 5554   5.674   3.745   6.405 -0.4803 -1.7860 -0.2363
   67SAPC  H14B 5555   5.570   3.870   6.474  0.7370  0.4823 -2.9986
   67SAPC  H14C 5556   5.576   3.711   6.545 -0.0630 -0.7779 -0.1692
   67SAPC   C15 5557   5.495   3.757   6.211 -0.3801  0.2521  0.2179
   67SAPC  H15A 5558   5.594   3.734   6.173  0.2143  0.6705  1.4754
   67SAPC  H15B 5559   5.422   3.710   6.147  1.0316  1.0408 -2.0959
   67SAPC  H15C 5560   5.478   3.861   6.190 -0.9354  0.0815 -0.1958
   67SAPC   C11 5561   5.459   3.477   6.474  1.1072  0.6306  0.1497
   67SAPC  H11A 5562   5.445   3.370   6.445  1.3025  1.3762 -3.1257
   67SAPC  H11B 5563   5.366   3.509   6.525 -0.3662 -1.1105 -1.2975
   67SAPC     P 5564   5.701   3.395   6.531 -0.3205 -0.7091 -0.2352
   67SAPC   O13 5565   5.740   3.399   6.387 -0.0600 -0.1206 -0.5214
   67SAPC   O14 5566   5.806   3.429   6.633  0.5595  0.0399 -0.0810
   67SAPC   O12 5567   5.580   3.488   6.559  0.2370 -0.3237  0.1768
   67SAPC   O11 5568   5.643   3.254   6.566 -0.3741  0.0152 -0.3798
   67SAPC    C1 5569   5.583   3.227   6.693 -0.3238  0.7101 -0.1331
   67SAPC    HA 5570   5.517   3.307   6.733 -3.9137 -1.5222 -1.0698
   67SAPC    HB 5571   5.516   3.144   6.662 -0.8550  1.2887 -0.5475
   67SAPC    C2 5572   5.664   3.147   6.810 -0.3391 -0.3612 -0.5966
   67SAPC    HS 5573   5.588   3.119   6.885  1.1178 -0.0720  1.0538
   67SAPC   O21 5574   5.760   3.230   6.872  0.3287  0.5080  0.1722
   67SAPC   C21 5575   5.731   3.332   6.934  0.2017  0.1372  0.3959
   67SAPC   O22 5576   5.617   3.373   6.956 -0.4395  0.0269 -0.3605
   67SAPC   C22 5577   5.860   3.414   6.973  0.2805  0.3580  0.2255
   67SAPC   H2R 5578   5.950   3.350   6.963  1.3987  2.0027 -0.6958
   67SAPC   H2S 5579   5.849   3.495   6.898 -0.2939  0.1544  0.0873
   67SAPC    C3 5580   5.733   3.015   6.761  0.0091 -0.0492  0.2377
   67SAPC    HX 5581   5.816   3.003   6.833  1.3344 -1.2972 -1.4034
   67SAPC    HY 5582   5.766   3.025   6.655 -3.9237 -0.2550 -1.1836
   67SAPC   O31 5583   5.636   2.907   6.769 -0.4742 -0.4936  0.5176
   67SAPC   C31 5584   5.686   2.787   6.745 -0.0487  0.1829  0.0736
   67SAPC   O32 5585   5.804   2.758   6.719  0.1763  0.0524  0.0129
   67SAPC   C32 5586   5.564   2.693   6.716 -0.1625 -0.4604  0.5646
   67SAPC   H2X 5587   5.502   2.754   6.646  0.1790 -1.0547 -0.2590
   67SAPC   H2Y 5588   5.511   2.674   6.812  0.6883  2.3226  1.7049
   67SAPC   C23 5589   5.847   3.488   7.103  1.0637 -0.1001 -0.0731
   67SAPC   H3R 5590   5.750   3.541   7.112 -0.2621 -1.8405 -2.6666
   67SAPC   H3S 5591   5.936   3.554   7.103  0.7355  0.3681  1.3042
   67SAPC   C24 5592   5.850   3.396   7.227  1.1030 -0.5208  0.7377
   67SAPC   H4R 5593   5.937   3.326   7.218  2.1603  0.7686  0.5890
   67SAPC   H4S 5594   5.761   3.331   7.220 -0.8086  1.8228  1.9584
   67SAPC   C25 5595   5.840   3.477   7.353 -0.3295  0.0282  0.0090
   67SAPC   H5R 5596   5.752   3.541   7.373  0.0576 -0.1780  2.7286
   67SAPC   C26 5597   5.941   3.502   7.436 -1.1500  0.3999 -0.3382
   67SAPC   H6R 5598   5.930   3.566   7.525  2.3499  0.3376  0.2831
   67SAPC   C27 5599   6.082   3.439   7.428  0.8987  0.2629  0.5748
   67SAPC   H7R 5600   6.167   3.500   7.465  0.6756  2.2257 -1.8501
   67SAPC   H7S 5601   6.110   3.434   7.320  0.8158  0.9242  0.5194
   67SAPC   C28 5602   6.085   3.305   7.493  0.6468  0.2804  0.6118
   67SAPC   H8R 5603   6.090   3.224   7.419  2.1090  1.8127 -1.0501
   67SAPC   C29 5604   6.077   3.279   7.622  0.9675 -0.0489 -0.6200
   67SAPC   H9R 5605   6.067   3.178   7.662  0.8949  0.0134 -0.4804
   67SAPC  C210 5606   6.072   3.380   7.735  0.2184  0.0124 -0.3647
   67SAPC  H10R 5607   5.975   3.370   7.788 -0.8257 -0.1951 -2.2209
   67SAPC  H10S 5608   6.090   3.482   7.693 -1.5693  0.7681  0.5763
   67SAPC  C211 5609   6.174   3.355   7.833  0.1796  0.1600  0.5654
   67SAPC  H11R 5610   6.260   3.298   7.795  0.9328  0.6452  1.4949
   67SAPC  C212 5611   6.176   3.381   7.966  0.5177  0.6425  0.5410
   67SAPC  H12R 5612   6.255   3.360   8.039  0.1624  1.8924  1.3130
   67SAPC  C213 5613   6.067   3.451   8.042 -0.2188 -0.9880  0.4140
   67SAPC  H13R 5614   6.016   3.373   8.101  2.0266 -2.4648  0.5235
   67SAPC  H13S 5615   5.994   3.503   7.976 -0.8013 -0.4186  1.4936
   67SAPC  C214 5616   6.117   3.556   8.136 -0.5561  0.3968  0.3187
   67SAPC  H14R 5617   6.160   3.642   8.082  2.9578 -1.5679 -0.3125
   67SAPC  C215 5618   6.106   3.556   8.268  0.1301 -0.4747  0.1081
   67SAPC  H15R 5619   6.148   3.640   8.326  1.9513 -1.9717  1.0608
   67SAPC  C216 5620   6.045   3.461   8.361  0.8276 -0.3234 -0.4838
   67SAPC  H16R 5621   5.943   3.444   8.320  1.0472 -0.1328 -1.1171
   67SAPC  H16S 5622   6.037   3.509   8.461  1.8494  1.0464 -1.0385
   67SAPC  C217 5623   6.122   3.331   8.391 -0.6366  0.1852  0.5379
   67SAPC  H17R 5624   6.227   3.344   8.424  0.1916  1.6296 -2.2971
   67SAPC  H17S 5625   6.131   3.282   8.291  0.8729  0.5827  0.4569
   67SAPC  C218 5626   6.061   3.241   8.502 -0.0155 -0.1704  0.1462
   67SAPC  H18R 5627   6.116   3.146   8.509  2.7234  1.3123  0.1072
   67SAPC  H18S 5628   5.958   3.218   8.468 -0.6052  1.5562  0.6332
   67SAPC  C219 5629   6.044   3.303   8.640  0.3043  0.7355  0.8909
   67SAPC  H19R 5630   5.994   3.402   8.637  0.8937  1.0931 -3.5623
   67SAPC  H19S 5631   6.144   3.321   8.683  1.7185 -0.2788 -1.7594
   67SAPC  C220 5632   5.967   3.201   8.731  0.2702 -0.6390  0.4212
   67SAPC  H20R 5633   5.960   3.237   8.836  2.6062 -0.2856  0.4944
   67SAPC  H20S 5634   6.024   3.106   8.729  0.3352 -0.6941  2.7966
   67SAPC  H20T 5635   5.861   3.192   8.696  0.1324 -0.9110  0.9030
   67SAPC   C33 5636   5.606   2.565   6.641  0.3195  0.3255 -0.5361
   67SAPC   H3X 5637   5.678   2.584   6.558  4.5620  0.7226  2.8398
   67SAPC   H3Y 5638   5.508   2.522   6.613  0.8747 -0.5374 -1.2065
   67SAPC   C34 5639   5.670   2.468   6.742 -0.0047  0.5899 -0.1882
   67SAPC   H4X 5640   5.768   2.507   6.778  0.1875 -2.0932  2.6899
   67SAPC   H4Y 5641   5.705   2.375   6.692  0.0728 -0.9535  2.5362
   67SAPC   C35 5642   5.579   2.430   6.860 -0.9214 -0.1620 -0.6474
   67SAPC   H5X 5643   5.478   2.398   6.824 -1.6304 -0.0520  1.1701
   67SAPC   H5Y 5644   5.558   2.517   6.925 -1.0253  0.4008 -1.4099
   67SAPC   C36 5645   5.646   2.309   6.934  0.0417  0.2078  0.0543
   67SAPC   H6X 5646   5.748   2.342   6.962 -0.0849 -0.2069  1.0799
   67SAPC   H6Y 5647   5.659   2.234   6.853  1.9145 -0.0131  0.5260
   67SAPC   C37 5648   5.576   2.245   7.052 -0.3325 -0.7632  0.2580
   67SAPC   H7X 5649   5.487   2.187   7.018 -1.2261  0.7092  0.0139
   67SAPC   H7Y 5650   5.549   2.317   7.133 -1.1362  0.8978 -1.4250
   67SAPC   C38 5651   5.683   2.157   7.115 -0.3261  0.0261 -0.2985
   67SAPC   H8X 5652   5.769   2.217   7.151 -0.0175 -1.3155  1.3289
   67SAPC   H8Y 5653   5.721   2.087   7.038  0.8885  0.2030  0.1178
   67SAPC   C39 5654   5.629   2.083   7.234 -0.2796 -0.2828  0.2148
   67SAPC   H9X 5655   5.560   1.999   7.210  0.0541 -0.4866 -0.0344
   67SAPC   H9Y 5656   5.576   2.155   7.300 -1.5012 -1.7076  0.8701
   67SAPC  C310 5657   5.744   2.025   7.312  0.4087  0.0435 -0.5488
   67SAPC  H10X 5658   5.809   2.103   7.357  0.3650 -1.6617  2.7816
   67SAPC  H10Y 5659   5.819   1.963   7.259  0.9022  0.0864  0.0991
   67SAPC  C311 5660   5.699   1.940   7.439 -0.8943  0.2604 -0.5657
   67SAPC  H11X 5661   5.655   1.845   7.402 -2.6863  1.8078 -2.6486
   67SAPC  H11Y 5662   5.624   2.001   7.492 -0.1560  1.4195 -0.8275
   67SAPC  C312 5663   5.815   1.908   7.534 -0.3749 -0.6798 -0.5145
   67SAPC  H12X 5664   5.865   2.007   7.537 -1.5242 -0.0892 -0.2077
   67SAPC  H12Y 5665   5.876   1.823   7.495  1.3300 -1.8144  3.9594
   67SAPC  C313 5666   5.769   1.877   7.677 -0.6245 -0.3085  0.3257
   67SAPC  H13X 5667   5.844   1.832   7.746  1.5594  1.3560 -0.8211
   67SAPC  H13Y 5668   5.682   1.808   7.672  0.5937 -2.0919  2.3346
   67SAPC  C314 5669   5.738   2.013   7.746 -0.1580 -0.2615  0.3166
   67SAPC  H14X 5670   5.647   2.058   7.702 -0.2981 -1.5738 -0.8136
   67SAPC  H14Y 5671   5.823   2.084   7.756  0.7782 -1.4671  1.2173
   67SAPC  C315 5672   5.702   1.986   7.898 -0.1125 -0.3481 -0.0341
   67SAPC  H15X 5673   5.625   1.906   7.895  1.0335 -1.4872 -0.1100
   67SAPC  H15Y 5674   5.654   2.074   7.945 -1.0092 -1.3108  0.9020
   67SAPC  C316 5675   5.824   1.943   7.987  0.2643  0.8288  0.4298
   67SAPC  H16X 5676   5.904   2.020   7.996  0.0531  0.8014  3.2124
   67SAPC  H16Y 5677   5.875   1.850   7.953  0.1823  0.4461  1.3381
   67SAPC  C317 5678   5.769   1.920   8.130  0.2957  0.2295  0.0172
   67SAPC  H17X 5679   5.717   1.822   8.143  0.2217  0.3830  0.9819
   67SAPC  H17Y 5680   5.699   2.005   8.147  0.7512  0.5667  0.2441
   67SAPC  C318 5681   5.879   1.920   8.242  0.2360  0.8594  0.6163
   67SAPC  H18X 5682   5.836   1.894   8.341  3.4651  0.7360  2.1224
   67SAPC  H18Y 5683   5.933   2.017   8.243  1.5764  0.3377 -3.2378
   67SAPC  H18Z 5684   5.960   1.848   8.218 -0.5788 -0.3818  1.4529
   68SAPC     N 5685   5.302   3.213   5.708  0.1478 -0.1429  0.2379
   68SAPC   C12 5686   5.327   3.112   5.821  0.1232 -0.5314 -0.3606
   68SAPC  H12A 5687   5.339   3.013   5.780 -0.5884 -0.3926 -0.9266
   68SAPC  H12B 5688   5.239   3.107   5.884 -0.1193 -1.6466 -0.7607
   68SAPC   C13 5689   5.414   3.201   5.610  0.2418 -1.0004  0.3572
   68SAPC  H13A 5690   5.436   3.098   5.586  0.0181 -0.9253 -0.1953
   68SAPC  H13B 5691   5.399   3.241   5.510  1.2148 -2.2409 -0.3188
   68SAPC  H13C 5692   5.502   3.244   5.656 -0.0497  1.8306 -1.4428
   68SAPC   C14 5693   5.170   3.201   5.645  0.5686 -0.2545 -0.2715
   68SAPC  H14A 5694   5.086   3.184   5.711 -0.1350  0.8279 -0.8417
   68SAPC  H14B 5695   5.146   3.284   5.580  0.2428  0.0015  0.1681
   68SAPC  H14C 5696   5.167   3.120   5.574 -1.8244 -0.9958  0.5563
   68SAPC   C15 5697   5.309   3.364   5.755 -0.0318  0.6058 -0.6728
   68SAPC  H15A 5698   5.318   3.419   5.662 -4.2064  2.2496 -0.3040
   68SAPC  H15B 5699   5.220   3.383   5.812  0.2977 -0.1466  0.1170
   68SAPC  H15C 5700   5.392   3.368   5.824  0.7041  2.9317 -1.5876
   68SAPC   C11 5701   5.455   3.136   5.907 -0.0825  0.7605  1.0997
   68SAPC  H11A 5702   5.549   3.124   5.849 -1.1617 -2.3195 -0.2398
   68SAPC  H11B 5703   5.459   3.052   5.980 -2.8798 -1.5049 -1.1077
   68SAPC     P 5704   5.397   3.288   6.114 -0.0248  0.3774 -0.2764
   68SAPC   O13 5705   5.492   3.248   6.218 -1.5538  0.3330  0.3942
   68SAPC   O14 5706   5.358   3.430   6.124  0.5653  0.0191  0.4723
   68SAPC   O12 5707   5.456   3.264   5.975  0.5726 -0.1664  0.3994
   68SAPC   O11 5708   5.268   3.198   6.117 -0.1412  0.1266 -0.2302
   68SAPC    C1 5709   5.263   3.086   6.208  0.6919  0.5137 -0.2080
   68SAPC    HA 5710   5.196   3.012   6.161  1.8648 -0.2895 -0.6433
   68SAPC    HB 5711   5.355   3.025   6.213 -1.0708 -2.3023  0.4441
   68SAPC    C2 5712   5.226   3.115   6.352 -0.4443 -0.1124 -0.2225
   68SAPC    HS 5713   5.312   3.162   6.404 -0.8066 -0.7818  1.0317
   68SAPC   O21 5714   5.187   2.990   6.414 -0.2299  0.7719 -0.4707
   68SAPC   C21 5715   5.280   2.919   6.469 -0.6640  0.0960 -0.1438
   68SAPC   O22 5716   5.402   2.951   6.468 -0.2799  0.0174  0.3921
   68SAPC   C22 5717   5.212   2.804   6.527 -0.5994 -0.0756 -0.0153
   68SAPC   H2R 5718   5.121   2.765   6.476 -0.9455 -1.1952  1.4034
   68SAPC   H2S 5719   5.284   2.721   6.534 -0.2748 -0.0575 -2.3936
   68SAPC    C3 5720   5.100   3.202   6.344  0.6126 -0.9385  0.4955
   68SAPC    HX 5721   5.033   3.159   6.267 -0.9486  0.1522  1.1828
   68SAPC    HY 5722   5.137   3.300   6.307  0.0940 -2.2604 -4.1928
   68SAPC   O31 5723   5.019   3.204   6.466 -0.2881  0.5520  0.2223
   68SAPC   C31 5724   5.040   3.304   6.545 -0.2095  0.1607 -0.0907
   68SAPC   O32 5725   5.114   3.401   6.530 -0.1513  0.0621 -0.7223
   68SAPC   C32 5726   4.953   3.286   6.676  0.1375  0.3578 -0.4273
   68SAPC   H2X 5727   4.882   3.201   6.668 -1.6903  1.4385  2.5524
   68SAPC   H2Y 5728   4.886   3.375   6.664  0.6794  0.5911 -1.9240
   68SAPC   C23 5729   5.149   2.826   6.665 -0.0531 -0.1638 -0.0712
   68SAPC   H3R 5730   5.061   2.891   6.650 -1.2482 -1.3905  1.3431
   68SAPC   H3S 5731   5.224   2.876   6.731 -1.2356  1.3336  0.2007
   68SAPC   C24 5732   5.109   2.690   6.733  0.3402  0.2094 -0.3998
   68SAPC   H4R 5733   5.191   2.616   6.738 -0.2719 -0.4142  0.5777
   68SAPC   H4S 5734   5.021   2.651   6.677  0.4552  1.8433 -1.8308
   68SAPC   C25 5735   5.063   2.713   6.873 -0.7375  0.6155  0.0227
   68SAPC   H5R 5736   4.953   2.724   6.880 -0.7838  0.3321 -0.2188
   68SAPC   C26 5737   5.137   2.718   6.982 -0.6451 -0.6829 -0.0869
   68SAPC   H6R 5738   5.077   2.726   7.074 -1.0228 -2.3131 -0.1637
   68SAPC   C27 5739   5.286   2.693   6.999 -0.0532 -0.6214  0.2986
   68SAPC   H7R 5740   5.329   2.641   6.910 -0.4875  2.1622 -1.6692
   68SAPC   H7S 5741   5.311   2.632   7.088 -2.7060 -1.0626  0.8095
   68SAPC   C28 5742   5.352   2.826   7.000 -0.0535  0.0762  0.8033
   68SAPC   H8R 5743   5.327   2.888   6.913  2.4517  0.5470  0.3405
   68SAPC   C29 5744   5.439   2.878   7.091  0.0617  0.5559  0.3886
   68SAPC   H9R 5745   5.461   2.984   7.076 -0.9274  0.6927 -0.2006
   68SAPC  C210 5746   5.501   2.820   7.219 -0.2716  0.1525  1.3501
   68SAPC  H10R 5747   5.612   2.819   7.212 -0.3752 -0.0046 -1.6001
   68SAPC  H10S 5748   5.462   2.716   7.225 -2.7375  0.3358 -4.3124
   68SAPC  C211 5749   5.451   2.904   7.330 -0.4817  0.3971  0.0377
   68SAPC  H11R 5750   5.347   2.897   7.365 -0.8470  2.0263 -0.6562
   68SAPC  C212 5751   5.530   2.979   7.412  0.6362  0.1710  0.6071
   68SAPC  H12R 5752   5.485   3.031   7.498  0.0993  0.0187  0.4171
   68SAPC  C213 5753   5.681   2.995   7.418  0.2027  0.2962 -0.1774
   68SAPC  H13R 5754   5.729   3.014   7.320  2.3610  0.6588  0.8925
   68SAPC  H13S 5755   5.726   2.899   7.451 -0.5929  0.1768  0.6052
   68SAPC  C214 5756   5.731   3.101   7.507  0.9447 -0.4921 -0.1834
   68SAPC  H14R 5757   5.732   3.194   7.450  0.8267  0.9131  1.9808
   68SAPC  C215 5758   5.791   3.074   7.617  0.5975  0.6504 -0.1185
   68SAPC  H15R 5759   5.825   3.164   7.670  0.9589 -0.0388  0.8398
   68SAPC  C216 5760   5.806   2.943   7.693  0.1447 -0.1580  0.0567
   68SAPC  H16R 5761   5.838   2.972   7.795 -1.4691 -0.2963  0.6246
   68SAPC  H16S 5762   5.888   2.882   7.650 -0.6394 -0.8694 -0.4517
   68SAPC  C217 5763   5.678   2.869   7.721 -0.0713  0.2866 -0.1490
   68SAPC  H17R 5764   5.624   2.816   7.640  0.3349  0.3433 -0.4579
   68SAPC  H17S 5765   5.610   2.951   7.752  2.1935  2.3346 -0.3391
   68SAPC  C218 5766   5.702   2.771   7.838  0.8727 -0.8386  0.1325
   68SAPC  H18R 5767   5.730   2.812   7.937  0.1472 -1.2669  0.5188
   68SAPC  H18S 5768   5.779   2.703   7.795 -0.4952 -1.1525 -1.9522
   68SAPC  C219 5769   5.582   2.676   7.865  0.6653  0.6825 -0.5233
   68SAPC  H19R 5770   5.492   2.742   7.875 -1.0556 -1.5682 -0.2660
   68SAPC  H19S 5771   5.583   2.630   7.966 -2.1654 -0.7894 -1.0409
   68SAPC  C220 5772   5.560   2.562   7.762 -0.2887 -0.1802 -0.1350
   68SAPC  H20R 5773   5.473   2.494   7.772  0.1735 -0.6351  0.9483
   68SAPC  H20S 5774   5.652   2.500   7.766 -1.2620 -1.6553  0.2140
   68SAPC  H20T 5775   5.551   2.611   7.663 -0.0985  0.5622  0.2060
   68SAPC   C33 5776   5.031   3.297   6.807 -0.3815  0.2250  0.1153
   68SAPC   H3X 5777   4.965   3.286   6.896 -1.3393 -1.3161 -0.7559
   68SAPC   H3Y 5778   5.084   3.395   6.809  0.1784 -0.0772  0.4350
   68SAPC   C34 5779   5.145   3.197   6.823  0.4449  0.2800 -0.0240
   68SAPC   H4X 5780   5.221   3.209   6.743  0.8304  0.0539  0.3049
   68SAPC   H4Y 5781   5.104   3.096   6.799  2.7963 -0.7538  0.0795
   68SAPC   C35 5782   5.201   3.188   6.970 -0.0460 -0.2259 -0.2683
   68SAPC   H5X 5783   5.273   3.105   6.988  0.0752 -0.6944 -2.5797
   68SAPC   H5Y 5784   5.114   3.169   7.037 -0.9800  0.2495 -1.3081
   68SAPC   C36 5785   5.266   3.314   7.018 -0.3465 -0.3010  0.7789
   68SAPC   H6X 5786   5.195   3.399   7.028 -0.3391 -0.3799  1.6205
   68SAPC   H6Y 5787   5.344   3.349   6.947  2.5734 -0.4596  3.6487
   68SAPC   C37 5788   5.342   3.292   7.151 -0.6249  0.0125  0.3426
   68SAPC   H7X 5789   5.425   3.363   7.170  0.1355 -0.7302 -0.1279
   68SAPC   H7Y 5790   5.396   3.195   7.149 -1.0194 -0.2080  0.1841
   68SAPC   C38 5791   5.242   3.294   7.260 -0.0490  0.2516 -0.6119
   68SAPC   H8X 5792   5.163   3.219   7.241 -0.2061  0.0523  0.7140
   68SAPC   H8Y 5793   5.199   3.396   7.263 -2.2565 -0.6211 -0.9718
   68SAPC   C39 5794   5.300   3.249   7.401  0.1697 -0.2473 -0.1152
   68SAPC   H9X 5795   5.394   3.301   7.431  0.0364 -1.3324  2.3485
   68SAPC   H9Y 5796   5.331   3.142   7.392 -2.4907 -0.8798 -3.9842
   68SAPC  C310 5797   5.198   3.268   7.509 -0.6861 -0.6774  0.2755
   68SAPC  H10X 5798   5.095   3.244   7.473  0.2052 -0.5356 -2.5975
   68SAPC  H10Y 5799   5.202   3.375   7.537 -2.4042 -0.6726  0.6478
   68SAPC  C311 5800   5.227   3.188   7.636  0.2762 -0.3606 -0.0421
   68SAPC  H11X 5801   5.151   3.226   7.707 -0.5872  2.6693 -2.3599
   68SAPC  H11Y 5802   5.327   3.206   7.682  0.2037  1.8823 -0.6257
   68SAPC  C312 5803   5.200   3.043   7.617  0.0542  0.0106  0.2147
   68SAPC  H12X 5804   5.267   3.005   7.537 -0.3788 -0.1698 -0.0657
   68SAPC  H12Y 5805   5.095   3.032   7.581 -0.0677 -1.0610  0.8530
   68SAPC  C313 5806   5.224   2.956   7.747  0.1911 -0.5625  0.1731
   68SAPC  H13X 5807   5.176   3.003   7.835  1.1844  1.6464 -0.4049
   68SAPC  H13Y 5808   5.334   2.965   7.754  0.3215 -1.5085 -0.4252
   68SAPC  C314 5809   5.185   2.810   7.718  0.4451 -0.5938  0.1412
   68SAPC  H14X 5810   5.215   2.750   7.808 -0.6272 -3.0692 -1.0533
   68SAPC  H14Y 5811   5.239   2.770   7.630  0.5926 -1.6892  0.7010
   68SAPC  C315 5812   5.042   2.797   7.692  0.7725  0.1786  0.0021
   68SAPC  H15X 5813   5.006   2.867   7.613  0.9432  1.3493  0.9387
   68SAPC  H15Y 5814   4.980   2.831   7.778  0.0068  1.4665 -1.0190
   68SAPC  C316 5815   4.989   2.655   7.673 -0.2094  0.0205  0.0357
   68SAPC  H16X 5816   4.878   2.648   7.666 -0.3159  1.0693  0.4513
   68SAPC  H16Y 5817   5.022   2.594   7.760 -1.4035 -1.1937 -0.3243
   68SAPC  C317 5818   5.046   2.585   7.549  0.3275  0.1781  0.7250
   68SAPC  H17X 5819   5.013   2.479   7.558  1.1414 -0.0379  1.2368
   68SAPC  H17Y 5820   5.155   2.566   7.551  0.6179  1.4121 -0.9969
   68SAPC  C318 5821   5.003   2.649   7.419 -0.3978 -0.2072 -0.1186
   68SAPC  H18X 5822   5.023   2.573   7.341 -0.8084  0.2417 -0.6651
   68SAPC  H18Y 5823   5.057   2.742   7.393  1.3488 -1.3506 -0.8043
   68SAPC  H18Z 5824   4.895   2.674   7.425 -0.0168  1.3170  0.7669
   69SLPC     N 5825   1.880   2.595  11.400  0.5152  0.2840 -0.1828
   69SLPC   C13 5826   1.993   2.694  11.396  1.1822 -0.2086 -0.2549
   69SLPC  H13A 5827   1.993   2.759  11.310 -0.1293 -0.0119 -0.1377
   69SLPC  H13B 5828   1.970   2.762  11.477  0.3567 -1.6371  0.7616
   69SLPC  H13C 5829   2.085   2.638  11.391  1.1298 -0.1893 -2.7361
   69SLPC   C14 5830   1.750   2.661  11.395 -0.3017 -0.0528 -0.5431
   69SLPC  H14A 5831   1.678   2.595  11.441 -0.9132 -0.0287 -1.4328
   69SLPC  H14B 5832   1.744   2.756  11.445 -2.1823  1.1122 -2.7767
   69SLPC  H14C 5833   1.714   2.669  11.294 -0.5210 -1.1521 -0.5676
   69SLPC   C15 5834   1.888   2.535  11.541 -0.3553  0.4382  0.2208
   69SLPC  H15A 5835   1.889   2.615  11.613  0.2952 -1.9587  3.0589
   69SLPC  H15B 5836   1.814   2.461  11.566  1.1981 -1.2435  0.0432
   69SLPC  H15C 5837   1.979   2.477  11.541 -1.1002 -1.1392 -4.2320
   69SLPC   C12 5838   1.885   2.482  11.295 -0.1656 -0.0795  0.2792
   69SLPC  H12A 5839   1.799   2.418  11.307  0.2008 -0.1968  2.6640
   69SLPC  H12B 5840   1.971   2.423  11.324  1.0615  0.5990 -1.7246
   69SLPC   C11 5841   1.905   2.527  11.146  1.1660  0.0554 -0.3288
   69SLPC  H11A 5842   1.915   2.434  11.085  0.5279 -1.9137  2.3603
   69SLPC  H11B 5843   1.996   2.585  11.120  0.7659  0.5291 -0.6896
   69SLPC     P 5844   1.665   2.516  11.041  0.5194 -0.3645  0.1437
   69SLPC   O13 5845   1.676   2.375  11.076  0.0438 -0.2915 -0.5666
   69SLPC   O14 5846   1.536   2.573  11.084  0.2434  0.3060  0.2397
   69SLPC   O12 5847   1.787   2.602  11.112  0.1955 -0.2143 -0.2972
   69SLPC   O11 5848   1.693   2.528  10.880  0.1267 -0.2822  0.0333
   69SLPC    C1 5849   1.805   2.605  10.835 -0.3105  0.0319  0.6549
   69SLPC    HA 5850   1.785   2.713  10.826 -0.5197  0.0831  1.6524
   69SLPC    HB 5851   1.897   2.596  10.896  2.1475  0.8143 -2.6278
   69SLPC    C2 5852   1.842   2.547  10.692  0.2544  0.7445 -0.2599
   69SLPC    HS 5853   1.938   2.597  10.665  1.2574 -2.2246 -2.8293
   69SLPC   O21 5854   1.741   2.577  10.594  0.0225 -0.0195  0.2989
   69SLPC   C21 5855   1.743   2.699  10.538 -0.0580 -0.2296 -0.0621
   69SLPC   O22 5856   1.829   2.784  10.550  0.1065  0.0151 -0.1676
   69SLPC   C22 5857   1.622   2.709  10.452 -0.4551 -0.9450  0.3504
   69SLPC   H2R 5858   1.607   2.619  10.389 -0.4323 -2.4394  2.3662
   69SLPC   H2S 5859   1.540   2.702  10.528 -3.3097 -1.3268 -2.5439
   69SLPC    C3 5860   1.869   2.392  10.688 -0.1934  0.5049  0.6413
   69SLPC    HX 5861   1.769   2.343  10.694 -1.2644  2.5939  0.8846
   69SLPC    HY 5862   1.930   2.368  10.778 -0.4474 -2.2431  0.1509
   69SLPC   O31 5863   1.943   2.350  10.570  0.0189 -0.2856 -0.4441
   69SLPC   C31 5864   1.947   2.221  10.549  0.4615  0.3541 -0.2634
   69SLPC   O32 5865   1.895   2.139  10.622  0.2558 -0.1641  0.1402
   69SLPC   C32 5866   2.012   2.182  10.416  0.9307  0.0835  0.5400
   69SLPC   H2X 5867   2.068   2.086  10.424 -1.3703 -1.3647  0.1712
   69SLPC   H2Y 5868   2.086   2.263  10.394  2.6735 -1.5769 -0.0226
   69SLPC   C23 5869   1.608   2.831  10.357  0.2901  0.7458 -0.4513
   69SLPC   H3R 5870   1.628   2.925  10.412  2.0296 -0.3833  0.9755
   69SLPC   H3S 5871   1.511   2.837  10.304  0.2035  0.8113 -0.2870
   69SLPC   C24 5872   1.710   2.832  10.240  0.7672 -0.1227 -0.1114
   69SLPC   H4R 5873   1.815   2.823  10.274  1.1144 -0.3178 -1.1863
   69SLPC   H4S 5874   1.708   2.933  10.194  0.5416 -0.0978 -0.0500
   69SLPC   C25 5875   1.682   2.730  10.127 -0.3220 -0.0259  0.1279
   69SLPC   H5R 5876   1.581   2.764  10.094 -0.1794 -1.9313 -2.6345
   69SLPC   H5S 5877   1.679   2.627  10.169  1.1095 -0.8375 -1.6191
   69SLPC   C26 5878   1.771   2.744  10.000 -0.9093  0.3636 -0.2522
   69SLPC   H6R 5879   1.877   2.749  10.033 -0.5384 -0.7376 -1.2422
   69SLPC   H6S 5880   1.743   2.839   9.949  2.4253  0.3578 -2.3685
   69SLPC   C27 5881   1.758   2.614   9.919 -0.3352  0.4524 -0.2031
   69SLPC   H7R 5882   1.652   2.605   9.890  0.6240 -2.9036 -3.3562
   69SLPC   H7S 5883   1.804   2.532   9.980  2.4255  0.7506 -1.7191
   69SLPC   C28 5884   1.844   2.631   9.793 -1.1395 -0.8578  0.2308
   69SLPC   H8R 5885   1.950   2.649   9.821 -1.5637  2.0172  0.3238
   69SLPC   H8S 5886   1.805   2.727   9.753 -1.2964 -0.3900  1.4458
   69SLPC   C29 5887   1.826   2.532   9.683 -0.3983 -0.1991  0.1886
   69SLPC   H9R 5888   1.766   2.446   9.715 -0.0198 -0.5493 -0.0307
   69SLPC  C210 5889   1.858   2.545   9.555 -0.5837 -0.5879  0.1741
   69SLPC  H10R 5890   1.833   2.464   9.485 -0.3568  0.1253 -0.7556
   69SLPC  C211 5891   1.930   2.668   9.501  0.4441  0.8726 -0.0148
   69SLPC  H11R 5892   1.991   2.712   9.583 -0.7698 -2.3589  2.9136
   69SLPC  H11S 5893   1.866   2.750   9.463  1.6894  1.3023 -1.2815
   69SLPC  C212 5894   2.024   2.626   9.395 -0.3026  0.3047  0.7942
   69SLPC  H12R 5895   2.113   2.570   9.426 -0.9349 -0.0057  2.0840
   69SLPC  C213 5896   2.024   2.667   9.266 -0.3360 -0.3655 -0.2199
   69SLPC  H13R 5897   2.114   2.647   9.207  1.1326  1.7987  1.1588
   69SLPC  C214 5898   1.920   2.757   9.205  0.3465  0.4332 -0.6770
   69SLPC  H14R 5899   1.919   2.857   9.253  0.4005  0.7974 -1.4259
   69SLPC  H14S 5900   1.821   2.707   9.211  0.2153  0.7364 -0.2561
   69SLPC  C215 5901   1.943   2.787   9.051 -0.4214 -0.8298 -0.5985
   69SLPC  H15R 5902   1.923   2.699   8.986 -2.1385  0.2914 -1.6887
   69SLPC  H15S 5903   2.048   2.819   9.037 -0.9330  1.5417  0.4825
   69SLPC  C216 5904   1.848   2.903   8.998 -0.3834  0.0344  0.4196
   69SLPC  H16R 5905   1.885   2.998   9.043  3.4227 -1.6316  1.2434
   69SLPC  H16S 5906   1.745   2.868   9.017 -1.3304  0.7034 -2.8440
   69SLPC  C217 5907   1.860   2.927   8.843  0.1477  0.4230 -0.3223
   69SLPC  H17R 5908   1.949   2.986   8.810 -0.1562  0.4719 -1.0791
   69SLPC  H17S 5909   1.782   3.001   8.816  2.5307  2.9396 -0.9056
   69SLPC  C218 5910   1.860   2.804   8.749 -0.0056  0.2372  0.0465
   69SLPC  H18R 5911   1.769   2.745   8.773  0.8174 -1.4497 -0.8144
   69SLPC  H18S 5912   1.946   2.736   8.765  0.2374 -0.1720 -2.5047
   69SLPC  H18T 5913   1.863   2.837   8.643  0.8487  1.3460  0.3978
   69SLPC   C33 5914   1.901   2.174  10.308 -0.1300 -0.4618 -0.0796
   69SLPC   H3X 5915   1.861   2.274  10.283  1.9691  0.9754  1.9160
   69SLPC   H3Y 5916   1.821   2.107  10.346  0.3443 -0.6040  0.7072
   69SLPC   C34 5917   1.953   2.103  10.186 -0.9021  0.4387 -0.3757
   69SLPC   H4X 5918   1.984   1.998  10.207 -3.7254 -0.3088  0.3903
   69SLPC   H4Y 5919   2.048   2.149  10.149 -1.1216 -0.0972 -1.6782
   69SLPC   C35 5920   1.852   2.115  10.070  0.4219 -0.3474 -0.0019
   69SLPC   H5X 5921   1.834   2.224  10.059 -0.0721 -0.5506 -1.3786
   69SLPC   H5Y 5922   1.752   2.069  10.085 -0.4851  0.3906 -3.0618
   69SLPC   C36 5923   1.907   2.064   9.944 -0.0392 -0.3516  0.2886
   69SLPC   H6X 5924   1.824   2.014   9.888 -0.8551  1.1785  0.0885
   69SLPC   H6Y 5925   1.978   1.981   9.960 -0.4589 -0.7283  0.2407
   69SLPC   C37 5926   1.982   2.172   9.868 -0.4803 -0.6183 -0.0814
   69SLPC   H7X 5927   2.065   2.219   9.924 -0.1835 -1.5636  0.2906
   69SLPC   H7Y 5928   1.912   2.245   9.822 -1.1221  0.3493  2.2947
   69SLPC   C38 5929   2.053   2.111   9.749 -0.5195  0.1199 -0.3724
   69SLPC   H8X 5930   1.998   2.033   9.692 -0.1883 -0.6560  0.3496
   69SLPC   H8Y 5931   2.147   2.061   9.782 -0.3587 -1.0572 -2.4567
   69SLPC   C39 5932   2.092   2.220   9.646  0.5698 -0.3154 -0.2261
   69SLPC   H9X 5933   2.109   2.322   9.687  1.0632  0.0190 -1.2247
   69SLPC   H9Y 5934   2.002   2.239   9.582  1.8053 -0.7366 -2.1544
   69SLPC  C310 5935   2.198   2.186   9.542 -0.2009  0.1879 -0.1265
   69SLPC  H10X 5936   2.209   2.076   9.527  2.7662  0.2921  0.7232
   69SLPC  H10Y 5937   2.300   2.202   9.581 -0.5279  0.6257  0.5559
   69SLPC  C311 5938   2.161   2.248   9.408 -1.0342 -0.0188  0.0332
   69SLPC  H11X 5939   2.254   2.264   9.349  0.3038  0.3096  2.1472
   69SLPC  H11Y 5940   2.114   2.346   9.435  0.9408  0.6859  1.1189
   69SLPC  C312 5941   2.066   2.165   9.317 -0.5464  0.0372  0.3140
   69SLPC  H12X 5942   1.967   2.156   9.367 -0.9126 -1.1376 -0.5529
   69SLPC  H12Y 5943   2.099   2.060   9.298  0.9903  0.4883  0.4005
   69SLPC  C313 5944   2.049   2.241   9.191 -0.2203 -0.5245  0.1772
   69SLPC  H13X 5945   2.127   2.212   9.116 -0.2027  0.0702 -0.0412
   69SLPC  H13Y 5946   2.058   2.350   9.210  2.8688 -1.0306  2.3829
   69SLPC  C314 5947   1.919   2.205   9.115  0.1945  0.3612 -0.6699
   69SLPC  H14X 5948   1.840   2.168   9.184  0.8583 -1.3436 -0.7682
   69SLPC  H14Y 5949   1.941   2.115   9.053  1.9863  0.3398 -0.0690
   69SLPC  C315 5950   1.849   2.323   9.034 -0.6807  0.7491 -0.3392
   69SLPC  H15X 5951   1.873   2.420   9.084  1.2494  1.2858 -2.1481
   69SLPC  H15Y 5952   1.740   2.307   9.023 -0.6594 -0.2219  0.6963
   69SLPC  C316 5953   1.903   2.335   8.892 -0.0153 -0.8766  0.7694
   69SLPC  H16X 5954   1.998   2.393   8.897 -0.6740  0.4726 -1.2370
   69SLPC  H16Y 5955   1.826   2.401   8.845  0.4782 -1.3004 -0.6755
   69SLPC  C317 5956   1.925   2.209   8.813  0.2214  0.0846  0.0305
   69SLPC  H17X 5957   1.833   2.147   8.812 -0.4216  0.9642  1.3477
   69SLPC  H17Y 5958   2.012   2.152   8.852  0.0067  0.5796  1.2904
   69SLPC  C318 5959   1.963   2.229   8.661  0.3690  0.0217  0.0471
   69SLPC  H18X 5960   1.967   2.130   8.610  0.2855 -0.6958  1.3640
   69SLPC  H18Y 5961   2.063   2.277   8.656 -0.0389  0.8257 -0.4551
   69SLPC  H18Z 5962   1.891   2.296   8.610 -0.3269  0.2543  1.2770
   70SLPC     N 5963   3.008   6.021  11.057  0.1236 -0.0200  0.2548
   70SLPC   C13 5964   2.879   5.962  11.032  0.4072 -0.0159 -0.3421
   70SLPC  H13A 5965   2.812   6.020  10.970 -0.7371 -0.0876  0.7828
   70SLPC  H13B 5966   2.917   5.873  10.983  1.3129  0.9206 -1.4135
   70SLPC  H13C 5967   2.832   5.938  11.126  0.9407  1.7951  0.4401
   70SLPC   C14 5968   3.015   6.130  11.157  0.5893  0.0646  0.0899
   70SLPC  H14A 5969   3.114   6.173  11.167 -0.0661  1.3944  1.0973
   70SLPC  H14B 5970   2.961   6.218  11.124 -0.0347  0.3840  1.8782
   70SLPC  H14C 5971   2.973   6.105  11.252  1.8385 -1.7733  0.2057
   70SLPC   C15 5972   3.067   6.069  10.924 -0.2899  0.3674  0.1179
   70SLPC  H15A 5973   3.056   5.998  10.843 -5.4188  2.1337 -1.1564
   70SLPC  H15B 5974   3.030   6.166  10.896  0.7647  0.8336  0.3081
   70SLPC  H15C 5975   3.174   6.074  10.933 -0.3269 -1.1292  2.7529
   70SLPC   C12 5976   3.101   5.907  11.106 -0.0624  0.3620 -0.5651
   70SLPC  H12A 5977   3.056   5.868  11.196 -0.3844 -0.2075 -0.9655
   70SLPC  H12B 5978   3.200   5.938  11.135  0.1620 -1.2356  0.4973
   70SLPC   C11 5979   3.128   5.787  11.009  0.2827 -0.6616  0.3049
   70SLPC  H11A 5980   3.201   5.727  11.067  1.3410 -0.2163 -0.5409
   70SLPC  H11B 5981   3.179   5.828  10.919  1.8054 -0.2724  1.3067
   70SLPC     P 5982   3.022   5.612  10.847  0.3862  0.2025 -0.3521
   70SLPC   O13 5983   3.117   5.508  10.888  0.1143 -0.0997  0.0665
   70SLPC   O14 5984   2.889   5.563  10.802 -0.2585 -0.5079 -0.6019
   70SLPC   O12 5985   3.014   5.713  10.964  0.1036  0.2393 -0.5449
   70SLPC   O11 5986   3.086   5.703  10.732 -0.1599 -0.5022 -0.0789
   70SLPC    C1 5987   3.019   5.815  10.674  0.0519  0.0357  0.0334
   70SLPC    HA 5988   2.925   5.835  10.730 -0.2158 -3.0922  0.8966
   70SLPC    HB 5989   3.086   5.903  10.665  0.9022 -0.5647  0.4114
   70SLPC    C2 5990   2.965   5.773  10.531 -0.5683 -0.5898  0.2459
   70SLPC    HS 5991   2.913   5.677  10.552  2.1427 -2.4145 -0.8014
   70SLPC   O21 5992   3.076   5.749  10.442  0.0697  0.0878 -0.8184
   70SLPC   C21 5993   3.053   5.657  10.352  0.2838  0.3204  0.5852
   70SLPC   O22 5994   2.965   5.571  10.357 -0.5471  0.0373  0.3051
   70SLPC   C22 5995   3.164   5.664  10.245 -1.1646 -0.1581 -0.2578
   70SLPC   H2R 5996   3.188   5.772  10.236 -3.0832  0.2109 -1.5521
   70SLPC   H2S 5997   3.244   5.603  10.292  0.8023  2.6471  0.2282
   70SLPC    C3 5998   2.854   5.864  10.474  0.2552 -0.9329  0.2642
   70SLPC    HX 5999   2.890   5.965  10.446  1.8406 -2.1667 -2.5934
   70SLPC    HY 6000   2.780   5.879  10.556  0.8579 -1.4291  0.9168
   70SLPC   O31 6001   2.801   5.801  10.350 -0.0111 -0.4880 -0.3554
   70SLPC   C31 6002   2.712   5.710  10.375  0.8583 -0.3026  0.0530
   70SLPC   O32 6003   2.666   5.670  10.482  0.1329  0.9749  0.0856
   70SLPC   C32 6004   2.664   5.640  10.242 -0.0955 -0.5732  0.0477
   70SLPC   H2X 6005   2.711   5.542  10.262  2.0153  0.5531  0.9349
   70SLPC   H2Y 6006   2.712   5.687  10.153  0.0695  1.7101  1.2799
   70SLPC   C23 6007   3.124   5.618  10.103  0.3988  0.2332 -0.3563
   70SLPC   H3R 6008   3.069   5.522  10.117  0.2725  0.1904 -1.0894
   70SLPC   H3S 6009   3.214   5.588  10.045  1.0120 -0.7698  1.0816
   70SLPC   C24 6010   3.045   5.731  10.027 -0.3401 -0.7782  0.3268
   70SLPC   H4R 6011   3.116   5.812  10.002 -0.3097 -0.8345  0.2289
   70SLPC   H4S 6012   2.972   5.777  10.096 -0.3979  2.2041 -1.5486
   70SLPC   C25 6013   2.998   5.678   9.889  0.2305  0.1562 -0.4070
   70SLPC   H5R 6014   2.939   5.585   9.905  0.4068  0.1575  0.2842
   70SLPC   H5S 6015   3.088   5.644   9.833  1.8562 -0.8075  2.5141
   70SLPC   C26 6016   2.907   5.778   9.818  0.0969 -0.2455 -0.2121
   70SLPC   H6R 6017   2.872   5.854   9.891 -2.5749  1.0166 -2.5863
   70SLPC   H6S 6018   2.817   5.726   9.778  1.0851 -1.6442 -0.7044
   70SLPC   C27 6019   2.979   5.857   9.710  0.3123  0.8443 -0.1762
   70SLPC   H7R 6020   3.061   5.911   9.762 -0.5927  3.9607 -1.7868
   70SLPC   H7S 6021   2.913   5.935   9.667  0.2567  0.9579  0.1147
   70SLPC   C28 6022   3.035   5.777   9.589 -0.6149  0.0918 -0.2854
   70SLPC   H8R 6023   2.959   5.707   9.550  0.2520  0.1652 -2.2366
   70SLPC   H8S 6024   3.120   5.716   9.627 -1.6338 -0.6014  0.9280
   70SLPC   C29 6025   3.078   5.870   9.479 -0.3212  0.6500 -1.0671
   70SLPC   H9R 6026   3.146   5.951   9.510  1.1168 -1.4146  1.6607
   70SLPC  C210 6027   3.044   5.863   9.352  0.4214  0.0720 -0.2043
   70SLPC  H10R 6028   3.087   5.927   9.274  0.2172 -0.5820 -0.8620
   70SLPC  C211 6029   2.952   5.750   9.297 -0.8975  0.2946  0.6694
   70SLPC  H11R 6030   2.989   5.658   9.346 -1.5104 -0.2023  0.2181
   70SLPC  H11S 6031   2.973   5.729   9.190 -1.0359 -2.1507  1.0764
   70SLPC  C212 6032   2.806   5.761   9.314  0.4442 -0.3785  0.3438
   70SLPC  H12R 6033   2.775   5.866   9.306  1.6551  0.1192  1.7894
   70SLPC  C213 6034   2.715   5.659   9.342 -0.1511 -0.2528 -0.3419
   70SLPC  H13R 6035   2.613   5.698   9.350 -0.3270 -0.0766 -2.6502
   70SLPC  C214 6036   2.748   5.514   9.369  0.4833  0.0600  0.2721
   70SLPC  H14R 6037   2.667   5.478   9.435 -0.7540  0.5507 -0.9450
   70SLPC  H14S 6038   2.849   5.500   9.415  0.8741  0.3011 -0.4865
   70SLPC  C215 6039   2.769   5.429   9.237  0.5119  0.2247  0.7598
   70SLPC  H15R 6040   2.859   5.463   9.182 -0.0742  0.7082  0.0944
   70SLPC  H15S 6041   2.679   5.444   9.175  0.2404  0.9794  1.3205
   70SLPC  C216 6042   2.784   5.283   9.274  0.9211  0.0826  0.8182
   70SLPC  H16R 6043   2.699   5.252   9.339  0.5398 -0.7898 -0.0690
   70SLPC  H16S 6044   2.875   5.280   9.339 -1.1095 -0.8130  3.8427
   70SLPC  C217 6045   2.813   5.183   9.163 -0.3835 -0.5482  0.3693
   70SLPC  H17R 6046   2.730   5.177   9.089  0.6258 -0.8720 -0.7726
   70SLPC  H17S 6047   2.808   5.090   9.224 -2.3758 -0.6727  0.0969
   70SLPC  C218 6048   2.949   5.191   9.101 -0.5409  0.3886  0.3004
   70SLPC  H18R 6049   3.011   5.254   9.168 -1.9426  1.9525  0.1778
   70SLPC  H18S 6050   2.948   5.233   8.998 -0.1713 -1.5249 -0.5377
   70SLPC  H18T 6051   2.998   5.092   9.110 -0.8403  0.4214  3.2144
   70SLPC   C33 6052   2.511   5.606  10.216 -0.0111  0.4772 -0.2007
   70SLPC   H3X 6053   2.464   5.567  10.309  1.1910 -2.7471 -0.8189
   70SLPC   H3Y 6054   2.525   5.517  10.152  1.4784  0.2219  0.4412
   70SLPC   C34 6055   2.418   5.720  10.166  0.0479  0.3255 -1.0834
   70SLPC   H4X 6056   2.434   5.812  10.226  2.0876  0.2220 -1.4003
   70SLPC   H4Y 6057   2.315   5.682  10.185  0.9455 -1.0342  1.5558
   70SLPC   C35 6058   2.439   5.754  10.015 -0.6365  0.9115 -0.2650
   70SLPC   H5X 6059   2.545   5.773   9.988 -0.2910 -0.9712 -0.4324
   70SLPC   H5Y 6060   2.373   5.837   9.983  1.0854  2.0568 -1.0641
   70SLPC   C36 6061   2.399   5.643   9.915  0.9878 -0.1344 -0.1988
   70SLPC   H6X 6062   2.300   5.612   9.955  1.4628 -1.7824 -0.2566
   70SLPC   H6Y 6063   2.444   5.543   9.930 -2.0225 -1.6447 -0.3755
   70SLPC   C37 6064   2.397   5.694   9.767 -0.2911 -0.7717  1.1935
   70SLPC   H7X 6065   2.394   5.601   9.706 -1.5162  0.0138  0.0163
   70SLPC   H7Y 6066   2.481   5.765   9.748 -1.2430  0.2217  0.6063
   70SLPC   C38 6067   2.274   5.780   9.724  0.3001  0.1965  0.5998
   70SLPC   H8X 6068   2.256   5.853   9.806 -4.6623  1.3019 -1.1113
   70SLPC   H8Y 6069   2.180   5.723   9.704 -0.2146  1.5284 -1.0590
   70SLPC   C39 6070   2.290   5.865   9.596 -0.1261 -1.0866 -0.3766
   70SLPC   H9X 6071   2.376   5.934   9.605 -0.9387  0.0563 -1.0480
   70SLPC   H9Y 6072   2.199   5.928   9.583 -0.5559 -1.4519  0.7900
   70SLPC  C310 6073   2.312   5.779   9.464 -0.0780 -0.8066 -0.3422
   70SLPC  H10X 6074   2.216   5.733   9.430 -2.1246  1.2628  2.1882
   70SLPC  H10Y 6075   2.388   5.701   9.485  1.0916  0.3842 -0.0089
   70SLPC  C311 6076   2.357   5.863   9.341  0.4372  0.2289 -0.0361
   70SLPC  H11X 6077   2.453   5.912   9.366  0.5637  0.5188 -1.0460
   70SLPC  H11Y 6078   2.276   5.933   9.312  1.6875  1.2840 -1.0684
   70SLPC  C312 6079   2.366   5.769   9.214 -0.3961  0.1208  0.7603
   70SLPC  H12X 6080   2.260   5.749   9.188 -0.5791 -0.3618  1.8472
   70SLPC  H12Y 6081   2.416   5.676   9.247  0.0665 -0.1557 -0.6197
   70SLPC  C313 6082   2.427   5.816   9.083 -0.9974 -0.3063  0.1416
   70SLPC  H13X 6083   2.538   5.819   9.091 -1.0329 -0.0416  0.5579
   70SLPC  H13Y 6084   2.404   5.924   9.070  2.1006  0.3104 -1.3088
   70SLPC  C314 6085   2.383   5.728   8.959 -0.4707 -0.1524 -0.9914
   70SLPC  H14X 6086   2.276   5.703   8.973 -0.6826  0.9745 -0.4766
   70SLPC  H14Y 6087   2.440   5.632   8.961 -2.9282 -1.7242 -1.9754
   70SLPC  C315 6088   2.415   5.794   8.828  0.7846 -0.0346 -0.1869
   70SLPC  H15X 6089   2.520   5.831   8.822 -0.2320  3.2468  0.2090
   70SLPC  H15Y 6090   2.357   5.888   8.819 -0.9844 -1.0579  0.1659
   70SLPC  C316 6091   2.401   5.698   8.710 -0.2563  0.3838  0.5359
   70SLPC  H16X 6092   2.295   5.675   8.686  0.4669 -2.5355 -0.3118
   70SLPC  H16Y 6093   2.448   5.604   8.747 -0.2745 -0.2255 -0.9059
   70SLPC  C317 6094   2.474   5.747   8.577  0.3719  1.1110  0.4914
   70SLPC  H17X 6095   2.574   5.699   8.577 -0.5563 -1.1408 -2.8157
   70SLPC  H17Y 6096   2.490   5.857   8.572  0.7117  0.9991 -1.3406
   70SLPC  C318 6097   2.409   5.695   8.444 -0.6677 -0.3684  0.2140
   70SLPC  H18X 6098   2.477   5.723   8.360  0.6688 -1.0652  1.0273
   70SLPC  H18Y 6099   2.308   5.740   8.435 -0.1086  1.0080  0.5622
   70SLPC  H18Z 6100   2.400   5.586   8.429  2.4121 -0.7474  0.5533
   71SLPC     N 6101   2.263   4.153  11.052  0.5995 -0.0545 -0.1130
   71SLPC   C13 6102   2.120   4.200  11.071 -0.5080 -0.6612 -0.0067
   71SLPC  H13A 6103   2.108   4.284  11.137 -1.3772 -2.0067  1.6121
   71SLPC  H13B 6104   2.083   4.244  10.979  1.2519  0.5084 -0.1993
   71SLPC  H13C 6105   2.057   4.123  11.112  1.9618 -1.6271  2.2498
   71SLPC   C14 6106   2.302   4.073  11.171  0.5914  0.1041 -0.1553
   71SLPC  H14A 6107   2.272   4.133  11.255 -0.4796  0.3048 -0.6568
   71SLPC  H14B 6108   2.229   3.994  11.175  0.5978  0.0821 -0.4034
   71SLPC  H14C 6109   2.403   4.035  11.173 -0.2368 -2.2187  0.4341
   71SLPC   C15 6110   2.346   4.272  11.061 -0.2025  0.7637  0.0783
   71SLPC  H15A 6111   2.448   4.249  11.032 -0.7392 -0.0664 -1.1901
   71SLPC  H15B 6112   2.306   4.347  10.994 -0.8172  0.8128  0.4988
   71SLPC  H15C 6113   2.340   4.326  11.155 -0.5852  1.0747 -0.1224
   71SLPC   C12 6114   2.266   4.069  10.924 -0.1910  0.2066 -0.2489
   71SLPC  H12A 6115   2.211   3.978  10.946 -1.4321  0.1880 -3.0715
   71SLPC  H12B 6116   2.367   4.036  10.905  0.1715  1.3283 -0.3202
   71SLPC   C11 6117   2.197   4.132  10.799 -0.4531  0.3992 -0.5868
   71SLPC  H11A 6118   2.093   4.161  10.823 -1.5411 -2.5607 -1.2279
   71SLPC  H11B 6119   2.184   4.054  10.721 -2.0504  0.3005 -0.2579
   71SLPC     P 6120   2.236   4.378  10.719 -0.1350 -0.2940  0.4510
   71SLPC   O13 6121   2.107   4.409  10.782  1.0212 -0.2139  0.3002
   71SLPC   O14 6122   2.348   4.474  10.745 -0.4844  0.0768 -0.5088
   71SLPC   O12 6123   2.282   4.230  10.747 -0.0416  0.1377 -0.5737
   71SLPC   O11 6124   2.213   4.371  10.561  0.1032 -0.7164 -0.0063
   71SLPC    C1 6125   2.314   4.381  10.462  0.1372  0.2318  0.6701
   71SLPC    HA 6126   2.302   4.469  10.395 -0.5870 -1.7282 -1.9396
   71SLPC    HB 6127   2.416   4.394  10.505  1.1701 -0.2864 -1.4916
   71SLPC    C2 6128   2.322   4.263  10.370  0.8997 -0.5750  0.2951
   71SLPC    HS 6129   2.391   4.283  10.286 -1.7816 -0.0680 -1.9073
   71SLPC   O21 6130   2.187   4.235  10.319 -0.2419  0.1847 -0.0335
   71SLPC   C21 6131   2.150   4.324  10.228 -0.4367 -0.0982  0.9701
   71SLPC   O22 6132   2.223   4.405  10.175 -0.2224 -0.1183 -0.5559
   71SLPC   C22 6133   2.011   4.297  10.179  0.3161  0.0842 -0.2630
   71SLPC   H2R 6134   1.988   4.190  10.163  2.8654 -0.3397 -1.6054
   71SLPC   H2S 6135   1.941   4.339  10.255 -0.4174 -1.2566 -0.1772
   71SLPC    C3 6136   2.369   4.139  10.440  0.0635  0.8020  0.1625
   71SLPC    HX 6137   2.288   4.111  10.511  2.6701  0.2844  3.1338
   71SLPC    HY 6138   2.456   4.168  10.502  2.1460 -1.4994 -1.4897
   71SLPC   O31 6139   2.415   4.037  10.342  0.3591 -0.6170  0.5257
   71SLPC   C31 6140   2.535   4.051  10.295 -0.6129 -0.4921 -0.1794
   71SLPC   O32 6141   2.599   4.157  10.302 -0.0224  0.8666  0.0938
   71SLPC   C32 6142   2.587   3.932  10.218  0.2778 -0.5938 -0.3182
   71SLPC   H2X 6143   2.502   3.886  10.164  0.3961 -0.9805 -0.1853
   71SLPC   H2Y 6144   2.632   3.862  10.292  0.8207 -0.5458 -0.5999
   71SLPC   C23 6145   1.972   4.375  10.051  0.5214 -0.1757  0.2975
   71SLPC   H3R 6146   2.051   4.447  10.022  0.6267 -0.2704  0.3509
   71SLPC   H3S 6147   1.886   4.440  10.078 -0.0536 -1.1191  0.7839
   71SLPC   C24 6148   1.918   4.275   9.944 -0.3816 -0.1277  0.7142
   71SLPC   H4R 6149   1.855   4.196   9.989 -0.6738 -0.1201  0.3183
   71SLPC   H4S 6150   2.000   4.231   9.883  1.1295  0.1528  2.4516
   71SLPC   C25 6151   1.815   4.347   9.851  0.7551  0.2114  0.1492
   71SLPC   H5R 6152   1.868   4.434   9.807  0.4551  1.3631  1.9462
   71SLPC   H5S 6153   1.738   4.384   9.922  1.7683 -1.9039  2.5338
   71SLPC   C26 6154   1.751   4.265   9.734  0.5638 -0.5279  0.0752
   71SLPC   H6R 6155   1.648   4.303   9.718  1.0732  0.4361 -1.0129
   71SLPC   H6S 6156   1.727   4.160   9.764 -0.2484 -1.0941 -2.3098
   71SLPC   C27 6157   1.830   4.257   9.601 -0.0157 -0.2181  0.5513
   71SLPC   H7R 6158   1.778   4.183   9.536 -1.1651  0.5562  0.5757
   71SLPC   H7S 6159   1.929   4.220   9.637  0.2004 -0.1337  0.0516
   71SLPC   C28 6160   1.842   4.381   9.528  0.3105 -0.2654 -0.7473
   71SLPC   H8R 6161   1.877   4.464   9.593  2.2179  1.0958 -3.3215
   71SLPC   H8S 6162   1.738   4.407   9.497  0.0199 -2.0176 -1.3797
   71SLPC   C29 6163   1.924   4.364   9.410  1.4515  0.2038 -0.0575
   71SLPC   H9R 6164   2.028   4.336   9.429  1.3909 -0.3288 -0.4526
   71SLPC  C210 6165   1.897   4.353   9.273 -0.4067  0.2647  0.3669
   71SLPC  H10R 6166   1.983   4.334   9.207  0.0300 -0.6137  1.1641
   71SLPC  C211 6167   1.764   4.344   9.209 -0.4395  0.0628  0.3575
   71SLPC  H11R 6168   1.785   4.353   9.100  1.9852  1.7276  0.8833
   71SLPC  H11S 6169   1.712   4.440   9.231 -0.3145  0.1050  0.4718
   71SLPC  C212 6170   1.676   4.225   9.236 -0.0037  0.5110 -0.2040
   71SLPC  H12R 6171   1.619   4.219   9.331  1.4664 -0.6584  0.6311
   71SLPC  C213 6172   1.663   4.116   9.153 -1.0378 -0.2375  0.3355
   71SLPC  H13R 6173   1.588   4.037   9.169 -0.5367 -0.6299  0.7909
   71SLPC  C214 6174   1.735   4.108   9.018  0.4439 -0.3360 -0.3188
   71SLPC  H14R 6175   1.827   4.170   9.016 -0.0493  0.7918  3.4909
   71SLPC  H14S 6176   1.665   4.152   8.945 -0.5914 -0.1591  0.7419
   71SLPC  C215 6177   1.770   3.961   8.986 -0.1687  0.1679  0.2720
   71SLPC  H15R 6178   1.696   3.887   9.026 -1.6688  2.9285  3.0086
   71SLPC  H15S 6179   1.865   3.951   9.043  0.1215 -0.8203 -0.3510
   71SLPC  C216 6180   1.794   3.921   8.837  0.1858 -0.8489  0.4368
   71SLPC  H16R 6181   1.881   3.981   8.801  0.1258 -1.7680 -1.3574
   71SLPC  H16S 6182   1.717   3.974   8.778  0.2876 -0.5890  0.5348
   71SLPC  C217 6183   1.810   3.777   8.796 -0.2748  0.5583  0.1621
   71SLPC  H17R 6184   1.712   3.730   8.817 -0.6570  0.4961 -1.5883
   71SLPC  H17S 6185   1.885   3.722   8.856  1.2444  1.4392 -0.8512
   71SLPC  C218 6186   1.849   3.771   8.645 -0.1976  0.1955  0.2277
   71SLPC  H18R 6187   1.959   3.782   8.642 -0.0874 -0.6764  0.7951
   71SLPC  H18S 6188   1.789   3.842   8.583 -1.6878  1.0831  2.5384
   71SLPC  H18T 6189   1.819   3.671   8.609  0.1155  0.2121 -0.0870
   71SLPC   C33 6190   2.700   3.951  10.114  0.1494 -0.2284  0.2282
   71SLPC   H3X 6191   2.754   3.854  10.104 -1.5903 -1.1248 -1.0413
   71SLPC   H3Y 6192   2.774   4.027  10.149 -0.7436  1.1440 -0.7590
   71SLPC   C34 6193   2.635   3.965   9.976 -0.5113  0.3289  0.2808
   71SLPC   H4X 6194   2.609   4.073   9.974 -0.1364  0.5424  3.0262
   71SLPC   H4Y 6195   2.536   3.915   9.968  0.4716 -1.5270 -0.9223
   71SLPC   C35 6196   2.732   3.916   9.864  0.0735  0.5134  0.4690
   71SLPC   H5X 6197   2.747   3.806   9.874 -2.5940  0.2211  2.4645
   71SLPC   H5Y 6198   2.829   3.969   9.856 -1.1607  2.8595  0.0367
   71SLPC   C36 6199   2.677   3.923   9.720 -0.0847  0.2748  0.8934
   71SLPC   H6X 6200   2.651   4.030   9.707  0.0899  0.2049 -0.0618
   71SLPC   H6Y 6201   2.583   3.868   9.700  0.3861 -0.5113  0.8090
   71SLPC   C37 6202   2.765   3.851   9.620 -0.3802  0.1483  0.8712
   71SLPC   H7X 6203   2.764   3.741   9.639  1.1392 -0.0139  0.1577
   71SLPC   H7Y 6204   2.869   3.888   9.629 -1.6934  3.8544  3.3611
   71SLPC   C38 6205   2.706   3.867   9.484  0.7118 -0.1569  0.2787
   71SLPC   H8X 6206   2.680   3.975   9.480  0.8158 -0.1621 -0.8089
   71SLPC   H8Y 6207   2.613   3.810   9.464 -0.1134  1.7688 -1.8612
   71SLPC   C39 6208   2.815   3.840   9.378 -0.2844 -0.5388 -0.0226
   71SLPC   H9X 6209   2.852   3.736   9.386  1.3073  0.0602  0.7244
   71SLPC   H9Y 6210   2.904   3.905   9.392 -0.5943 -0.3922  1.3567
   71SLPC  C310 6211   2.775   3.874   9.236  0.2180  0.6254  0.0383
   71SLPC  H10X 6212   2.758   3.983   9.230  1.1990  0.9244  2.0336
   71SLPC  H10Y 6213   2.674   3.830   9.219  0.0741  0.8953  0.1915
   71SLPC  C311 6214   2.863   3.810   9.120  0.3589  0.0869  0.5216
   71SLPC  H11X 6215   2.881   3.709   9.163 -1.8428  0.1578  1.7437
   71SLPC  H11Y 6216   2.958   3.867   9.107  0.2113  0.1140 -0.4938
   71SLPC  C312 6217   2.796   3.790   8.985  0.3321  0.1021  0.2875
   71SLPC  H12X 6218   2.761   3.885   8.939  1.9666 -0.0786 -1.4627
   71SLPC  H12Y 6219   2.703   3.735   9.009 -0.3486  1.0627 -0.0940
   71SLPC  C313 6220   2.872   3.712   8.879  0.4135  0.2190  0.0269
   71SLPC  H13X 6221   2.854   3.608   8.914  0.1903  0.0826 -0.4779
   71SLPC  H13Y 6222   2.978   3.736   8.899  1.6454 -4.1966 -0.1175
   71SLPC  C314 6223   2.822   3.742   8.739 -0.2267 -0.2470  0.3926
   71SLPC  H14X 6224   2.828   3.853   8.748  1.4341 -0.2561 -0.2358
   71SLPC  H14Y 6225   2.726   3.696   8.706 -0.6782  0.8863  0.0858
   71SLPC  C315 6226   2.931   3.712   8.636 -0.4836  0.6218  0.0220
   71SLPC  H15X 6227   2.930   3.601   8.634  0.6053  0.6013 -0.3506
   71SLPC  H15Y 6228   3.028   3.752   8.674  1.0316 -1.5371 -1.2897
   71SLPC  C316 6229   2.913   3.777   8.498  0.1439  0.7149 -0.1791
   71SLPC  H16X 6230   3.011   3.782   8.447  0.3333  1.2280  0.2202
   71SLPC  H16Y 6231   2.884   3.882   8.521 -2.9353 -0.0919  0.0537
   71SLPC  C317 6232   2.804   3.712   8.407 -0.1625 -0.1076  0.7223
   71SLPC  H17X 6233   2.810   3.752   8.304 -0.2782  2.3560  1.6146
   71SLPC  H17Y 6234   2.709   3.752   8.449 -0.0433 -0.1221  1.0112
   71SLPC  C318 6235   2.794   3.559   8.417 -0.2097 -0.0660  0.3162
   71SLPC  H18X 6236   2.763   3.543   8.522  0.2123  1.3539  0.6700
   71SLPC  H18Y 6237   2.897   3.518   8.409 -0.3002 -0.2225 -0.0654
   71SLPC  H18Z 6238   2.720   3.512   8.348  1.0440 -0.0083 -1.1048
   72SLPC     N 6239   4.120   3.109  10.770  0.5243  0.1782  0.0474
   72SLPC   C13 6240   4.184   3.214  10.682  0.0743  0.5144  0.3687
   72SLPC  H13A 6241   4.188   3.306  10.737  2.7219  1.1522 -0.7443
   72SLPC  H13B 6242   4.281   3.186  10.644 -0.6226  2.1909 -3.0972
   72SLPC  H13C 6243   4.127   3.232  10.591  1.4031 -1.2766 -0.8906
   72SLPC   C14 6244   4.103   2.984  10.688 -0.0011 -0.6307 -0.8261
   72SLPC  H14A 6245   4.195   2.944  10.648 -0.4493 -3.0823  0.4547
   72SLPC  H14B 6246   4.071   2.909  10.758 -1.7807 -1.0806 -2.0385
   72SLPC  H14C 6247   4.029   2.993  10.609 -2.6496 -2.7005  1.2267
   72SLPC   C15 6248   3.992   3.160  10.828  0.0904  0.5486 -0.2318
   72SLPC  H15A 6249   4.013   3.241  10.897  1.2187 -0.7395  0.9763
   72SLPC  H15B 6250   3.928   3.195  10.748 -0.3271  3.4183  1.1980
   72SLPC  H15C 6251   3.938   3.093  10.892 -1.2062  0.6444 -1.1705
   72SLPC   C12 6252   4.212   3.076  10.884  0.0486 -0.3989 -0.1947
   72SLPC  H12A 6253   4.168   2.993  10.938 -1.3266  0.7847  0.5827
   72SLPC  H12B 6254   4.209   3.153  10.960  3.3612  0.3862 -0.7163
   72SLPC   C11 6255   4.357   3.039  10.854 -0.5690  0.6902 -0.0165
   72SLPC  H11A 6256   4.418   3.035  10.946  1.1614  3.4047 -0.9136
   72SLPC  H11B 6257   4.391   3.131  10.800 -1.4397  1.0129 -0.0360
   72SLPC     P 6258   4.364   2.778  10.839 -0.1576  0.2874 -0.5130
   72SLPC   O13 6259   4.495   2.749  10.900  0.3833  0.0020  0.8520
   72SLPC   O14 6260   4.240   2.772  10.924 -0.0887  0.5257  0.4394
   72SLPC   O12 6261   4.369   2.924  10.766  0.1967 -0.1379  0.3697
   72SLPC   O11 6262   4.333   2.686  10.718 -0.3088 -0.3545  0.1142
   72SLPC    C1 6263   4.407   2.697  10.589 -0.1459  0.2181  0.0335
   72SLPC    HA 6264   4.420   2.804  10.562 -1.6027 -0.4124 -3.8197
   72SLPC    HB 6265   4.509   2.654  10.600  0.5535  1.7033 -0.4029
   72SLPC    C2 6266   4.320   2.646  10.470  1.3196 -0.1732 -0.3145
   72SLPC    HS 6267   4.312   2.536  10.484 -1.6917 -0.1241 -0.9722
   72SLPC   O21 6268   4.379   2.683  10.343 -0.8646 -0.1056  0.3471
   72SLPC   C21 6269   4.476   2.613  10.306 -0.1224  0.2423  0.0208
   72SLPC   O22 6270   4.544   2.537  10.377  0.0480  0.1833 -0.5511
   72SLPC   C22 6271   4.520   2.653  10.171 -0.0016 -0.6050  0.2247
   72SLPC   H2R 6272   4.546   2.557  10.122  0.8133 -0.6951  0.8146
   72SLPC   H2S 6273   4.448   2.709  10.109  0.6851 -0.4097 -0.4121
   72SLPC    C3 6274   4.181   2.712  10.488  0.1894 -0.2945  0.0156
   72SLPC    HX 6275   4.194   2.823  10.494 -1.3465 -0.1967  2.4707
   72SLPC    HY 6276   4.147   2.673  10.586 -1.0992 -1.0543 -0.7060
   72SLPC   O31 6277   4.085   2.682  10.389  0.4668  0.2624  0.2928
   72SLPC   C31 6278   4.040   2.553  10.387  0.0380 -0.6101 -0.4585
   72SLPC   O32 6279   4.073   2.468  10.468 -0.1791  0.4242 -0.0454
   72SLPC   C32 6280   3.941   2.539  10.269 -0.3645 -1.0659 -0.1881
   72SLPC   H2X 6281   3.839   2.558  10.310 -0.0951 -2.3386  1.1654
   72SLPC   H2Y 6282   3.954   2.438  10.227  2.5728 -0.5961 -0.6329
   72SLPC   C23 6283   4.656   2.734  10.189 -0.1118  0.2544  0.2797
   72SLPC   H3R 6284   4.743   2.671  10.216  0.7802  2.2218  2.2832
   72SLPC   H3S 6285   4.634   2.806  10.270 -0.3493 -0.4000  0.8069
   72SLPC   C24 6286   4.701   2.820  10.065 -0.7658 -0.2245 -1.1602
   72SLPC   H4R 6287   4.803   2.859  10.088 -1.1951  0.8120 -0.9635
   72SLPC   H4S 6288   4.643   2.914  10.075  3.3279  2.5040 -0.5572
   72SLPC   C25 6289   4.682   2.762   9.927  0.1107  0.3016  0.3171
   72SLPC   H5R 6290   4.575   2.772   9.900  0.1251 -0.4072 -0.0032
   72SLPC   H5S 6291   4.690   2.652   9.931 -1.2012 -0.1341 -4.0895
   72SLPC   C26 6292   4.783   2.822   9.826 -0.0958  0.1331  0.4547
   72SLPC   H6R 6293   4.882   2.799   9.870 -0.9328 -1.1388  1.7600
   72SLPC   H6S 6294   4.763   2.932   9.832 -2.2884 -0.1590 -0.5510
   72SLPC   C27 6295   4.768   2.784   9.678 -0.1481 -0.3491 -0.5256
   72SLPC   H7R 6296   4.659   2.798   9.657 -0.5970 -0.3464  1.6409
   72SLPC   H7S 6297   4.799   2.678   9.681  1.3836  0.0959 -0.1647
   72SLPC   C28 6298   4.864   2.845   9.578  0.0557 -0.0981  0.6202
   72SLPC   H8R 6299   4.865   2.776   9.490 -2.6919  2.0525 -1.2744
   72SLPC   H8S 6300   4.968   2.846   9.616  0.6905  2.7306 -0.9102
   72SLPC   C29 6301   4.825   2.984   9.525 -0.3266  0.1955 -0.6286
   72SLPC   H9R 6302   4.823   3.054   9.610  2.6923 -2.1981  1.7031
   72SLPC  C210 6303   4.786   3.013   9.402  0.4950  0.2402 -0.4482
   72SLPC  H10R 6304   4.744   3.109   9.371 -0.1937  1.4573  3.7188
   72SLPC  C211 6305   4.798   2.915   9.284 -0.4254  0.2811  0.2761
   72SLPC  H11R 6306   4.884   2.844   9.288  0.9236  1.8810  1.0762
   72SLPC  H11S 6307   4.824   2.968   9.190 -0.6744 -0.1497 -0.0394
   72SLPC  C212 6308   4.671   2.836   9.266  0.5707 -0.3327  0.7064
   72SLPC  H12R 6309   4.636   2.794   9.361 -0.3044  1.2517  1.1320
   72SLPC  C213 6310   4.600   2.828   9.151  0.2570  0.5139 -0.3050
   72SLPC  H13R 6311   4.517   2.756   9.150 -0.6608  1.5107  1.0561
   72SLPC  C214 6312   4.639   2.902   9.029  0.2306 -0.2417 -0.1582
   72SLPC  H14R 6313   4.737   2.867   8.990 -0.5515 -1.1743 -1.3805
   72SLPC  H14S 6314   4.649   3.007   9.063  2.7287 -0.5090  0.0917
   72SLPC  C215 6315   4.550   2.899   8.908 -0.0886 -0.2799 -0.0636
   72SLPC  H15R 6316   4.583   2.980   8.839  0.2116  1.6528  2.2264
   72SLPC  H15S 6317   4.443   2.907   8.933 -0.0159 -1.8370  0.8916
   72SLPC  C216 6318   4.546   2.757   8.833 -0.7174 -0.1308 -0.6020
   72SLPC  H16R 6319   4.511   2.685   8.910 -0.0976  1.1179  0.8924
   72SLPC  H16S 6320   4.651   2.723   8.822 -0.3317 -0.1950  2.4691
   72SLPC  C217 6321   4.470   2.769   8.697 -0.1199 -0.0467 -0.2632
   72SLPC  H17R 6322   4.527   2.832   8.626 -1.6777  1.9085  0.1098
   72SLPC  H17S 6323   4.368   2.812   8.712 -0.6729 -1.7110  1.1129
   72SLPC  C218 6324   4.463   2.636   8.617  0.8745  0.0557  0.4258
   72SLPC  H18R 6325   4.563   2.601   8.586  0.9139  0.0887  0.5131
   72SLPC  H18S 6326   4.394   2.645   8.531  0.0661 -0.8254  0.9618
   72SLPC  H18T 6327   4.434   2.550   8.681 -0.8725 -1.7784 -2.6312
   72SLPC   C33 6328   3.964   2.636  10.161 -0.1441 -0.6337 -0.1229
   72SLPC   H3X 6329   3.969   2.742  10.193 -0.0830 -0.5475 -0.4127
   72SLPC   H3Y 6330   3.882   2.639  10.086  0.0761  2.8027 -0.3976
   72SLPC   C34 6331   4.090   2.610  10.079  0.1574  0.1014  0.1723
   72SLPC   H4X 6332   4.071   2.521  10.015 -2.5557  0.7725 -0.0575
   72SLPC   H4Y 6333   4.177   2.602  10.148 -1.9862 -0.2834  2.9804
   72SLPC   C35 6334   4.110   2.721   9.975 -0.2472 -0.1984 -0.5948
   72SLPC   H5X 6335   4.151   2.809  10.028 -2.2795 -0.1807  1.0713
   72SLPC   H5Y 6336   4.013   2.739   9.924  0.0265  1.7318 -0.4888
   72SLPC   C36 6337   4.206   2.673   9.860 -0.1531  0.0605  0.3687
   72SLPC   H6X 6338   4.173   2.574   9.824  4.5943 -1.5785 -0.1744
   72SLPC   H6Y 6339   4.299   2.646   9.914 -1.9694 -1.8844  2.7010
   72SLPC   C37 6340   4.224   2.777   9.753  0.0156 -0.2086 -0.5042
   72SLPC   H7X 6341   4.239   2.876   9.802 -0.6759 -0.1601 -0.3744
   72SLPC   H7Y 6342   4.132   2.785   9.690  0.1569 -0.6653 -0.7647
   72SLPC   C38 6343   4.356   2.760   9.672 -0.4174  0.7786  0.1957
   72SLPC   H8X 6344   4.383   2.653   9.669 -1.2769  0.4913  1.6927
   72SLPC   H8Y 6345   4.437   2.810   9.730 -0.0464  1.3394 -0.7845
   72SLPC   C39 6346   4.344   2.825   9.533 -0.9558  0.1855 -1.4201
   72SLPC   H9X 6347   4.443   2.813   9.484 -0.1292 -3.5065  0.7316
   72SLPC   H9Y 6348   4.330   2.935   9.543  1.9561  0.4694  0.8309
   72SLPC  C310 6349   4.236   2.756   9.454 -0.1333 -0.4985  0.9085
   72SLPC  H10X 6350   4.150   2.827   9.451  1.2892  1.3247 -2.5018
   72SLPC  H10Y 6351   4.218   2.656   9.499 -3.2028 -0.2459  0.4296
   72SLPC  C311 6352   4.271   2.733   9.306 -0.0714 -0.0663  0.4182
   72SLPC  H11X 6353   4.355   2.661   9.297 -0.3939 -0.5263  1.0248
   72SLPC  H11Y 6354   4.311   2.823   9.255 -2.3501  0.6265 -0.3021
   72SLPC  C312 6355   4.145   2.694   9.221 -0.7263 -0.2441 -0.8048
   72SLPC  H12X 6356   4.070   2.776   9.225 -0.7859 -0.2928 -0.9169
   72SLPC  H12Y 6357   4.088   2.610   9.266  3.0161 -2.2899  0.6008
   72SLPC  C313 6358   4.197   2.679   9.072 -0.6412  0.6355 -0.4085
   72SLPC  H13X 6359   4.273   2.599   9.067  0.0637  1.2749 -0.0936
   72SLPC  H13Y 6360   4.256   2.771   9.052 -0.0352  0.5050  0.6951
   72SLPC  C314 6361   4.082   2.646   8.979 -0.5522 -0.2324 -0.3494
   72SLPC  H14X 6362   4.002   2.722   8.990  1.1735  1.6915 -0.4525
   72SLPC  H14Y 6363   4.037   2.546   8.994  1.6565 -1.1626  0.4608
   72SLPC  C315 6364   4.110   2.646   8.829 -0.0399  0.0268  0.7783
   72SLPC  H15X 6365   4.181   2.567   8.795 -0.7685  0.6557 -2.6153
   72SLPC  H15Y 6366   4.152   2.741   8.789 -0.3624 -0.5459 -1.0515
   72SLPC  C316 6367   3.985   2.602   8.743  0.8145  0.3384 -0.3336
   72SLPC  H16X 6368   4.005   2.614   8.635  0.8334  2.1994 -0.1694
   72SLPC  H16Y 6369   3.904   2.674   8.768  1.7635  0.6700  2.1532
   72SLPC  C317 6370   3.932   2.462   8.777 -0.1935  0.3233  0.0745
   72SLPC  H17X 6371   3.900   2.455   8.883  0.4650  1.1496  0.3418
   72SLPC  H17Y 6372   4.016   2.390   8.764 -1.4700 -1.8738  2.8700
   72SLPC  C318 6373   3.815   2.415   8.688  0.5207  0.0614  0.3539
   72SLPC  H18X 6374   3.722   2.475   8.696  0.4894  0.0524  0.0806
   72SLPC  H18Y 6375   3.778   2.314   8.715 -1.0303  0.8932  1.4975
   72SLPC  H18Z 6376   3.846   2.402   8.582 -0.7629 -3.3062  0.2686
   73SLPC     N 6377   3.553   1.081  10.868 -0.6369 -1.0201 -0.2212
   73SLPC   C13 6378   3.555   0.938  10.840  0.4018 -0.3481  0.3437
   73SLPC  H13A 6379   3.584   0.891  10.933  2.0694 -0.7739 -0.3473
   73SLPC  H13B 6380   3.458   0.901  10.808  0.3728 -0.7933  0.9168
   73SLPC  H13C 6381   3.626   0.908  10.764 -0.3882 -1.3589 -0.0233
   73SLPC   C14 6382   3.452   1.110  10.977  0.7005 -0.1031 -0.6450
   73SLPC  H14A 6383   3.423   1.213  10.988  0.9615 -0.1733  0.8720
   73SLPC  H14B 6384   3.355   1.063  10.969 -1.4679  4.0562 -1.1684
   73SLPC  H14C 6385   3.484   1.072  11.072 -0.1996 -0.7809 -0.5948
   73SLPC   C15 6386   3.493   1.163  10.758  0.1649 -0.6561  0.0249
   73SLPC  H15A 6387   3.536   1.137  10.662 -0.9807  0.8622 -0.9410
   73SLPC  H15B 6388   3.386   1.154  10.748 -0.0410  0.9919  0.4843
   73SLPC  H15C 6389   3.531   1.263  10.771  1.8559 -1.1674 -0.6161
   73SLPC   C12 6390   3.697   1.121  10.904  0.1096 -0.2091  0.3076
   73SLPC  H12A 6391   3.753   1.089  10.818 -0.8872  0.0964 -0.4766
   73SLPC  H12B 6392   3.734   1.069  10.991 -0.5046  1.1057  1.4018
   73SLPC   C11 6393   3.736   1.271  10.924 -0.2233 -0.5107  0.2186
   73SLPC  H11A 6394   3.840   1.282  10.960 -0.1163  1.2533 -0.5058
   73SLPC  H11B 6395   3.667   1.313  11.001  0.9537 -1.1781  1.6668
   73SLPC     P 6396   3.818   1.342  10.680 -0.1531  0.2412  0.1617
   73SLPC   O13 6397   3.960   1.350  10.721  0.4544  0.3399 -0.3055
   73SLPC   O14 6398   3.780   1.216  10.608 -0.1210  0.1463  0.0618
   73SLPC   O12 6399   3.727   1.362  10.808  0.9500 -0.0065 -0.5272
   73SLPC   O11 6400   3.791   1.467  10.580 -0.0394  0.1901 -0.6346
   73SLPC    C1 6401   3.656   1.513  10.550 -1.1284 -0.3552  0.5645
   73SLPC    HA 6402   3.590   1.511  10.639 -0.7348 -3.6946  0.9396
   73SLPC    HB 6403   3.664   1.614  10.506 -1.9536 -1.1946 -1.6620
   73SLPC    C2 6404   3.578   1.421  10.439 -0.7992 -0.0499 -0.5463
   73SLPC    HS 6405   3.564   1.325  10.494 -0.5522  0.2147 -0.0126
   73SLPC   O21 6406   3.670   1.419  10.329  0.0202 -0.5751  0.2079
   73SLPC   C21 6407   3.669   1.316  10.255 -0.8502  0.5979  0.5542
   73SLPC   O22 6408   3.629   1.204  10.295  0.8805 -0.1318 -0.8364
   73SLPC   C22 6409   3.715   1.343  10.110 -0.0317 -0.3061 -0.2009
   73SLPC   H2R 6410   3.678   1.438  10.067 -0.3121 -0.5983 -0.6012
   73SLPC   H2S 6411   3.826   1.345  10.115  0.0165 -0.1657 -1.1945
   73SLPC    C3 6412   3.442   1.485  10.410  0.9617 -0.0825 -0.3149
   73SLPC    HX 6413   3.448   1.590  10.375  0.8264  0.5476  1.4385
   73SLPC    HY 6414   3.371   1.481  10.495  1.7892 -1.1455  0.3622
   73SLPC   O31 6415   3.372   1.417  10.304  0.0411  0.4002  0.3595
   73SLPC   C31 6416   3.330   1.292  10.328 -0.1545  0.3792 -0.1456
   73SLPC   O32 6417   3.338   1.223  10.425 -0.0257  0.2393  0.0098
   73SLPC   C32 6418   3.278   1.225  10.194  0.0477 -0.0184  0.3418
   73SLPC   H2X 6419   3.304   1.285  10.105 -0.9400  1.6151  1.1117
   73SLPC   H2Y 6420   3.167   1.223  10.196  0.0561 -2.4106  1.4683
   73SLPC   C23 6421   3.671   1.227  10.016  0.1757 -1.0929 -0.3558
   73SLPC   H3R 6422   3.561   1.220  10.027  0.0350  0.0473 -0.8656
   73SLPC   H3S 6423   3.729   1.137  10.045  0.2514 -0.9752 -0.1451
   73SLPC   C24 6424   3.707   1.247   9.865  0.1136  0.0925 -0.1548
   73SLPC   H4R 6425   3.815   1.252   9.841 -0.0211 -1.8526 -1.3754
   73SLPC   H4S 6426   3.657   1.335   9.820 -2.0347 -0.2870  1.3237
   73SLPC   C25 6427   3.659   1.116   9.785  0.0483 -0.5071 -0.6563
   73SLPC   H5R 6428   3.558   1.102   9.829 -0.2022 -1.0848 -1.3938
   73SLPC   H5S 6429   3.730   1.041   9.825  0.1373  0.4570  1.0955
   73SLPC   C26 6430   3.643   1.137   9.641 -0.9500  0.5391  0.0246
   73SLPC   H6R 6431   3.744   1.145   9.596 -1.0652  1.3069 -0.1193
   73SLPC   H6S 6432   3.601   1.237   9.618 -0.5650  0.9600  1.0889
   73SLPC   C27 6433   3.589   1.011   9.575  0.7382  0.0970 -0.3676
   73SLPC   H7R 6434   3.617   0.921   9.635 -1.0134  0.2285  0.6971
   73SLPC   H7S 6435   3.637   1.008   9.475  1.0300  0.4913 -0.2407
   73SLPC   C28 6436   3.437   1.003   9.556 -0.0966 -0.2637 -0.5296
   73SLPC   H8R 6437   3.393   0.994   9.658 -0.6353 -3.2987 -0.9386
   73SLPC   H8S 6438   3.409   0.913   9.498  1.3786  0.6093 -2.6976
   73SLPC   C29 6439   3.408   1.136   9.490  0.4767  0.3925  0.0285
   73SLPC   H9R 6440   3.381   1.218   9.557 -0.1510  0.1348  0.1030
   73SLPC  C210 6441   3.408   1.151   9.357  0.7506  0.5669 -0.2128
   73SLPC  H10R 6442   3.392   1.248   9.309  1.3093  0.0354 -1.5173
   73SLPC  C211 6443   3.425   1.043   9.254 -0.2529  0.2522  0.0779
   73SLPC  H11R 6444   3.356   1.080   9.175  0.5436 -1.4048 -1.4370
   73SLPC  H11S 6445   3.374   0.950   9.287  1.0779 -1.9052 -3.4505
   73SLPC  C212 6446   3.572   1.020   9.216  0.1565 -0.1634 -0.0204
   73SLPC  H12R 6447   3.634   0.954   9.278 -0.3877  1.2928  2.1927
   73SLPC  C213 6448   3.627   1.067   9.106 -0.3273 -0.2657  0.1746
   73SLPC  H13R 6449   3.732   1.042   9.086 -0.7413 -2.2436  0.2327
   73SLPC  C214 6450   3.555   1.152   9.002  0.7849 -0.1648 -0.3187
   73SLPC  H14R 6451   3.612   1.246   8.989 -1.2783  0.9185 -2.1389
   73SLPC  H14S 6452   3.450   1.185   9.018  0.5481 -1.0359 -0.0295
   73SLPC  C215 6453   3.550   1.084   8.858  0.1947  0.0102 -0.0468
   73SLPC  H15R 6454   3.470   1.133   8.798 -2.4252 -2.1283  1.4975
   73SLPC  H15S 6455   3.517   0.979   8.868 -0.8836  0.3947  0.6603
   73SLPC  C216 6456   3.682   1.088   8.770  0.7163  0.0192 -0.7634
   73SLPC  H16R 6457   3.759   1.031   8.827 -0.9320 -0.0665  1.5020
   73SLPC  H16S 6458   3.718   1.193   8.756 -0.2311  0.6495  1.1207
   73SLPC  C217 6459   3.687   1.006   8.637  0.1852 -0.8402 -0.1732
   73SLPC  H17R 6460   3.792   1.018   8.604  0.5365 -1.2388  0.7640
   73SLPC  H17S 6461   3.617   1.060   8.568  0.8432  0.6386  0.2722
   73SLPC  C218 6462   3.649   0.859   8.659  0.2030 -0.7096  0.5970
   73SLPC  H18R 6463   3.664   0.805   8.563  0.5863 -1.0411  0.8408
   73SLPC  H18S 6464   3.542   0.849   8.688 -0.5165  2.5654 -0.4483
   73SLPC  H18T 6465   3.715   0.815   8.736 -1.3716 -3.7481  0.3704
   73SLPC   C33 6466   3.327   1.070  10.176 -0.1499  0.0519 -0.1116
   73SLPC   H3X 6467   3.251   1.008  10.230 -0.8447  1.0954  0.1402
   73SLPC   H3Y 6468   3.428   1.062  10.221  0.5007 -0.6119 -1.6495
   73SLPC   C34 6469   3.318   1.004  10.036  0.0736  0.6504  0.4398
   73SLPC   H4X 6470   3.374   1.064   9.961  2.6136 -1.1319  0.7959
   73SLPC   H4Y 6471   3.210   0.989  10.011  0.0646 -0.9843  1.3278
   73SLPC   C35 6472   3.398   0.870  10.032  0.4083  0.1605 -0.1733
   73SLPC   H5X 6473   3.355   0.799  10.106  1.2030  1.9378  2.1200
   73SLPC   H5Y 6474   3.493   0.905  10.078 -0.7153  0.4471  2.0698
   73SLPC   C36 6475   3.428   0.808   9.888  0.0913 -0.1430 -0.1486
   73SLPC   H6X 6476   3.492   0.882   9.836  0.2477  1.5962  2.3562
   73SLPC   H6Y 6477   3.325   0.798   9.847 -0.0909  0.3324  0.1903
   73SLPC   C37 6478   3.491   0.669   9.888 -0.3416  0.0594  0.2387
   73SLPC   H7X 6479   3.416   0.590   9.908 -0.4456  0.6470  2.4090
   73SLPC   H7Y 6480   3.557   0.662   9.978  0.9655  1.0824 -0.5946
   73SLPC   C38 6481   3.560   0.641   9.751  0.2251 -1.2825 -0.7522
   73SLPC   H8X 6482   3.624   0.553   9.731 -1.2028 -2.9095  1.3285
   73SLPC   H8Y 6483   3.629   0.726   9.735 -0.7425 -0.6157 -1.5401
   73SLPC   C39 6484   3.452   0.635   9.640  0.1470 -0.3268  0.0027
   73SLPC   H9X 6485   3.379   0.719   9.642 -2.6042 -2.3935 -2.6911
   73SLPC   H9Y 6486   3.385   0.553   9.673 -0.0626  0.2921  1.1431
   73SLPC  C310 6487   3.519   0.631   9.503 -0.1973  0.0284 -0.1283
   73SLPC  H10X 6488   3.584   0.541   9.497 -1.7548 -1.1463 -0.0268
   73SLPC  H10Y 6489   3.580   0.724   9.497  0.4406 -0.3401  0.5865
   73SLPC  C311 6490   3.416   0.644   9.388  0.3479  0.2395  0.4367
   73SLPC  H11X 6491   3.352   0.734   9.400 -0.1252  0.3594 -2.3823
   73SLPC  H11Y 6492   3.347   0.558   9.402  0.5320 -0.0888 -0.5746
   73SLPC  C312 6493   3.482   0.657   9.248 -0.2239  0.4570 -0.1844
   73SLPC  H12X 6494   3.565   0.583   9.237 -2.2389 -2.0548  0.4208
   73SLPC  H12Y 6495   3.531   0.756   9.243  0.0659  0.2935 -0.6376
   73SLPC  C313 6496   3.387   0.653   9.125 -0.0744  0.1644  0.3467
   73SLPC  H13X 6497   3.317   0.739   9.127 -0.9216 -0.5218  1.0175
   73SLPC  H13Y 6498   3.323   0.563   9.139 -1.3315  0.9292 -0.2780
   73SLPC  C314 6499   3.468   0.644   8.995 -0.2913 -0.0151  0.5951
   73SLPC  H14X 6500   3.566   0.597   9.018 -0.3365 -2.0437 -2.7000
   73SLPC  H14Y 6501   3.494   0.747   8.963  2.0053 -0.8357 -0.3788
   73SLPC  C315 6502   3.404   0.561   8.885 -0.1139 -0.0092 -0.1871
   73SLPC  H15X 6503   3.313   0.623   8.871  0.7568  1.1697 -0.7971
   73SLPC  H15Y 6504   3.379   0.460   8.924 -0.2483 -0.2321 -0.8454
   73SLPC  C316 6505   3.475   0.554   8.749 -0.3284 -0.4011  0.4683
   73SLPC  H16X 6506   3.582   0.582   8.761 -1.3287  3.0099  3.1333
   73SLPC  H16Y 6507   3.435   0.637   8.687 -2.7032 -0.7755  1.3818
   73SLPC  C317 6508   3.444   0.425   8.678  0.5100  0.3356  0.3395
   73SLPC  H17X 6509   3.459   0.339   8.747  0.8484 -1.6824 -2.0915
   73SLPC  H17Y 6510   3.518   0.402   8.598  0.6829 -2.9039  1.2740
   73SLPC  C318 6511   3.303   0.416   8.611 -1.0611  0.2109 -0.2532
   73SLPC  H18X 6512   3.284   0.321   8.557 -0.2755  1.5538 -3.0953
   73SLPC  H18Y 6513   3.287   0.503   8.545  0.2333  0.2137 -0.5914
   73SLPC  H18Z 6514   3.226   0.423   8.691 -0.9901 -1.8617  0.0718
   74SLPC     N 6515   4.764   3.210  11.132 -0.1008 -0.5441 -0.2417
   74SLPC   C13 6516   4.694   3.271  11.251 -0.3845 -0.3449 -0.5772
   74SLPC  H13A 6517   4.685   3.378  11.236  0.6345  0.0558  1.3106
   74SLPC  H13B 6518   4.598   3.227  11.271 -1.6192  1.7087 -1.6741
   74SLPC  H13C 6519   4.758   3.264  11.338  0.6622  1.3078 -1.1569
   74SLPC   C14 6520   4.782   3.059  11.157 -0.8370 -0.5282  0.2388
   74SLPC  H14A 6521   4.681   3.021  11.164 -0.5980 -1.5022 -1.1569
   74SLPC  H14B 6522   4.836   3.022  11.071  1.9779  1.7171  0.8672
   74SLPC  H14C 6523   4.838   3.040  11.247  1.2536  2.5457 -0.2519
   74SLPC   C15 6524   4.897   3.270  11.110 -0.2478  0.9363  0.5680
   74SLPC  H15A 6525   4.873   3.374  11.098 -1.2193  0.6047 -0.5493
   74SLPC  H15B 6526   4.966   3.258  11.192  1.3585  0.8652 -0.7333
   74SLPC  H15C 6527   4.949   3.231  11.024  0.3247 -1.3540  1.8682
   74SLPC   C12 6528   4.677   3.230  11.008  0.9156  0.4719  0.7654
   74SLPC  H12A 6529   4.685   3.333  10.977  0.0176  0.9323  1.9661
   74SLPC  H12B 6530   4.573   3.219  11.034  1.0418 -1.6197  0.5307
   74SLPC   C11 6531   4.707   3.142  10.883 -0.7886  0.0664 -0.5334
   74SLPC  H11A 6532   4.631   3.155  10.802 -0.3720  1.1077 -0.7723
   74SLPC  H11B 6533   4.687   3.045  10.932  0.5721  0.4115  0.7718
   74SLPC     P 6534   4.873   3.266  10.733 -0.1955  0.1590  0.1606
   74SLPC   O13 6535   4.805   3.391  10.779 -0.0554  0.2537  0.0229
   74SLPC   O14 6536   5.015   3.269  10.699  0.5459 -0.4770 -0.1524
   74SLPC   O12 6537   4.847   3.148  10.840  0.7725 -0.5968  0.4762
   74SLPC   O11 6538   4.796   3.214  10.610 -0.0051  0.1387 -0.1388
   74SLPC    C1 6539   4.804   3.077  10.579 -0.1663  0.0282 -0.7089
   74SLPC    HA 6540   4.907   3.053  10.544  0.7591  0.9248  1.2597
   74SLPC    HB 6541   4.782   3.006  10.661 -0.8243  1.5455  0.4756
   74SLPC    C2 6542   4.713   3.037  10.462 -0.8450  0.0953 -0.2560
   74SLPC    HS 6543   4.729   2.933  10.426  0.3462 -0.1075  0.7804
   74SLPC   O21 6544   4.716   3.130  10.354 -0.0564  0.1139 -0.1019
   74SLPC   C21 6545   4.833   3.143  10.294  0.4553  0.2023 -0.1439
   74SLPC   O22 6546   4.933   3.076  10.314 -0.3583  0.3385 -0.3280
   74SLPC   C22 6547   4.823   3.268  10.204  0.1773 -0.3257  0.1233
   74SLPC   H2R 6548   4.816   3.357  10.270 -1.8176  0.2682 -0.8346
   74SLPC   H2S 6549   4.922   3.275  10.154  0.7943  1.8099  1.5241
   74SLPC    C3 6550   4.571   3.028  10.515 -0.3928  0.1032 -0.3272
   74SLPC    HX 6551   4.555   3.131  10.554 -0.4901 -0.6106  1.6469
   74SLPC    HY 6552   4.558   2.965  10.606  2.2647 -0.1603 -0.0567
   74SLPC   O31 6553   4.470   2.988  10.416  0.1189  0.2186  0.0519
   74SLPC   C31 6554   4.404   3.086  10.351 -0.1752  0.3043 -0.1583
   74SLPC   O32 6555   4.426   3.209  10.357  0.2258 -0.5105  0.4856
   74SLPC   C32 6556   4.275   3.017  10.292 -0.4396  0.2330 -0.2911
   74SLPC   H2X 6557   4.188   3.021  10.361 -1.7451 -2.0629 -1.6844
   74SLPC   H2Y 6558   4.303   2.910  10.283 -2.2139 -0.1475 -1.9110
   74SLPC   C23 6559   4.714   3.266  10.090  0.2082  1.1756 -0.5936
   74SLPC   H3R 6560   4.615   3.295  10.131 -0.4846  1.3681 -2.3378
   74SLPC   H3S 6561   4.702   3.161  10.056 -2.8249  0.9276  0.9064
   74SLPC   C24 6562   4.733   3.369   9.982  0.1307  0.4619 -0.1435
   74SLPC   H4R 6563   4.791   3.456  10.020 -0.6405  0.5258  0.9547
   74SLPC   H4S 6564   4.634   3.411   9.954  1.2353  3.2467 -0.1931
   74SLPC   C25 6565   4.792   3.313   9.859 -0.3490 -0.0147  0.0264
   74SLPC   H5R 6566   4.727   3.230   9.826  0.2513 -1.2534  1.8162
   74SLPC   H5S 6567   4.896   3.282   9.886 -0.7136  0.7787  2.6538
   74SLPC   C26 6568   4.794   3.415   9.741 -0.3773 -0.5620 -0.2648
   74SLPC   H6R 6569   4.840   3.509   9.778 -3.2918 -0.2554  3.2372
   74SLPC   H6S 6570   4.689   3.448   9.727 -0.1415  0.0327 -0.6743
   74SLPC   C27 6571   4.865   3.379   9.619  0.5301  0.7537 -0.6088
   74SLPC   H7R 6572   4.800   3.301   9.574  2.5037 -1.5987  0.3339
   74SLPC   H7S 6573   4.971   3.350   9.636 -0.0635 -0.4548  1.3941
   74SLPC   C28 6574   4.870   3.501   9.523  0.5823 -0.2650 -0.5928
   74SLPC   H8R 6575   4.938   3.577   9.567  0.3265 -0.2456 -0.2282
   74SLPC   H8S 6576   4.770   3.548   9.533  0.1895 -1.3888  1.1076
   74SLPC   C29 6577   4.913   3.464   9.380  0.5943  0.2252 -0.6060
   74SLPC   H9R 6578   4.994   3.390   9.372  1.1292  0.8458 -1.0307
   74SLPC  C210 6579   4.857   3.500   9.257  0.4423 -1.1328 -0.7032
   74SLPC  H10R 6580   4.900   3.469   9.160  0.6176 -2.0406 -0.3449
   74SLPC  C211 6581   4.741   3.600   9.246  0.3470  0.3216  0.3007
   74SLPC  H11R 6582   4.704   3.617   9.349 -1.6525  2.1783 -0.6360
   74SLPC  H11S 6583   4.651   3.558   9.196  0.7301  0.8979 -0.9096
   74SLPC  C212 6584   4.769   3.733   9.188  0.0163 -0.1515  0.2179
   74SLPC  H12R 6585   4.729   3.819   9.245 -0.4146 -1.0425  1.3002
   74SLPC  C213 6586   4.800   3.751   9.057 -0.4649  0.4619  0.6241
   74SLPC  H13R 6587   4.773   3.847   9.009 -0.7547  0.4906  0.8369
   74SLPC  C214 6588   4.837   3.644   8.960 -0.7598 -0.3015 -0.3889
   74SLPC  H14R 6589   4.792   3.544   8.977  0.0691 -0.5261  0.6111
   74SLPC  H14S 6590   4.942   3.615   8.984 -1.4323 -2.7913 -0.2592
   74SLPC  C215 6591   4.822   3.668   8.811 -0.2571  0.1279  0.3393
   74SLPC  H15R 6592   4.856   3.770   8.782 -0.7051  0.9582  2.5566
   74SLPC  H15S 6593   4.716   3.653   8.781  0.3523 -1.1093 -1.3948
   74SLPC  C216 6594   4.899   3.560   8.730  0.2473  0.3089  0.2936
   74SLPC  H16R 6595   4.903   3.465   8.787 -1.5192  0.4030  0.6354
   74SLPC  H16S 6596   5.006   3.584   8.711  0.2522  0.0777  0.0253
   74SLPC  C217 6597   4.847   3.521   8.591 -0.5088  0.0265  0.4517
   74SLPC  H17R 6598   4.747   3.473   8.605 -0.7803  0.0302 -1.3135
   74SLPC  H17S 6599   4.920   3.451   8.545 -1.1731  0.5401 -1.4790
   74SLPC  C218 6600   4.826   3.636   8.488 -0.1045 -0.1734 -0.3027
   74SLPC  H18R 6601   4.755   3.712   8.526 -2.1147 -0.5085 -3.0382
   74SLPC  H18S 6602   4.779   3.603   8.393 -1.0922  0.4138 -0.0318
   74SLPC  H18T 6603   4.924   3.684   8.464 -0.1524 -1.0468 -2.5396
   74SLPC   C33 6604   4.235   3.058  10.153 -0.3176  0.0027 -0.1224
   74SLPC   H3X 6605   4.204   3.165  10.154  2.4642  0.8978 -1.1226
   74SLPC   H3Y 6606   4.151   3.009  10.099 -0.9391  1.2379 -0.3192
   74SLPC   C34 6607   4.355   3.059  10.049 -0.3595 -0.2813  0.0081
   74SLPC   H4X 6608   4.387   2.953  10.041  0.8905  0.0039  0.8980
   74SLPC   H4Y 6609   4.446   3.112  10.084 -0.9868  0.8974 -0.1043
   74SLPC   C35 6610   4.318   3.122   9.915  0.2270 -0.0030 -0.8997
   74SLPC   H5X 6611   4.294   3.229   9.933  0.8816 -0.2449  1.8146
   74SLPC   H5Y 6612   4.222   3.073   9.884 -0.3035 -0.3863  1.2134
   74SLPC   C36 6613   4.433   3.118   9.806 -0.9917 -0.4361 -0.1005
   74SLPC   H6X 6614   4.483   3.020   9.796 -0.3857 -0.3010  1.2788
   74SLPC   H6Y 6615   4.507   3.195   9.839 -0.2389 -0.6401 -1.2475
   74SLPC   C37 6616   4.378   3.169   9.674  0.2244  0.0674 -0.4765
   74SLPC   H7X 6617   4.334   3.270   9.688  1.7311  0.6568  0.2053
   74SLPC   H7Y 6618   4.296   3.102   9.640  0.7780 -0.3427 -1.0289
   74SLPC   C38 6619   4.484   3.185   9.559 -0.3028  0.2722 -0.2461
   74SLPC   H8X 6620   4.524   3.084   9.534  0.3937  0.4709  0.0466
   74SLPC   H8Y 6621   4.572   3.244   9.593  1.4078 -2.2500  0.0604
   74SLPC   C39 6622   4.421   3.259   9.445 -0.2342  0.4097 -0.3553
   74SLPC   H9X 6623   4.488   3.338   9.403  4.2487 -1.9997  1.5195
   74SLPC   H9Y 6624   4.326   3.301   9.484  0.2312 -1.0936  2.7026
   74SLPC  C310 6625   4.379   3.157   9.336 -0.6504  0.1131 -0.4949
   74SLPC  H10X 6626   4.319   3.073   9.378 -1.0092  1.0137  0.8482
   74SLPC  H10Y 6627   4.473   3.120   9.291  0.4307  1.5431  0.5241
   74SLPC  C311 6628   4.296   3.214   9.219  0.0373 -0.0866 -0.3331
   74SLPC  H11X 6629   4.360   3.281   9.156  0.9713 -2.4949 -2.1192
   74SLPC  H11Y 6630   4.217   3.276   9.265  1.3260  0.8832  0.6759
   74SLPC  C312 6631   4.234   3.120   9.124  0.2301 -0.6192  0.9900
   74SLPC  H12X 6632   4.164   3.061   9.186 -0.5295  1.1491  1.8927
   74SLPC  H12Y 6633   4.311   3.053   9.079 -0.5477 -1.5255  0.9673
   74SLPC  C313 6634   4.139   3.180   9.007  0.8847  0.2162 -1.2229
   74SLPC  H13X 6635   4.066   3.252   9.051  1.4073  1.0682 -1.7233
   74SLPC  H13Y 6636   4.084   3.102   8.951  1.0487 -2.6598  2.2715
   74SLPC  C314 6637   4.222   3.259   8.906 -0.0493  0.3596 -0.3431
   74SLPC  H14X 6638   4.307   3.197   8.869  1.0978  2.0719 -0.6943
   74SLPC  H14Y 6639   4.262   3.345   8.963  1.6586 -1.7777  1.9073
   74SLPC  C315 6640   4.136   3.298   8.784  0.4665  1.6692 -0.7620
   74SLPC  H15X 6641   4.027   3.303   8.808  0.5207 -0.4168  0.1061
   74SLPC  H15Y 6642   4.146   3.217   8.709 -5.0377 -0.3217  0.2042
   74SLPC  C316 6643   4.174   3.440   8.729 -0.0276  0.4719 -0.1483
   74SLPC  H16X 6644   4.140   3.510   8.809  1.7930  0.6435  0.5176
   74SLPC  H16Y 6645   4.109   3.452   8.640 -0.7828  0.4510  0.3877
   74SLPC  C317 6646   4.318   3.454   8.693  0.0815  0.5666 -0.1513
   74SLPC  H17X 6647   4.375   3.398   8.770 -1.1561 -0.3117  0.1632
   74SLPC  H17Y 6648   4.335   3.563   8.682  0.7957  0.5584  0.7732
   74SLPC  C318 6649   4.366   3.403   8.555 -0.0421  0.4333 -0.0868
   74SLPC  H18X 6650   4.291   3.443   8.484  1.1567  2.6734 -0.1690
   74SLPC  H18Y 6651   4.363   3.292   8.560  1.3794  0.1864 -2.6626
   74SLPC  H18Z 6652   4.467   3.433   8.518  0.7302 -2.8224 -0.9960
   75SLPC     N 6653   2.672   5.911   6.593  0.1559  0.5867 -0.2317
   75SLPC   C13 6654   2.670   5.781   6.523  0.4962  0.0927  0.0989
   75SLPC  H13A 6655   2.651   5.786   6.417  1.8441 -2.5203 -0.3303
   75SLPC  H13B 6656   2.759   5.721   6.528  0.6505  0.2831 -0.3469
   75SLPC  H13C 6657   2.589   5.712   6.542  1.2954 -0.4318  1.7761
   75SLPC   C14 6658   2.788   5.987   6.537  0.4946  0.1699  0.3902
   75SLPC  H14A 6659   2.809   6.082   6.585  1.6121 -0.6025  1.5222
   75SLPC  H14B 6660   2.876   5.926   6.548 -0.7831 -1.6276  1.0528
   75SLPC  H14C 6661   2.775   6.001   6.431  0.0698  0.0518  0.4260
   75SLPC   C15 6662   2.705   5.879   6.741  0.3485 -0.0644  0.0848
   75SLPC  H15A 6663   2.612   5.835   6.776  0.2813 -0.0918 -0.1262
   75SLPC  H15B 6664   2.787   5.810   6.752  0.5144  0.1799  0.3819
   75SLPC  H15C 6665   2.707   5.972   6.796 -1.9483  0.2299 -0.2230
   75SLPC   C12 6666   2.538   5.980   6.583 -0.2364 -0.4816 -0.2452
   75SLPC  H12A 6667   2.531   6.023   6.485  0.1023 -1.3293 -0.6480
   75SLPC  H12B 6668   2.528   6.065   6.649  1.1430 -0.8880  0.5311
   75SLPC   C11 6669   2.414   5.886   6.603 -0.3921 -0.6939  0.5648
   75SLPC  H11A 6670   2.402   5.831   6.507  0.6472 -0.5772  0.3527
   75SLPC  H11B 6671   2.318   5.941   6.599  1.1360  2.0633 -2.1827
   75SLPC     P 6672   2.367   5.648   6.715 -0.0281  0.1572 -0.1622
   75SLPC   O13 6673   2.225   5.653   6.673  0.1148  0.3420  0.1172
   75SLPC   O14 6674   2.454   5.564   6.637 -0.4009  0.2743  0.1372
   75SLPC   O12 6675   2.426   5.799   6.715  0.2157  0.6502 -0.0976
   75SLPC   O11 6676   2.379   5.606   6.862 -0.1988 -0.0184 -0.0856
   75SLPC    C1 6677   2.315   5.689   6.963  0.6204 -0.6003 -0.1694
   75SLPC    HA 6678   2.389   5.767   6.991 -1.2120  1.6476 -1.3105
   75SLPC    HB 6679   2.222   5.734   6.923 -0.5983 -2.6474  0.1928
   75SLPC    C2 6680   2.273   5.603   7.083  0.3118 -0.2582 -0.2530
   75SLPC    HS 6681   2.213   5.666   7.153  1.2751  0.7231 -0.2841
   75SLPC   O21 6682   2.392   5.549   7.148  0.4870 -0.6956 -0.2334
   75SLPC   C21 6683   2.455   5.641   7.217  0.3356 -0.2325 -0.8536
   75SLPC   O22 6684   2.427   5.758   7.221 -0.2946 -0.3481 -0.2166
   75SLPC   C22 6685   2.566   5.576   7.292 -0.4388  0.3078  0.2995
   75SLPC   H2R 6686   2.623   5.513   7.220  0.1686 -2.4136  2.9596
   75SLPC   H2S 6687   2.635   5.652   7.333 -0.8408  1.4858 -1.0944
   75SLPC    C3 6688   2.177   5.482   7.037  0.0868  0.0604 -0.3757
   75SLPC    HX 6689   2.207   5.419   6.951 -1.3710  0.1670 -0.9925
   75SLPC    HY 6690   2.093   5.532   6.984 -0.2580 -0.7449 -0.5929
   75SLPC   O31 6691   2.124   5.405   7.143  0.1153  0.5348 -0.5676
   75SLPC   C31 6692   2.202   5.305   7.174 -0.1736  0.2691  0.1387
   75SLPC   O32 6693   2.294   5.260   7.108 -0.0141  0.0222 -0.4303
   75SLPC   C32 6694   2.129   5.228   7.294 -0.3093  0.3288 -0.3204
   75SLPC   H2X 6695   2.052   5.165   7.244  0.3014 -1.9783  1.4194
   75SLPC   H2Y 6696   2.089   5.309   7.358  0.0070 -0.8937  1.5228
   75SLPC   C23 6697   2.518   5.481   7.407  0.1966  0.2824  0.1059
   75SLPC   H3R 6698   2.596   5.402   7.407 -1.1878 -1.1283  0.1785
   75SLPC   H3S 6699   2.424   5.433   7.375  0.2361 -0.0223  0.4364
   75SLPC   C24 6700   2.514   5.544   7.547  0.2393 -0.6221  0.1245
   75SLPC   H4R 6701   2.443   5.629   7.554  0.5770 -0.1867 -1.3051
   75SLPC   H4S 6702   2.613   5.587   7.576 -0.5365 -0.6833  3.1589
   75SLPC   C25 6703   2.475   5.443   7.661  0.0041 -0.1108  0.2342
   75SLPC   H5R 6704   2.550   5.360   7.659 -0.2256 -0.3165 -1.8694
   75SLPC   H5S 6705   2.376   5.396   7.646  0.3063 -1.7035  2.5870
   75SLPC   C26 6706   2.472   5.502   7.808 -0.3670 -1.0482 -0.3971
   75SLPC   H6R 6707   2.368   5.539   7.815  0.2892  1.0747 -1.0593
   75SLPC   H6S 6708   2.541   5.587   7.828 -1.2501 -1.0542  3.2770
   75SLPC   C27 6709   2.503   5.397   7.919  0.6018 -0.5131  0.1794
   75SLPC   H7R 6710   2.525   5.470   8.000  0.9806 -1.2925  0.7851
   75SLPC   H7S 6711   2.603   5.353   7.897  2.2074  2.9439 -0.2337
   75SLPC   C28 6712   2.390   5.290   7.934 -0.6919 -0.4062 -0.5263
   75SLPC   H8R 6713   2.404   5.238   8.030 -3.7188  0.3852  0.4528
   75SLPC   H8S 6714   2.414   5.218   7.853  3.2986  0.7160 -0.5755
   75SLPC   C29 6715   2.245   5.321   7.932  0.4074 -0.6833 -0.5421
   75SLPC   H9R 6716   2.214   5.333   7.827  1.2809  2.4548 -0.5451
   75SLPC  C210 6717   2.160   5.355   8.031 -0.5756  0.3217  0.3425
   75SLPC  H10R 6718   2.059   5.392   8.009 -0.3140  0.6303 -0.3614
   75SLPC  C211 6719   2.204   5.363   8.174 -0.1586  0.0189 -0.0053
   75SLPC  H11R 6720   2.253   5.461   8.192 -1.9762  0.9625  0.0738
   75SLPC  H11S 6721   2.280   5.283   8.185  0.9240  1.0876  0.5647
   75SLPC  C212 6722   2.088   5.339   8.270 -0.3333 -0.0863 -0.0574
   75SLPC  H12R 6723   1.986   5.357   8.232 -1.0449 -2.3068  0.6808
   75SLPC  C213 6724   2.097   5.307   8.405 -0.5654 -0.0265  0.0468
   75SLPC  H13R 6725   2.008   5.266   8.454 -2.1046  2.1779 -0.7767
   75SLPC  C214 6726   2.231   5.273   8.476 -0.7041  0.2474  0.4728
   75SLPC  H14R 6727   2.327   5.301   8.428 -1.9953  0.9844 -1.7937
   75SLPC  H14S 6728   2.227   5.162   8.474 -0.1448  0.2320 -0.0279
   75SLPC  C215 6729   2.251   5.317   8.630  0.1696  0.2312 -0.0624
   75SLPC  H15R 6730   2.165   5.275   8.687 -0.8923  0.5707 -1.3650
   75SLPC  H15S 6731   2.250   5.428   8.638 -1.5924  0.2762 -0.6477
   75SLPC  C216 6732   2.380   5.284   8.709  0.2933  0.0889 -0.8854
   75SLPC  H16R 6733   2.459   5.352   8.672 -0.5945  1.0593 -1.0460
   75SLPC  H16S 6734   2.404   5.178   8.686 -0.5317 -0.4006  0.3836
   75SLPC  C217 6735   2.374   5.295   8.861  0.1972 -0.2383  0.7080
   75SLPC  H17R 6736   2.324   5.204   8.901  1.1952 -1.3962 -0.5830
   75SLPC  H17S 6737   2.315   5.387   8.878  0.9460  0.2235  0.8445
   75SLPC  C218 6738   2.510   5.319   8.927 -0.2572  0.0946  0.0634
   75SLPC  H18R 6739   2.495   5.315   9.037  1.3440 -1.0763  0.2754
   75SLPC  H18S 6740   2.564   5.407   8.885  0.9398 -0.9444 -0.6570
   75SLPC  H18T 6741   2.577   5.232   8.910  1.1100  0.9017  1.0626
   75SLPC   C33 6742   2.233   5.134   7.373  0.3144  0.1299  1.4004
   75SLPC   H3X 6743   2.273   5.056   7.304  2.0454  0.6810  1.7233
   75SLPC   H3Y 6744   2.323   5.196   7.395  0.6485 -0.2942  1.2659
   75SLPC   C34 6745   2.164   5.076   7.490  0.0692  0.3837  0.3755
   75SLPC   H4X 6746   2.067   5.046   7.446  0.7984 -0.3662 -0.7931
   75SLPC   H4Y 6747   2.146   5.154   7.567  1.6239  1.0156  0.1564
   75SLPC   C35 6748   2.235   4.960   7.558 -0.1860 -1.2079  0.4327
   75SLPC   H5X 6749   2.317   5.003   7.619  0.9960 -0.4060 -1.6193
   75SLPC   H5Y 6750   2.266   4.890   7.477  0.3844  0.2352 -0.6471
   75SLPC   C36 6751   2.138   4.894   7.657  0.0150  0.1180 -0.5863
   75SLPC   H6X 6752   2.186   4.804   7.700 -0.7518 -0.0745 -0.1063
   75SLPC   H6Y 6753   2.041   4.857   7.616 -0.5912  0.3400  0.6171
   75SLPC   C37 6754   2.111   4.987   7.774 -0.3925 -0.3533  0.6852
   75SLPC   H7X 6755   2.057   5.074   7.731 -0.2269 -0.8283 -0.5254
   75SLPC   H7Y 6756   2.206   5.025   7.817 -1.1080  1.1302  1.0169
   75SLPC   C38 6757   2.032   4.917   7.887  0.0749 -0.2483 -0.3240
   75SLPC   H8X 6758   2.042   4.807   7.893  2.0304 -0.2724 -2.4959
   75SLPC   H8Y 6759   1.923   4.925   7.869 -0.6003  1.0841  3.3720
   75SLPC   C39 6760   2.079   4.975   8.023  0.2223 -0.4276 -0.4300
   75SLPC   H9X 6761   2.026   5.069   8.050  0.5658 -1.0146  2.6545
   75SLPC   H9Y 6762   2.187   4.999   8.027  0.3441 -0.8958 -0.8327
   75SLPC  C310 6763   2.063   4.886   8.153  0.8252  0.0715  0.0079
   75SLPC  H10X 6764   2.118   4.790   8.144  1.6713  0.4999  0.5015
   75SLPC  H10Y 6765   1.954   4.864   8.160  0.5677  1.4656  0.7898
   75SLPC  C311 6766   2.098   4.972   8.276  0.3786  0.3773  0.6772
   75SLPC  H11X 6767   2.024   5.055   8.280  0.7869  0.8478 -0.7849
   75SLPC  H11Y 6768   2.198   5.019   8.269  0.8651 -0.4221  1.9707
   75SLPC  C312 6769   2.098   4.898   8.408 -0.1618 -0.8671  0.2129
   75SLPC  H12X 6770   2.109   4.976   8.486 -1.9465  0.4186 -0.7342
   75SLPC  H12Y 6771   2.189   4.834   8.416 -1.6660 -3.1039  0.1495
   75SLPC  C313 6772   1.974   4.806   8.423  0.5121  0.3218  0.1470
   75SLPC  H13X 6773   1.975   4.726   8.347  0.4790  1.2753 -0.8856
   75SLPC  H13Y 6774   1.894   4.876   8.391  1.8603  0.4231 -3.4690
   75SLPC  C314 6775   1.966   4.745   8.559 -0.0941  0.7658  0.0269
   75SLPC  H14X 6776   1.865   4.699   8.560 -0.2943  1.2048  0.4143
   75SLPC  H14Y 6777   1.989   4.821   8.637  0.2950 -0.1182  0.8007
   75SLPC  C315 6778   2.075   4.640   8.578 -0.2472  0.5318  0.1508
   75SLPC  H15X 6779   2.177   4.681   8.566  0.7492 -1.9965 -0.8422
   75SLPC  H15Y 6780   2.069   4.564   8.497  2.8295  0.7056 -0.3455
   75SLPC  C316 6781   2.070   4.588   8.718  0.2984  0.4431 -0.3755
   75SLPC  H16X 6782   1.974   4.532   8.728 -0.3228  1.8307  2.4790
   75SLPC  H16Y 6783   2.075   4.676   8.785 -0.4527  0.3553 -0.1961
   75SLPC  C317 6784   2.159   4.465   8.746 -0.0950  0.1050 -0.0736
   75SLPC  H17X 6785   2.265   4.497   8.754 -0.6377  1.5932  1.8666
   75SLPC  H17Y 6786   2.154   4.390   8.664 -0.2336 -1.1960  1.0877
   75SLPC  C318 6787   2.121   4.402   8.878  0.3300 -0.0967  0.6575
   75SLPC  H18X 6788   2.204   4.346   8.926  0.4962 -0.1640  0.2957
   75SLPC  H18Y 6789   2.033   4.336   8.864 -1.0236  1.5332  1.0899
   75SLPC  H18Z 6790   2.083   4.483   8.944 -1.3940 -0.2614 -0.0774
   76SLPC     N 6791   3.634   3.089   6.167  0.3617 -0.0368  0.2778
   76SLPC   C13 6792   3.518   3.044   6.247  1.1876  0.0707 -0.2891
   76SLPC  H13A 6793   3.442   3.119   6.230 -0.5117 -0.8980  2.2469
   76SLPC  H13B 6794   3.482   2.953   6.201 -0.4316 -0.4407  1.8192
   76SLPC  H13C 6795   3.532   3.039   6.354  1.4802 -2.4469 -0.3959
   76SLPC   C14 6796   3.590   3.148   6.038 -0.3745  0.8341  0.4572
   76SLPC  H14A 6797   3.529   3.236   6.059 -0.3189  1.3964 -1.5399
   76SLPC  H14B 6798   3.675   3.176   5.978  1.5823 -2.8347  1.2556
   76SLPC  H14C 6799   3.541   3.073   5.977  2.6573  0.4644 -1.7246
   76SLPC   C15 6800   3.737   2.978   6.150  0.3614 -0.2501  0.2233
   76SLPC  H15A 6801   3.788   2.959   6.243  2.3402  0.1955 -0.7157
   76SLPC  H15B 6802   3.684   2.890   6.117 -1.2444  0.3944  0.9979
   76SLPC  H15C 6803   3.810   3.007   6.076 -1.0193  3.1660  0.0483
   76SLPC   C12 6804   3.704   3.203   6.249  0.3199  0.4736  0.0134
   76SLPC  H12A 6805   3.625   3.276   6.263 -0.2389 -0.1527  0.1965
   76SLPC  H12B 6806   3.781   3.247   6.188  1.3480  1.4870  1.9503
   76SLPC   C11 6807   3.780   3.176   6.381  0.2434 -0.2583 -0.4315
   76SLPC  H11A 6808   3.721   3.103   6.439  0.0978 -0.0119 -0.2708
   76SLPC  H11B 6809   3.783   3.279   6.422 -0.7155 -0.0845 -0.7833
   76SLPC     P 6810   4.029   3.202   6.293 -0.3759 -0.1288  0.2903
   76SLPC   O13 6811   4.158   3.127   6.322 -0.2823 -0.0675  0.6884
   76SLPC   O14 6812   4.005   3.229   6.149  0.2970 -0.3154 -0.3535
   76SLPC   O12 6813   3.907   3.120   6.350  0.2235 -0.0855 -0.2828
   76SLPC   O11 6814   4.025   3.331   6.375  0.2329 -0.3843  0.4267
   76SLPC    C1 6815   4.100   3.450   6.330  0.2395 -0.2977 -0.7963
   76SLPC    HA 6816   4.111   3.453   6.219  0.0124 -2.2969 -0.8984
   76SLPC    HB 6817   4.046   3.537   6.372 -1.4126 -1.5228 -0.2859
   76SLPC    C2 6818   4.251   3.448   6.384  0.4027 -0.0643 -0.4928
   76SLPC    HS 6819   4.303   3.381   6.312 -0.4569  0.9798 -2.1551
   76SLPC   O21 6820   4.257   3.413   6.525  0.1826 -0.2633 -0.1326
   76SLPC   C21 6821   4.371   3.379   6.578 -0.1009 -0.2468  0.2708
   76SLPC   O22 6822   4.477   3.363   6.518 -0.0631  0.2620 -0.2821
   76SLPC   C22 6823   4.347   3.348   6.727 -0.1059 -0.2254  0.3473
   76SLPC   H2R 6824   4.261   3.406   6.767  0.9286  1.2504  0.4951
   76SLPC   H2S 6825   4.316   3.241   6.724 -0.1874 -0.1899 -1.9462
   76SLPC    C3 6826   4.312   3.587   6.365  0.2164  0.1334 -0.4011
   76SLPC    HX 6827   4.309   3.619   6.258  0.5735 -0.9768 -0.7654
   76SLPC    HY 6828   4.414   3.598   6.407 -0.7547  1.2588  1.8022
   76SLPC   O31 6829   4.231   3.682   6.438  0.0681  0.1812  0.3887
   76SLPC   C31 6830   4.271   3.730   6.561  0.2884 -0.0292  0.6868
   76SLPC   O32 6831   4.369   3.695   6.618 -0.5443  0.6754 -0.1468
   76SLPC   C32 6832   4.180   3.835   6.608 -0.3286 -0.1213  0.2619
   76SLPC   H2X 6833   4.122   3.861   6.517  0.0610 -0.0863  0.0256
   76SLPC   H2Y 6834   4.243   3.915   6.653  2.9287 -2.0327 -0.6222
   76SLPC   C23 6835   4.462   3.390   6.823 -0.9074  0.3581  0.7983
   76SLPC   H3R 6836   4.486   3.498   6.811  1.3481 -0.1718  0.1022
   76SLPC   H3S 6837   4.551   3.337   6.784 -2.3408 -0.5388 -1.4458
   76SLPC   C24 6838   4.427   3.365   6.967 -0.0763  0.1518  0.4457
   76SLPC   H4R 6839   4.461   3.262   6.989  0.5982  0.2079 -0.2739
   76SLPC   H4S 6840   4.316   3.358   6.972 -0.0373 -3.2249 -0.7756
   76SLPC   C25 6841   4.475   3.481   7.058  0.1833  0.0374 -0.0195
   76SLPC   H5R 6842   4.469   3.583   7.014  0.1738  1.0969  2.3017
   76SLPC   H5S 6843   4.583   3.467   7.081  0.6018 -0.0106 -1.8888
   76SLPC   C26 6844   4.396   3.499   7.191 -0.5818  0.1414 -0.8079
   76SLPC   H6R 6845   4.385   3.398   7.238  0.9165 -0.2449 -1.2435
   76SLPC   H6S 6846   4.294   3.533   7.160 -0.0237  2.9125  0.1474
   76SLPC   C27 6847   4.462   3.589   7.296  0.8005 -0.0388  0.5020
   76SLPC   H7R 6848   4.424   3.692   7.277 -0.0368 -0.4224  0.0666
   76SLPC   H7S 6849   4.573   3.588   7.283  0.7675  3.4084 -1.3259
   76SLPC   C28 6850   4.432   3.561   7.446  0.5429 -0.1118  0.3750
   76SLPC   H8R 6851   4.482   3.643   7.501 -1.4148  0.2827  1.6772
   76SLPC   H8S 6852   4.323   3.572   7.466  0.9964  2.0799  2.0626
   76SLPC   C29 6853   4.468   3.427   7.506 -0.0963 -0.1510 -0.3622
   76SLPC   H9R 6854   4.455   3.343   7.437  0.5169  0.0969 -0.7941
   76SLPC  C210 6855   4.498   3.386   7.634  0.0974  0.3931  0.0627
   76SLPC  H10R 6856   4.516   3.279   7.649  1.5634  0.7501  0.9707
   76SLPC  C211 6857   4.497   3.477   7.755  0.2017  0.0645 -0.3632
   76SLPC  H11R 6858   4.479   3.580   7.721 -1.3130 -0.1514 -0.2675
   76SLPC  H11S 6859   4.600   3.477   7.798  0.2440 -1.0729 -0.4114
   76SLPC  C212 6860   4.382   3.446   7.850  0.4004  0.8220 -0.0845
   76SLPC  H12R 6861   4.285   3.483   7.815  0.2262  0.3491 -0.1043
   76SLPC  C213 6862   4.389   3.380   7.970  0.4033  0.1606 -0.4246
   76SLPC  H13R 6863   4.299   3.355   8.028  0.1520 -4.1055 -2.2571
   76SLPC  C214 6864   4.515   3.334   8.041  0.0161 -0.3377  0.7227
   76SLPC  H14R 6865   4.608   3.380   8.001  0.9865 -0.0374  3.1620
   76SLPC  H14S 6866   4.525   3.223   8.049 -1.2530 -0.3547  2.8213
   76SLPC  C215 6867   4.525   3.383   8.188 -0.7886 -0.8071 -0.3174
   76SLPC  H15R 6868   4.439   3.355   8.253 -0.6486 -0.9052 -0.1744
   76SLPC  H15S 6869   4.533   3.494   8.188  1.7899 -0.9149  0.4419
   76SLPC  C216 6870   4.652   3.329   8.256 -0.4133  0.7179  0.0823
   76SLPC  H16R 6871   4.682   3.386   8.347 -0.3132  1.6183 -0.5065
   76SLPC  H16S 6872   4.733   3.343   8.183  1.0780  2.3898  1.9472
   76SLPC  C217 6873   4.637   3.177   8.299  0.3919  0.5293 -0.1349
   76SLPC  H17R 6874   4.636   3.111   8.209 -0.3580 -0.6579  0.7095
   76SLPC  H17S 6875   4.533   3.169   8.338  0.0144 -1.2496 -1.3707
   76SLPC  C218 6876   4.733   3.136   8.405 -0.3185 -0.3731  0.5381
   76SLPC  H18R 6877   4.732   3.202   8.495  0.6936  1.0598 -0.4623
   76SLPC  H18S 6878   4.836   3.128   8.364  0.9464 -1.2525  3.6241
   76SLPC  H18T 6879   4.701   3.037   8.444 -2.0288 -0.3130 -0.5998
   76SLPC   C33 6880   4.094   3.802   6.728  0.3495  0.0224 -0.2848
   76SLPC   H3X 6881   4.027   3.716   6.706 -1.6875  0.9938  1.7563
   76SLPC   H3Y 6882   4.018   3.882   6.737 -0.8407 -0.7710 -2.4380
   76SLPC   C34 6883   4.178   3.794   6.859 -0.3889 -0.2689  0.1044
   76SLPC   H4X 6884   4.254   3.876   6.864 -0.6636 -0.0448  0.7343
   76SLPC   H4Y 6885   4.235   3.699   6.862 -2.8521 -1.8196  0.5411
   76SLPC   C35 6886   4.093   3.799   6.986 -0.2807  0.5334 -0.5378
   76SLPC   H5X 6887   4.039   3.701   6.986  0.2884  0.2173 -1.1603
   76SLPC   H5Y 6888   4.025   3.887   6.982 -0.3916  0.4444 -0.6482
   76SLPC   C36 6889   4.183   3.811   7.108 -0.5831 -0.1608  0.2872
   76SLPC   H6X 6890   4.214   3.917   7.121  1.8957 -0.6048 -1.4283
   76SLPC   H6Y 6891   4.280   3.758   7.102  0.1076  1.0759  0.2106
   76SLPC   C37 6892   4.108   3.777   7.240  0.0083 -0.4955 -0.3163
   76SLPC   H7X 6893   4.106   3.669   7.265  1.7386 -0.2175  1.2872
   76SLPC   H7Y 6894   4.002   3.806   7.228 -0.1820 -1.2676 -0.5492
   76SLPC   C38 6895   4.188   3.827   7.359  0.1639 -0.1991  0.2004
   76SLPC   H8X 6896   4.182   3.938   7.363 -1.1182 -0.1980 -0.9039
   76SLPC   H8Y 6897   4.291   3.787   7.345 -0.5887 -1.6484 -1.7575
   76SLPC   C39 6898   4.137   3.780   7.498 -0.1966 -0.7443  0.0790
   76SLPC   H9X 6899   4.118   3.670   7.496 -0.1871 -0.7805  1.1555
   76SLPC   H9Y 6900   4.036   3.821   7.515  0.5121  0.7489  0.9220
   76SLPC  C310 6901   4.223   3.837   7.618  0.4354  0.2514 -0.3913
   76SLPC  H10X 6902   4.254   3.942   7.604 -0.4389  0.3035 -2.3565
   76SLPC  H10Y 6903   4.309   3.767   7.623  0.7127  0.6453  0.5558
   76SLPC  C311 6904   4.147   3.813   7.754  0.4488 -0.5024  0.5384
   76SLPC  H11X 6905   4.099   3.714   7.769 -2.0897  0.8723  2.2012
   76SLPC  H11Y 6906   4.051   3.869   7.757  0.3305 -0.5891 -1.1612
   76SLPC  C312 6907   4.230   3.836   7.878 -0.2685 -0.4066  0.2130
   76SLPC  H12X 6908   4.275   3.937   7.861  0.5809 -1.1564 -2.5725
   76SLPC  H12Y 6909   4.323   3.776   7.890  1.1954  1.8973  1.2455
   76SLPC  C313 6910   4.151   3.841   8.009 -0.1857  0.6920 -0.7897
   76SLPC  H13X 6911   4.061   3.906   8.000 -0.2930  0.8805  1.3369
   76SLPC  H13Y 6912   4.218   3.887   8.084  0.0047 -1.6499  0.5605
   76SLPC  C314 6913   4.113   3.699   8.057 -0.3155 -0.1772 -0.1394
   76SLPC  H14X 6914   4.206   3.647   8.087 -0.6868  0.0734  1.5653
   76SLPC  H14Y 6915   4.069   3.640   7.974 -0.7673  0.0489 -0.0634
   76SLPC  C315 6916   4.021   3.708   8.176 -0.1069 -0.8806  0.2873
   76SLPC  H15X 6917   3.919   3.735   8.141 -1.4488 -1.8898  3.1426
   76SLPC  H15Y 6918   4.057   3.791   8.240 -3.5965  2.4456 -1.6238
   76SLPC  C316 6919   4.014   3.574   8.259  0.2935  0.0192 -0.8648
   76SLPC  H16X 6920   4.121   3.546   8.267  0.8404  2.1903  0.3307
   76SLPC  H16Y 6921   3.951   3.502   8.201 -0.5919  0.0166  0.0624
   76SLPC  C317 6922   3.957   3.604   8.400  0.3730  0.3555 -0.1919
   76SLPC  H17X 6923   3.912   3.706   8.398  1.9318  1.1000  0.7936
   76SLPC  H17Y 6924   4.037   3.607   8.477  2.2303  2.5541 -2.0404
   76SLPC  C318 6925   3.853   3.507   8.461  0.2824 -0.1679 -0.2124
   76SLPC  H18X 6926   3.777   3.481   8.385 -0.0567  3.1164 -1.1579
   76SLPC  H18Y 6927   3.801   3.557   8.546  1.6057  3.6094 -1.4279
   76SLPC  H18Z 6928   3.909   3.415   8.487  2.3411  1.0694 -0.0973
   77SLPC     N 6929   0.538   4.213   6.326 -0.0978  0.5240  0.2127
   77SLPC   C13 6930   0.518   4.359   6.301 -0.1548  0.1972 -0.4396
   77SLPC  H13A 6931   0.414   4.387   6.310 -0.4606 -0.2712 -2.1167
   77SLPC  H13B 6932   0.569   4.416   6.377 -0.6593 -1.8850  1.5553
   77SLPC  H13C 6933   0.553   4.389   6.203  0.0516  1.5126  0.0131
   77SLPC   C14 6934   0.685   4.184   6.301 -0.1731 -0.1625 -0.5899
   77SLPC  H14A 6935   0.710   4.219   6.202 -1.1505  2.5942  0.0378
   77SLPC  H14B 6936   0.757   4.224   6.371  0.7731 -0.1952 -1.5191
   77SLPC  H14C 6937   0.702   4.078   6.314  0.0541 -0.0398  0.1646
   77SLPC   C15 6938   0.453   4.137   6.232 -0.3550 -0.1085  0.1338
   77SLPC  H15A 6939   0.453   4.177   6.132 -0.4193 -0.1573  0.1144
   77SLPC  H15B 6940   0.483   4.033   6.228 -0.4960 -0.1689  0.5397
   77SLPC  H15C 6941   0.350   4.125   6.263 -0.6183  1.3656 -0.1220
   77SLPC   C12 6942   0.503   4.176   6.470  0.3897  0.0923  0.0887
   77SLPC  H12A 6943   0.558   4.248   6.529 -0.6443  0.6551  0.4015
   77SLPC  H12B 6944   0.535   4.074   6.487  0.3445  0.0400 -0.1407
   77SLPC   C11 6945   0.356   4.182   6.508  0.1327 -0.6460  0.1187
   77SLPC  H11A 6946   0.323   4.284   6.478 -0.3931 -1.2813 -1.5521
   77SLPC  H11B 6947   0.345   4.179   6.619  1.4863  0.1014  0.2971
   77SLPC     P 6948   0.304   3.928   6.503 -0.0272 -0.6442  0.0130
   77SLPC   O13 6949   0.258   3.842   6.393 -0.1097 -0.5808 -0.1871
   77SLPC   O14 6950   0.440   3.914   6.552 -0.2145 -0.1969  0.1917
   77SLPC   O12 6951   0.280   4.079   6.449 -0.2389  0.3219  0.5320
   77SLPC   O11 6952   0.208   3.918   6.617 -0.2663 -0.0827 -0.2061
   77SLPC    C1 6953   0.078   3.973   6.621  0.1214 -0.1281  0.0261
   77SLPC    HA 6954   0.069   4.060   6.689 -2.1071  0.1273 -0.5002
   77SLPC    HB 6955   0.044   4.005   6.520 -0.1519 -1.5382 -0.3537
   77SLPC    C2 6956  -0.015   3.866   6.674 -1.0265  0.5212 -0.6887
   77SLPC    HS 6957  -0.117   3.909   6.666 -0.8287  0.7428 -2.4811
   77SLPC   O21 6958   0.010   3.841   6.814 -0.2082  0.6590  0.1242
   77SLPC   C21 6959  -0.092   3.797   6.885 -0.5267 -0.2732 -0.2958
   77SLPC   O22 6960  -0.206   3.775   6.852 -0.2088 -0.7303 -0.0209
   77SLPC   C22 6961  -0.047   3.760   7.026 -0.3125 -0.3935 -0.3853
   77SLPC   H2R 6962   0.011   3.849   7.058  0.3849 -0.2240 -2.0527
   77SLPC   H2S 6963  -0.144   3.747   7.080 -1.2243  0.7292 -1.6998
   77SLPC    C3 6964  -0.009   3.732   6.596  1.0022 -0.3229  0.6878
   77SLPC    HX 6965   0.086   3.676   6.611 -0.1614 -1.8044  3.2418
   77SLPC    HY 6966  -0.003   3.772   6.493  0.8804  4.4667  2.2634
   77SLPC   O31 6967  -0.124   3.649   6.615  0.0818 -0.4368 -0.0168
   77SLPC   C31 6968  -0.105   3.516   6.624  0.2918 -0.2356 -0.0800
   77SLPC   O32 6969   0.006   3.462   6.629 -0.6639  0.1806 -0.1767
   77SLPC   C32 6970  -0.240   3.447   6.628 -0.0491 -0.1284 -0.3171
   77SLPC   H2X 6971  -0.234   3.357   6.563 -0.0308  1.1340 -2.1444
   77SLPC   H2Y 6972  -0.310   3.514   6.574  0.1162  0.7057  0.4908
   77SLPC   C23 6973   0.040   3.635   7.028 -0.1820 -0.0955  0.5588
   77SLPC   H3R 6974   0.136   3.662   6.979  0.4232 -0.4256  1.5196
   77SLPC   H3S 6975  -0.013   3.562   6.964  0.1675  1.2052 -1.2779
   77SLPC   C24 6976   0.055   3.565   7.163 -0.0334 -0.5067  0.6126
   77SLPC   H4R 6977   0.123   3.479   7.145  2.1864  1.5366 -1.6121
   77SLPC   H4S 6978  -0.048   3.540   7.195  0.5040 -3.1938  0.4917
   77SLPC   C25 6979   0.125   3.665   7.261  0.0819  0.4054 -0.5353
   77SLPC   H5R 6980   0.049   3.743   7.283  1.5032  2.7403 -3.1967
   77SLPC   H5S 6981   0.205   3.721   7.207  1.4860  0.5734  1.6030
   77SLPC   C26 6982   0.179   3.598   7.380  0.0043 -0.0813 -0.1378
   77SLPC   H6R 6983   0.287   3.571   7.381 -0.1750 -0.8764 -0.7124
   77SLPC   H6S 6984   0.126   3.501   7.391 -0.7483  0.3550  0.1596
   77SLPC   C27 6985   0.155   3.686   7.511  0.6667  0.6540 -0.0611
   77SLPC   H7R 6986   0.050   3.721   7.513  0.0916 -0.9647 -0.1579
   77SLPC   H7S 6987   0.203   3.786   7.503 -0.6870  1.1908 -2.6129
   77SLPC   C28 6988   0.196   3.604   7.631  0.0554 -0.5033  0.3284
   77SLPC   H8R 6989   0.304   3.584   7.620 -0.2117 -1.4518 -0.7525
   77SLPC   H8S 6990   0.146   3.505   7.620 -4.1498  1.1113  2.3744
   77SLPC   C29 6991   0.177   3.665   7.765 -0.3925 -0.4894 -0.4316
   77SLPC   H9R 6992   0.114   3.756   7.762 -0.8706 -0.8316 -0.7342
   77SLPC  C210 6993   0.191   3.606   7.886  0.0868 -0.0594 -0.2148
   77SLPC  H10R 6994   0.170   3.667   7.976 -0.4782  0.5044 -0.7183
   77SLPC  C211 6995   0.246   3.472   7.913 -0.1470 -0.4165 -0.4683
   77SLPC  H11R 6996   0.339   3.498   7.968 -1.4787  3.0431  0.3881
   77SLPC  H11S 6997   0.276   3.431   7.814  1.0868 -0.2863 -0.1659
   77SLPC  C212 6998   0.155   3.375   7.987 -0.8392 -0.4332 -0.7623
   77SLPC  H12R 6999   0.070   3.343   7.925 -2.0339  0.2999  0.4432
   77SLPC  C213 7000   0.173   3.333   8.114 -0.0188  0.1712  0.5935
   77SLPC  H13R 7001   0.091   3.275   8.160  0.9668 -0.2177  1.9206
   77SLPC  C214 7002   0.280   3.374   8.205  0.0513  0.2625 -0.3258
   77SLPC  H14R 7003   0.355   3.452   8.182  0.3557 -0.0139 -0.2833
   77SLPC  H14S 7004   0.345   3.287   8.226  0.3731  0.4916 -0.3749
   77SLPC  C215 7005   0.229   3.425   8.340 -0.0432 -0.9464 -0.1037
   77SLPC  H15R 7006   0.164   3.512   8.315  1.1885 -0.7756 -3.1645
   77SLPC  H15S 7007   0.304   3.461   8.413 -0.3164  1.0977 -0.7580
   77SLPC  C216 7008   0.143   3.313   8.411 -0.2087 -0.1943  1.1168
   77SLPC  H16R 7009   0.208   3.223   8.400 -0.6422 -0.3803 -0.1487
   77SLPC  H16S 7010   0.048   3.310   8.354  0.2288 -2.8682  0.3470
   77SLPC  C217 7011   0.097   3.351   8.545  0.1131  0.2602 -0.6969
   77SLPC  H17R 7012  -0.008   3.314   8.556  0.6934 -2.7283 -3.5894
   77SLPC  H17S 7013   0.101   3.460   8.562 -1.6433  0.4969 -1.6010
   77SLPC  C218 7014   0.182   3.292   8.660  0.3571 -0.4854 -0.4118
   77SLPC  H18R 7015   0.281   3.339   8.676 -0.0161  0.0588  0.3465
   77SLPC  H18S 7016   0.196   3.185   8.636 -0.4565 -0.4489 -1.0796
   77SLPC  H18T 7017   0.127   3.297   8.757  0.3613  2.4465 -0.4586
   77SLPC   C33 7018  -0.285   3.426   6.772  0.1890  0.8645 -0.1038
   77SLPC   H3X 7019  -0.384   3.374   6.765 -0.5543  2.0073  1.4174
   77SLPC   H3Y 7020  -0.310   3.524   6.818 -2.2816 -0.5317  1.7631
   77SLPC   C34 7021  -0.192   3.342   6.856  0.2747 -0.1203 -0.8596
   77SLPC   H4X 7022  -0.093   3.389   6.838  0.0321  0.8233  0.1603
   77SLPC   H4Y 7023  -0.178   3.235   6.827 -0.8564 -1.2369  2.2913
   77SLPC   C35 7024  -0.247   3.347   7.003 -0.7612  0.6493 -0.4548
   77SLPC   H5X 7025  -0.345   3.294   7.007 -0.6995  0.5560 -0.0785
   77SLPC   H5Y 7026  -0.273   3.444   7.051 -3.8825 -0.0008 -0.6300
   77SLPC   C36 7027  -0.158   3.272   7.106 -0.3138  0.7545 -0.0310
   77SLPC   H6X 7028  -0.055   3.310   7.094 -1.2676  3.7427  0.3764
   77SLPC   H6Y 7029  -0.165   3.161   7.098  2.3922  0.5717 -0.6288
   77SLPC   C37 7030  -0.207   3.282   7.251 -1.5241  0.2446 -0.7909
   77SLPC   H7X 7031  -0.316   3.262   7.240 -1.4440 -1.2936  0.6814
   77SLPC   H7Y 7032  -0.213   3.389   7.278  0.3657  0.3673 -0.7395
   77SLPC   C38 7033  -0.143   3.186   7.356 -0.8346  0.4903 -0.0436
   77SLPC   H8X 7034  -0.033   3.187   7.342 -0.9714  2.7736 -1.4753
   77SLPC   H8Y 7035  -0.187   3.086   7.337  0.6169 -0.6288  2.0698
   77SLPC   C39 7036  -0.188   3.239   7.489  0.4256  0.3159  0.3462
   77SLPC   H9X 7037  -0.299   3.233   7.496 -0.0332  2.1406 -3.2551
   77SLPC   H9Y 7038  -0.166   3.347   7.500 -2.0975  0.7991  1.4811
   77SLPC  C310 7039  -0.130   3.153   7.603 -0.3950  0.5591  0.5109
   77SLPC  H10X 7040  -0.021   3.136   7.595 -0.8608 -4.9186  1.6521
   77SLPC  H10Y 7041  -0.174   3.052   7.586 -0.4742  0.8738 -1.3581
   77SLPC  C311 7042  -0.163   3.205   7.747 -0.3226  0.3063 -0.6403
   77SLPC  H11X 7043  -0.270   3.228   7.768 -0.2156 -0.3539  0.8008
   77SLPC  H11Y 7044  -0.099   3.293   7.768  0.1033 -0.2429  0.4970
   77SLPC  C312 7045  -0.136   3.104   7.860  1.2079 -0.2741  0.2150
   77SLPC  H12X 7046  -0.030   3.071   7.857  1.9236  1.8221  0.7426
   77SLPC  H12Y 7047  -0.191   3.009   7.840 -1.4801  1.6849 -2.9471
   77SLPC  C313 7048  -0.179   3.169   8.000  0.4791  0.3856  0.0433
   77SLPC  H13X 7049  -0.290   3.178   8.000  0.1869 -2.4189 -0.1754
   77SLPC  H13Y 7050  -0.133   3.271   8.001  0.8419  0.2566 -1.2922
   77SLPC  C314 7051  -0.128   3.094   8.124 -0.7085 -0.2234  0.4273
   77SLPC  H14X 7052  -0.136   3.160   8.213  0.0270 -1.5465  1.5069
   77SLPC  H14Y 7053  -0.027   3.048   8.119 -0.9009 -0.4842 -1.8727
   77SLPC  C315 7054  -0.221   2.984   8.176  1.2357  0.7683 -0.2492
   77SLPC  H15X 7055  -0.224   2.895   8.109  1.2596 -0.9380  1.9198
   77SLPC  H15Y 7056  -0.322   3.028   8.162  0.6105 -1.2083 -2.7289
   77SLPC  C316 7057  -0.201   2.931   8.320 -0.9302 -1.2878  0.0206
   77SLPC  H16X 7058  -0.102   2.883   8.334 -0.5163  0.1378  2.6119
   77SLPC  H16Y 7059  -0.276   2.854   8.349 -0.5526 -1.4086  0.6960
   77SLPC  C317 7060  -0.210   3.042   8.427  0.3633  0.2830  0.4217
   77SLPC  H17X 7061  -0.132   3.121   8.425 -0.0295  0.6655 -1.8207
   77SLPC  H17Y 7062  -0.194   2.994   8.526 -1.7099 -0.6272  0.3687
   77SLPC  C318 7063  -0.348   3.104   8.438  0.4379  0.3159  0.3303
   77SLPC  H18X 7064  -0.432   3.031   8.444 -0.0083  0.4126 -2.8747
   77SLPC  H18Y 7065  -0.376   3.159   8.345  1.5311  1.0054  0.3981
   77SLPC  H18Z 7066  -0.360   3.169   8.527  1.2177 -1.2848  1.6585
   78SLPC     N 7067   2.886   4.338   6.194  0.3475 -0.3548 -0.2445
   78SLPC   C13 7068   3.026   4.385   6.149 -0.2605 -0.8067  0.0110
   78SLPC  H13A 7069   3.022   4.457   6.069  0.1127  0.3812  1.0416
   78SLPC  H13B 7070   3.077   4.421   6.237 -1.6437 -2.5618  1.6394
   78SLPC  H13C 7071   3.088   4.299   6.129  2.5101  1.4561 -1.7839
   78SLPC   C14 7072   2.820   4.452   6.261  0.5671 -0.3226 -0.4410
   78SLPC  H14A 7073   2.864   4.476   6.357  1.5206 -1.6388 -0.5124
   78SLPC  H14B 7074   2.820   4.545   6.207 -1.7978  0.6232  1.0100
   78SLPC  H14C 7075   2.715   4.431   6.274  0.2947  1.7638  1.2309
   78SLPC   C15 7076   2.902   4.227   6.295 -0.1930  0.1332 -0.7306
   78SLPC  H15A 7077   2.812   4.233   6.354  2.2096  0.7191  3.2172
   78SLPC  H15B 7078   2.918   4.127   6.257  0.8420 -0.7954  1.9522
   78SLPC  H15C 7079   2.977   4.253   6.368  1.0415 -1.8048 -1.2374
   78SLPC   C12 7080   2.803   4.297   6.073 -0.2814  0.4630 -0.1150
   78SLPC  H12A 7081   2.840   4.203   6.036  0.0922  1.3812 -2.2722
   78SLPC  H12B 7082   2.806   4.364   5.988 -0.5749 -2.0981 -2.2407
   78SLPC   C11 7083   2.650   4.267   6.103  0.1563  0.5435  0.2279
   78SLPC  H11A 7084   2.604   4.228   6.010 -0.2546 -0.6093  0.8997
   78SLPC  H11B 7085   2.602   4.366   6.116  0.0045  0.4113  0.6643
   78SLPC     P 7086   2.500   4.162   6.284  0.1925  0.0609  0.2313
   78SLPC   O13 7087   2.419   4.287   6.265 -0.3089  0.5443  0.2797
   78SLPC   O14 7088   2.439   4.034   6.222 -0.0064 -0.4690  0.1692
   78SLPC   O12 7089   2.638   4.182   6.217 -0.5073  0.1519 -0.5325
   78SLPC   O11 7090   2.537   4.141   6.440 -0.1698 -0.2764  0.2456
   78SLPC    C1 7091   2.561   4.256   6.525  0.6721 -0.4679 -0.2432
   78SLPC    HA 7092   2.667   4.249   6.558  1.9099  1.2656 -3.3918
   78SLPC    HB 7093   2.543   4.354   6.476 -1.0582 -1.5272 -1.8645
   78SLPC    C2 7094   2.468   4.245   6.647 -1.3373 -0.5861 -0.8397
   78SLPC    HS 7095   2.487   4.332   6.713  1.1941 -2.0185  0.4637
   78SLPC   O21 7096   2.502   4.127   6.713  0.1381  0.0564 -0.1571
   78SLPC   C21 7097   2.604   4.137   6.804 -0.0652  0.1806  0.1666
   78SLPC   O22 7098   2.663   4.238   6.835  0.1810  0.4853  0.2735
   78SLPC   C22 7099   2.632   4.001   6.875 -0.0557  0.6916 -1.1390
   78SLPC   H2R 7100   2.552   3.984   6.951 -1.8432 -0.6682 -3.1837
   78SLPC   H2S 7101   2.618   3.912   6.809  0.8995 -0.9245  0.7195
   78SLPC    C3 7102   2.319   4.241   6.606  0.6442  0.6983 -0.3977
   78SLPC    HX 7103   2.306   4.150   6.543  2.3826 -2.1719  2.9980
   78SLPC    HY 7104   2.291   4.335   6.553  0.2542  1.4653  1.1064
   78SLPC   O31 7105   2.236   4.218   6.717 -0.1050 -0.3380  0.1370
   78SLPC   C31 7106   2.220   4.319   6.800 -0.3245 -0.1279 -0.5279
   78SLPC   O32 7107   2.264   4.432   6.783  0.2139 -0.2633 -0.1328
   78SLPC   C32 7108   2.119   4.279   6.913  0.1669 -0.4651 -0.0641
   78SLPC   H2X 7109   2.072   4.181   6.893  0.8887 -0.9693  0.6592
   78SLPC   H2Y 7110   2.044   4.361   6.921 -1.8275 -2.3926  3.1985
   78SLPC   C23 7111   2.769   3.992   6.938  0.9169 -0.2172  0.0548
   78SLPC   H3R 7112   2.783   4.057   7.026 -0.8535 -0.1645  0.3413
   78SLPC   H3S 7113   2.851   4.009   6.864  1.0018  2.2642  0.6364
   78SLPC   C24 7114   2.787   3.847   6.978  0.5388 -0.0927  0.1952
   78SLPC   H4R 7115   2.766   3.781   6.892 -1.1617  1.0539 -0.3164
   78SLPC   H4S 7116   2.717   3.832   7.064 -1.9178  1.3703 -1.4427
   78SLPC   C25 7117   2.928   3.813   7.037  0.2448  0.4734  0.6282
   78SLPC   H5R 7118   2.949   3.889   7.115 -3.7187  0.4547  1.9152
   78SLPC   H5S 7119   2.993   3.811   6.947 -1.4310 -0.9962 -0.6159
   78SLPC   C26 7120   2.919   3.662   7.085  0.1938 -0.1483  0.7644
   78SLPC   H6R 7121   2.861   3.608   7.008 -1.3886  2.3199  0.1000
   78SLPC   H6S 7122   2.862   3.656   7.180 -3.1694  0.4116 -1.0855
   78SLPC   C27 7123   3.055   3.595   7.111 -0.2995  0.5208  0.2657
   78SLPC   H7R 7124   3.083   3.559   7.010  0.8765  2.1940 -0.0365
   78SLPC   H7S 7125   3.039   3.514   7.185  1.2167 -1.0522 -1.0647
   78SLPC   C28 7126   3.162   3.694   7.174  0.3545  0.0990  0.2266
   78SLPC   H8R 7127   3.120   3.729   7.271 -3.9306 -0.9789 -1.0605
   78SLPC   H8S 7128   3.178   3.776   7.101  1.2902  0.2421  0.5693
   78SLPC   C29 7129   3.297   3.629   7.195 -0.4780  0.7252 -0.0066
   78SLPC   H9R 7130   3.341   3.586   7.103 -1.8841  1.2147 -0.9470
   78SLPC  C210 7131   3.358   3.602   7.316 -0.8073 -0.1193  0.9579
   78SLPC  H10R 7132   3.446   3.538   7.301 -0.7652  0.3250 -0.9947
   78SLPC  C211 7133   3.316   3.636   7.461  0.9934 -0.3609 -0.4249
   78SLPC  H11R 7134   3.267   3.735   7.461  1.2573 -0.2148 -1.7460
   78SLPC  H11S 7135   3.408   3.653   7.522 -1.0275  1.8657  2.2728
   78SLPC  C212 7136   3.219   3.539   7.526 -0.1076 -0.7901  0.5034
   78SLPC  H12R 7137   3.129   3.528   7.463  0.1511 -1.7076  0.2816
   78SLPC  C213 7138   3.226   3.483   7.652 -0.1477 -0.2847  0.4926
   78SLPC  H13R 7139   3.142   3.423   7.689  0.2955 -0.4974  1.1722
   78SLPC  C214 7140   3.340   3.489   7.752 -0.0545  0.3455 -0.2914
   78SLPC  H14R 7141   3.438   3.487   7.699  0.6259 -0.6931  0.9320
   78SLPC  H14S 7142   3.326   3.396   7.811  1.0245  0.6374  0.4520
   78SLPC  C215 7143   3.342   3.605   7.854  0.5136  0.4129  0.4688
   78SLPC  H15R 7144   3.357   3.702   7.801 -1.3525 -0.1524 -1.2318
   78SLPC  H15S 7145   3.422   3.599   7.930 -0.6016  1.4531  1.7710
   78SLPC  C216 7146   3.212   3.620   7.931  0.8598  0.1042 -0.5313
   78SLPC  H16R 7147   3.188   3.532   7.996  0.4959  0.5186 -0.1011
   78SLPC  H16S 7148   3.123   3.650   7.872 -2.0193 -2.6998  1.9244
   78SLPC  C217 7149   3.232   3.734   8.035 -0.3367  0.3211 -0.1791
   78SLPC  H17R 7150   3.249   3.832   7.984 -1.0158  1.3071  1.4085
   78SLPC  H17S 7151   3.329   3.721   8.088 -1.0106  1.0486  1.3068
   78SLPC  C218 7152   3.116   3.738   8.139  0.2699  0.0608 -0.3898
   78SLPC  H18R 7153   3.089   3.632   8.160  5.6623 -1.8457 -1.6251
   78SLPC  H18S 7154   3.035   3.796   8.090 -1.1136 -1.3350  0.1505
   78SLPC  H18T 7155   3.145   3.771   8.240 -0.3677  0.3281 -0.2865
   78SLPC   C33 7156   2.186   4.281   7.053  0.1331  0.4539  0.5739
   78SLPC   H3X 7157   2.105   4.272   7.128 -0.6097 -0.3304 -0.2961
   78SLPC   H3Y 7158   2.223   4.385   7.064 -1.4357  1.4717 -2.3819
   78SLPC   C34 7159   2.289   4.178   7.088  0.1126  0.5839 -0.4584
   78SLPC   H4X 7160   2.388   4.195   7.042 -0.2495 -0.3254 -1.6215
   78SLPC   H4Y 7161   2.255   4.077   7.056  1.5600  0.4900 -1.8293
   78SLPC   C35 7162   2.315   4.177   7.243  0.0809  0.4726 -0.2044
   78SLPC   H5X 7163   2.215   4.166   7.290 -0.7376  1.7495 -1.5568
   78SLPC   H5Y 7164   2.369   4.265   7.284  1.5101 -0.8905  0.9829
   78SLPC   C36 7165   2.411   4.065   7.291 -0.0694 -0.3618  0.1557
   78SLPC   H6X 7166   2.511   4.082   7.248  1.8840 -2.8043  3.2398
   78SLPC   H6Y 7167   2.383   3.962   7.259 -1.1873 -0.3879  1.1231
   78SLPC   C37 7168   2.430   4.061   7.443 -0.4601  1.1667  0.3273
   78SLPC   H7X 7169   2.334   4.055   7.498  0.8849  2.8907  3.0714
   78SLPC   H7Y 7170   2.479   4.156   7.473  1.2348 -0.0206  1.4895
   78SLPC   C38 7171   2.520   3.942   7.482  1.0614  0.0315 -0.6695
   78SLPC   H8X 7172   2.479   3.852   7.432 -2.7109 -0.1338  2.2033
   78SLPC   H8Y 7173   2.497   3.934   7.591 -0.4132  0.7376 -0.9053
   78SLPC   C39 7174   2.666   3.958   7.457 -0.2530  0.3484 -0.1222
   78SLPC   H9X 7175   2.715   4.054   7.482  2.0679 -0.8552  0.2512
   78SLPC   H9Y 7176   2.678   3.968   7.347 -0.0487 -0.4679 -0.1810
   78SLPC  C310 7177   2.750   3.848   7.516  0.3534  0.0355 -0.4609
   78SLPC  H10X 7178   2.758   3.854   7.627 -2.9517 -0.0607 -0.1131
   78SLPC  H10Y 7179   2.849   3.861   7.468  0.4582 -1.0141 -0.5404
   78SLPC  C311 7180   2.703   3.702   7.493  0.3175 -0.1848  0.4200
   78SLPC  H11X 7181   2.684   3.698   7.383 -0.3383  1.3045  0.4546
   78SLPC  H11Y 7182   2.609   3.695   7.552  0.9252 -0.1923  1.4014
   78SLPC  C312 7183   2.802   3.596   7.531 -0.8196  0.0889  0.5063
   78SLPC  H12X 7184   2.888   3.606   7.462 -1.2374  0.6368  0.0598
   78SLPC  H12Y 7185   2.753   3.497   7.513 -2.2395  0.4184  2.1914
   78SLPC  C313 7186   2.849   3.596   7.673  0.2195 -0.2661 -0.8785
   78SLPC  H13X 7187   2.788   3.665   7.736 -0.0444 -1.5411  0.3081
   78SLPC  H13Y 7188   2.958   3.620   7.674  0.2647 -0.4917 -0.0309
   78SLPC  C314 7189   2.845   3.462   7.743  1.2988  0.2287 -0.2121
   78SLPC  H14X 7190   2.892   3.384   7.680 -1.5644  0.6380 -3.1280
   78SLPC  H14Y 7191   2.737   3.436   7.751  1.8262 -2.4039 -0.8170
   78SLPC  C315 7192   2.894   3.458   7.888 -0.6828  0.3051  0.8343
   78SLPC  H15X 7193   2.863   3.544   7.950  1.1765  0.6002  1.4323
   78SLPC  H15Y 7194   3.004   3.479   7.885 -1.0236  2.3276  0.9372
   78SLPC  C316 7195   2.849   3.331   7.952 -0.0425 -0.2415 -0.0726
   78SLPC  H16X 7196   2.894   3.250   7.890  3.1941  2.4873 -1.6258
   78SLPC  H16Y 7197   2.739   3.334   7.957  0.0056  2.7132  1.5234
   78SLPC  C317 7198   2.893   3.317   8.100  0.2471 -0.5941 -0.1080
   78SLPC  H17X 7199   2.864   3.410   8.154 -3.3088 -2.3231  1.2061
   78SLPC  H17Y 7200   3.004   3.309   8.098  0.3444 -0.0611  1.3744
   78SLPC  C318 7201   2.834   3.187   8.167 -0.0748 -0.1663  0.5721
   78SLPC  H18X 7202   2.727   3.186   8.137 -0.0176 -0.6902  0.3835
   78SLPC  H18Y 7203   2.844   3.186   8.278  1.9896  0.2560  0.4230
   78SLPC  H18Z 7204   2.898   3.103   8.131  0.1042  0.5482 -0.8302
   79SLPC     N 7205   0.164   0.188   6.139  0.0500 -0.3490 -1.2910
   79SLPC   C13 7206   0.273   0.290   6.160  0.2260  0.9828  0.0693
   79SLPC  H13A 7207   0.299   0.294   6.265  0.0749  0.6722  0.1183
   79SLPC  H13B 7208   0.358   0.270   6.097 -0.7927 -1.0115 -0.7663
   79SLPC  H13C 7209   0.241   0.391   6.137  2.9124  1.9301  0.0757
   79SLPC   C14 7210   0.208   0.061   6.203  0.2434 -0.0250  0.2061
   79SLPC  H14A 7211   0.141  -0.019   6.177  3.5431 -1.9905 -3.1930
   79SLPC  H14B 7212   0.305   0.034   6.164  0.5850  1.0345  0.2584
   79SLPC  H14C 7213   0.206   0.060   6.311  0.4780  1.6118  0.2583
   79SLPC   C15 7214   0.161   0.171   5.995 -0.9041 -0.0759 -0.0701
   79SLPC  H15A 7215   0.262   0.149   5.965 -0.7540 -0.8634  0.9442
   79SLPC  H15B 7216   0.116   0.078   5.962 -0.1319 -0.1557 -0.9250
   79SLPC  H15C 7217   0.116   0.263   5.962  0.8514  0.6291 -0.6075
   79SLPC   C12 7218   0.039   0.244   6.198  0.2452 -0.3852  0.4306
   79SLPC  H12A 7219  -0.044   0.184   6.163 -1.2296  1.0153  1.3377
   79SLPC  H12B 7220   0.019   0.342   6.156 -1.7181 -1.0847 -0.4203
   79SLPC   C11 7221   0.028   0.249   6.356 -0.5284  0.4571  0.0195
   79SLPC  H11A 7222   0.044   0.146   6.396  1.9284  0.9226  0.3864
   79SLPC  H11B 7223  -0.077   0.281   6.376 -0.2304  1.4727 -0.0396
   79SLPC     P 7224   0.103   0.492   6.418 -0.2301 -0.4065 -0.0296
   79SLPC   O13 7225   0.229   0.555   6.470 -0.2416 -0.1885  0.1418
   79SLPC   O14 7226   0.054   0.541   6.288  1.0704  0.2889 -0.0170
   79SLPC   O12 7227   0.132   0.331   6.408  0.1962  0.0185  0.0746
   79SLPC   O11 7228  -0.020   0.500   6.518 -0.4410  0.9156 -0.1978
   79SLPC    C1 7229   0.005   0.475   6.659  0.3306  0.0425  0.4267
   79SLPC    HA 7230  -0.089   0.446   6.711  1.3115 -0.5708  1.9023
   79SLPC    HB 7231   0.078   0.393   6.669  1.2403  0.5855 -1.3882
   79SLPC    C2 7232   0.070   0.598   6.737  0.5279 -0.4613 -0.1817
   79SLPC    HS 7233   0.178   0.614   6.719  0.7872  1.7905  2.5864
   79SLPC   O21 7234   0.055   0.580   6.879  0.4849 -0.4267  0.7057
   79SLPC   C21 7235   0.161   0.524   6.938  0.3775  0.2181 -0.0524
   79SLPC   O22 7236   0.267   0.487   6.889  0.2652 -0.8275  0.2051
   79SLPC   C22 7237   0.117   0.512   7.082 -0.2913 -0.3375  0.2954
   79SLPC   H2R 7238   0.059   0.602   7.113  0.6179  0.8717 -1.3718
   79SLPC   H2S 7239   0.042   0.430   7.091 -0.8899  0.1987  0.2692
   79SLPC    C3 7240  -0.013   0.727   6.696 -0.5080  1.1655 -0.1568
   79SLPC    HX 7241  -0.120   0.701   6.711 -0.2650  0.6617  0.7791
   79SLPC    HY 7242  -0.005   0.742   6.586 -2.4443 -1.9069 -0.8508
   79SLPC   O31 7243   0.028   0.839   6.777  0.1628  0.2269  0.2670
   79SLPC   C31 7244   0.112   0.922   6.715  0.3613 -0.5932  0.5586
   79SLPC   O32 7245   0.169   0.904   6.608  0.0667 -0.0157  0.0113
   79SLPC   C32 7246   0.111   1.053   6.793 -0.1070  0.2433  0.0521
   79SLPC   H2X 7247   0.007   1.089   6.812  0.1773 -0.1977  2.8001
   79SLPC   H2Y 7248   0.144   1.126   6.716  0.1301  0.4196  0.3215
   79SLPC   C23 7249   0.248   0.486   7.158 -0.3101  0.0299 -0.0110
   79SLPC   H3R 7250   0.316   0.572   7.140  0.8999 -1.1607 -1.3363
   79SLPC   H3S 7251   0.300   0.393   7.126 -0.4026  0.0365 -0.1811
   79SLPC   C24 7252   0.214   0.477   7.307  0.0841  1.0943 -0.0691
   79SLPC   H4R 7253   0.117   0.424   7.319 -0.2918  1.9128  0.5545
   79SLPC   H4S 7254   0.186   0.579   7.340  0.6211  1.0140  0.6529
   79SLPC   C25 7255   0.327   0.425   7.393 -0.4864 -0.2083 -1.0186
   79SLPC   H5R 7256   0.430   0.458   7.368 -0.1313 -1.0281 -0.6592
   79SLPC   H5S 7257   0.329   0.316   7.375  0.3091  0.0458 -2.6781
   79SLPC   C26 7258   0.297   0.446   7.546  0.2287  0.1468 -0.5378
   79SLPC   H6R 7259   0.188   0.432   7.563  0.4894 -0.5643  0.7164
   79SLPC   H6S 7260   0.316   0.552   7.575  0.3094  1.0024 -3.4496
   79SLPC   C27 7261   0.365   0.341   7.636  0.2658  1.1008 -0.4896
   79SLPC   H7R 7262   0.476   0.354   7.640  0.5334 -0.9173 -0.5725
   79SLPC   H7S 7263   0.342   0.244   7.589  2.5493  1.5781 -2.8251
   79SLPC   C28 7264   0.299   0.336   7.781  0.5371  0.5707 -0.2558
   79SLPC   H8R 7265   0.312   0.235   7.824 -2.0795  1.0464  1.9600
   79SLPC   H8S 7266   0.188   0.339   7.770  0.5956 -0.2923 -1.2001
   79SLPC   C29 7267   0.335   0.447   7.881 -0.3007  0.4944  0.3007
   79SLPC   H9R 7268   0.379   0.538   7.839 -1.4297  0.3817 -1.2305
   79SLPC  C210 7269   0.318   0.446   8.011  0.4698 -0.0031 -0.9511
   79SLPC  H10R 7270   0.344   0.534   8.071 -0.7800  0.2108 -0.6888
   79SLPC  C211 7271   0.260   0.337   8.100  0.3599  0.6317 -0.2670
   79SLPC  H11R 7272   0.244   0.252   8.031  1.5760  0.1033  0.0907
   79SLPC  H11S 7273   0.156   0.360   8.134  0.7763  2.0226  0.1189
   79SLPC  C212 7274   0.347   0.286   8.214 -0.0890  0.2764 -0.2576
   79SLPC  H12R 7275   0.382   0.183   8.197 -0.0495  0.3100 -0.3778
   79SLPC  C213 7276   0.364   0.347   8.335 -0.6208  1.0767 -0.3485
   79SLPC  H13R 7277   0.439   0.301   8.400  0.7914 -2.0859 -3.8430
   79SLPC  C214 7278   0.302   0.472   8.385  0.1851 -0.3845  0.7226
   79SLPC  H14R 7279   0.241   0.516   8.303 -0.9157 -0.0981  1.6683
   79SLPC  H14S 7280   0.380   0.545   8.416  1.4912 -2.8117  3.7050
   79SLPC  C215 7281   0.194   0.454   8.501  0.0942 -0.0359  0.2908
   79SLPC  H15R 7282   0.168   0.560   8.525  0.1625  0.4916 -1.7875
   79SLPC  H15S 7283   0.235   0.406   8.592  1.1582  1.7635  0.8213
   79SLPC  C216 7284   0.064   0.390   8.454 -0.0927  0.3969 -0.2417
   79SLPC  H16R 7285   0.079   0.299   8.393  0.7355 -0.5678  1.3155
   79SLPC  H16S 7286   0.024   0.458   8.377  2.4012  2.5484  0.2052
   79SLPC  C217 7287  -0.033   0.368   8.576  0.1438 -0.0759  0.3651
   79SLPC  H17R 7288   0.003   0.414   8.670 -0.7977  0.6490  0.3857
   79SLPC  H17S 7289  -0.044   0.259   8.594  0.9264 -0.3081 -0.4802
   79SLPC  C218 7290  -0.172   0.425   8.549  0.0272 -0.9017  0.0676
   79SLPC  H18R 7291  -0.167   0.532   8.521  0.0770 -0.4994  1.5141
   79SLPC  H18S 7292  -0.240   0.394   8.631 -0.2007 -2.7428 -0.7680
   79SLPC  H18T 7293  -0.207   0.371   8.458  2.3710 -0.3733 -1.2174
   79SLPC   C33 7294   0.208   1.057   6.915 -0.6532 -0.9465 -0.0082
   79SLPC   H3X 7295   0.206   1.159   6.957 -2.7767 -1.3292  0.8952
   79SLPC   H3Y 7296   0.313   1.036   6.884 -0.2013  2.7018 -1.4030
   79SLPC   C34 7297   0.152   0.969   7.027 -0.7842  0.0039  0.7270
   79SLPC   H4X 7298   0.239   0.968   7.096 -1.0379 -3.0149  1.1242
   79SLPC   H4Y 7299   0.143   0.862   6.999  1.0909 -0.1712  0.6703
   79SLPC   C35 7300   0.019   1.011   7.090 -0.4291  0.1578  0.0836
   79SLPC   H5X 7301  -0.054   0.999   7.007  0.4400  1.7863 -0.9721
   79SLPC   H5Y 7302   0.038   1.117   7.116 -2.2325  0.7542 -0.8559
   79SLPC   C36 7303  -0.022   0.932   7.218  0.7513 -0.4445  0.3680
   79SLPC   H6X 7304  -0.017   0.826   7.185 -1.4560 -0.5388  0.2123
   79SLPC   H6Y 7305  -0.123   0.965   7.252  1.8946  1.9886  1.6618
   79SLPC   C37 7306   0.079   0.975   7.322  0.2656  0.0111 -0.4418
   79SLPC   H7X 7307   0.064   1.080   7.355  3.0417 -0.2312  2.0075
   79SLPC   H7Y 7308   0.184   0.964   7.288  1.5661  1.0015  2.8474
   79SLPC   C38 7309   0.077   0.886   7.452 -0.8264  0.0405 -0.8500
   79SLPC   H8X 7310   0.090   0.780   7.422 -1.7893  0.5107 -3.1492
   79SLPC   H8Y 7311  -0.023   0.901   7.498 -2.0058 -2.0194 -2.5276
   79SLPC   C39 7312   0.184   0.927   7.556  0.9222 -0.0471 -0.7142
   79SLPC   H9X 7313   0.169   1.036   7.572 -2.4509 -0.5691  0.5310
   79SLPC   H9Y 7314   0.274   0.900   7.497 -0.3657 -1.4753 -2.1328
   79SLPC  C310 7315   0.179   0.836   7.681  0.5616 -0.1705 -0.3957
   79SLPC  H10X 7316   0.280   0.834   7.728  1.2550 -2.7738 -1.8094
   79SLPC  H10Y 7317   0.168   0.729   7.655 -0.9472  0.1878 -1.3242
   79SLPC  C311 7318   0.081   0.891   7.787  0.2606 -0.2456 -0.4823
   79SLPC  H11X 7319   0.058   0.805   7.854  0.8555 -1.9754 -2.3748
   79SLPC  H11Y 7320  -0.015   0.931   7.749  0.4395  1.1293  0.4322
   79SLPC  C312 7321   0.147   0.994   7.877  0.1942 -0.0978 -0.3538
   79SLPC  H12X 7322   0.192   1.081   7.825  0.5568 -1.4611 -2.4617
   79SLPC  H12Y 7323   0.230   0.945   7.932 -1.3323 -2.0858  0.3352
   79SLPC  C313 7324   0.051   1.055   7.973 -0.3180 -0.2866 -0.4046
   79SLPC  H13X 7325  -0.021   0.978   8.007  0.5260 -1.4102 -1.1182
   79SLPC  H13Y 7326  -0.011   1.127   7.915 -0.7646 -1.3236 -1.2460
   79SLPC  C314 7327   0.115   1.108   8.089 -0.4678  0.0598 -0.9743
   79SLPC  H14X 7328   0.207   1.164   8.062  0.1060  0.5024  1.6422
   79SLPC  H14Y 7329   0.153   1.027   8.155  1.7300  0.8944 -1.1331
   79SLPC  C315 7330   0.012   1.198   8.165 -0.4527 -0.1583  0.0709
   79SLPC  H15X 7331  -0.081   1.137   8.167  0.8030 -2.1124  2.2917
   79SLPC  H15Y 7332  -0.009   1.291   8.108  0.0180 -2.4541 -4.2504
   79SLPC  C316 7333   0.046   1.226   8.321  0.0355 -0.0526  0.4882
   79SLPC  H16X 7334   0.096   1.136   8.363  0.8667 -1.0644 -2.4709
   79SLPC  H16Y 7335  -0.051   1.249   8.369  0.1142 -0.3263  0.7894
   79SLPC  C317 7336   0.126   1.354   8.335 -0.2726  0.2199  0.1139
   79SLPC  H17X 7337   0.067   1.436   8.289  0.5312  1.2197  0.8298
   79SLPC  H17Y 7338   0.222   1.350   8.280 -0.0841  0.9111  0.3856
   79SLPC  C318 7339   0.141   1.404   8.478 -0.4674  0.1951 -0.0009
   79SLPC  H18X 7340   0.150   1.318   8.548 -1.6831 -1.4155 -1.7091
   79SLPC  H18Y 7341   0.047   1.447   8.517 -1.4784 -2.2500  0.4542
   79SLPC  H18Z 7342   0.234   1.464   8.491  0.4553 -1.4955  1.8070
   80SLPC     N 7343   0.887   3.446   6.344  0.4561  0.1892 -0.1403
   80SLPC   C13 7344   0.767   3.435   6.435  0.5314 -0.4046 -0.1120
   80SLPC  H13A 7345   0.678   3.405   6.382 -1.1188  0.7405  1.8269
   80SLPC  H13B 7346   0.774   3.379   6.527 -3.5613 -1.4058 -0.2203
   80SLPC  H13C 7347   0.746   3.535   6.473  1.0471 -0.0115 -0.8504
   80SLPC   C14 7348   0.861   3.548   6.246 -1.0591 -0.0700 -0.2870
   80SLPC  H14A 7349   0.815   3.634   6.293  3.2979  2.9370 -0.9025
   80SLPC  H14B 7350   0.953   3.582   6.201 -0.6898 -2.3055 -1.4060
   80SLPC  H14C 7351   0.795   3.519   6.165  0.4383  0.4481 -1.7569
   80SLPC   C15 7352   0.921   3.317   6.279  0.2485  0.2507 -0.2755
   80SLPC  H15A 7353   0.841   3.279   6.218  2.4116 -0.7461 -2.7129
   80SLPC  H15B 7354   1.012   3.320   6.220 -0.6134 -1.2660 -1.7563
   80SLPC  H15C 7355   0.937   3.243   6.357  0.9504 -0.1075 -0.7460
   80SLPC   C12 7356   0.991   3.489   6.436  0.1028  0.4342 -0.1793
   80SLPC  H12A 7357   0.987   3.434   6.529  4.3025  1.3876  0.7635
   80SLPC  H12B 7358   0.974   3.588   6.475  1.2693  1.2371 -1.6037
   80SLPC   C11 7359   1.141   3.486   6.389  0.5495 -0.4395  0.2241
   80SLPC  H11A 7360   1.185   3.388   6.359  2.2998  0.5524 -0.6103
   80SLPC  H11B 7361   1.203   3.510   6.478  0.9466  1.5089 -0.5366
   80SLPC     P 7362   1.173   3.736   6.313 -0.1168  0.0786  0.0482
   80SLPC   O13 7363   1.304   3.779   6.366 -0.6403 -0.2067 -1.1633
   80SLPC   O14 7364   1.135   3.792   6.181  0.2351  0.1902 -0.0311
   80SLPC   O12 7365   1.170   3.583   6.287 -0.1803  0.6386  0.3564
   80SLPC   O11 7366   1.062   3.777   6.418  0.8147  0.2964 -0.1168
   80SLPC    C1 7367   1.054   3.896   6.499 -0.2744 -0.6366 -1.0320
   80SLPC    HA 7368   1.148   3.954   6.486 -0.0636 -1.0649 -1.4304
   80SLPC    HB 7369   0.977   3.964   6.459  0.4946  0.5242 -0.5833
   80SLPC    C2 7370   1.029   3.894   6.652  0.3810  0.1990 -0.8671
   80SLPC    HS 7371   1.051   3.996   6.689 -0.7048 -0.6595  2.4614
   80SLPC   O21 7372   1.096   3.793   6.719 -0.1635  0.3009  0.0143
   80SLPC   C21 7373   1.227   3.815   6.730 -0.4465 -0.0755  0.4884
   80SLPC   O22 7374   1.279   3.918   6.694 -0.1551 -0.0167 -0.0267
   80SLPC   C22 7375   1.297   3.682   6.767  0.0445  0.3421 -0.2965
   80SLPC   H2R 7376   1.303   3.620   6.675  1.0195  0.0433 -0.0377
   80SLPC   H2S 7377   1.400   3.705   6.802  0.1235 -0.9747  0.3972
   80SLPC    C3 7378   0.873   3.875   6.679  0.4823  0.6524  0.1695
   80SLPC    HX 7379   0.840   3.774   6.647  0.9376  0.3032  0.7830
   80SLPC    HY 7380   0.824   3.955   6.620 -2.0762 -1.1981 -0.3721
   80SLPC   O31 7381   0.846   3.898   6.813  0.0797  0.3986 -0.1399
   80SLPC   C31 7382   0.865   3.797   6.895  0.1382  0.6545  0.1057
   80SLPC   O32 7383   0.871   3.680   6.855  0.3514 -0.5489 -0.1163
   80SLPC   C32 7384   0.870   3.839   7.046  0.2646  0.2790 -0.5812
   80SLPC   H2X 7385   0.970   3.881   7.069 -0.5019  1.2217  1.3137
   80SLPC   H2Y 7386   0.865   3.749   7.110  0.0135  1.1727  0.7070
   80SLPC   C23 7387   1.219   3.609   6.876 -0.0594 -0.0742  0.5827
   80SLPC   H3R 7388   1.275   3.514   6.884  0.0945  0.0418  0.9399
   80SLPC   H3S 7389   1.113   3.586   6.849  0.2450  0.5754 -1.3081
   80SLPC   C24 7390   1.231   3.675   7.016 -0.0519 -0.5107  0.2115
   80SLPC   H4R 7391   1.174   3.770   7.029 -0.0263 -0.2151 -1.6367
   80SLPC   H4S 7392   1.336   3.708   7.030  0.3026 -0.9045 -1.3452
   80SLPC   C25 7393   1.185   3.576   7.130  0.3959 -0.3190  0.1364
   80SLPC   H5R 7394   1.272   3.506   7.129  0.1156 -0.6675 -1.0632
   80SLPC   H5S 7395   1.088   3.525   7.114 -0.7946  1.6873  0.6623
   80SLPC   C26 7396   1.175   3.652   7.265 -0.6141 -0.1134 -0.2857
   80SLPC   H6R 7397   1.090   3.724   7.270  0.1907  0.9414 -1.2842
   80SLPC   H6S 7398   1.268   3.711   7.281  2.2415 -3.5705 -2.6485
   80SLPC   C27 7399   1.159   3.551   7.383  0.7769 -0.5431 -0.0595
   80SLPC   H7R 7400   1.247   3.483   7.383  2.5725  1.5715  2.7591
   80SLPC   H7S 7401   1.063   3.495   7.370  0.8196 -0.1869 -2.3200
   80SLPC   C28 7402   1.154   3.622   7.521  0.2279 -0.4365 -0.4954
   80SLPC   H8R 7403   1.078   3.702   7.511  0.4339 -0.3374 -1.3920
   80SLPC   H8S 7404   1.249   3.676   7.547 -0.5499 -0.2452  2.2913
   80SLPC   C29 7405   1.106   3.531   7.625  0.1853  0.2770 -0.5316
   80SLPC   H9R 7406   1.023   3.471   7.585 -0.6032  0.4853  0.7299
   80SLPC  C210 7407   1.167   3.513   7.745 -0.4150 -0.3465  0.2240
   80SLPC  H10R 7408   1.118   3.435   7.805 -0.2896 -2.4893 -2.2728
   80SLPC  C211 7409   1.293   3.578   7.801 -0.2530 -0.2757 -0.8639
   80SLPC  H11R 7410   1.375   3.595   7.728  0.2401  1.4874  0.0428
   80SLPC  H11S 7411   1.360   3.507   7.854 -0.7963  0.2546  0.5838
   80SLPC  C212 7412   1.253   3.696   7.889 -0.7067 -0.0326  0.3638
   80SLPC  H12R 7413   1.250   3.793   7.836 -0.1756  0.1152  0.5940
   80SLPC  C213 7414   1.228   3.679   8.023  0.9645 -0.4833  0.9240
   80SLPC  H13R 7415   1.200   3.763   8.087  0.7372 -0.4459  0.7755
   80SLPC  C214 7416   1.239   3.551   8.098  0.6761  0.0859  0.1741
   80SLPC  H14R 7417   1.291   3.476   8.034 -0.4224 -0.6979  0.1660
   80SLPC  H14S 7418   1.134   3.520   8.119  1.2710 -2.6228 -0.4283
   80SLPC  C215 7419   1.321   3.570   8.226  0.3701 -0.4288  0.4721
   80SLPC  H15R 7420   1.287   3.659   8.283  0.0753  0.4692 -1.0618
   80SLPC  H15S 7421   1.423   3.599   8.195 -1.1431  3.4225 -1.5060
   80SLPC  C216 7422   1.316   3.433   8.303 -0.6176 -0.4120 -0.0302
   80SLPC  H16R 7423   1.391   3.373   8.248  1.4852 -0.1063  2.3739
   80SLPC  H16S 7424   1.210   3.401   8.298 -0.9233  0.0779  2.4252
   80SLPC  C217 7425   1.373   3.439   8.448 -0.4305 -0.0728  0.2382
   80SLPC  H17R 7426   1.308   3.502   8.511  1.4782  0.0317  2.2364
   80SLPC  H17S 7427   1.473   3.486   8.459 -0.5205 -0.4438  3.8500
   80SLPC  C218 7428   1.378   3.308   8.523  0.8603 -0.0673 -0.1980
   80SLPC  H18R 7429   1.476   3.264   8.493  0.9616 -0.2556  0.3970
   80SLPC  H18S 7430   1.300   3.239   8.483  0.3275 -0.2887  1.1843
   80SLPC  H18T 7431   1.370   3.313   8.634 -1.4799 -1.0636 -0.2746
   80SLPC   C33 7432   0.770   3.948   7.092 -0.3834 -0.5206 -0.3373
   80SLPC   H3X 7433   0.667   3.912   7.071 -0.9956  0.4608  0.8743
   80SLPC   H3Y 7434   0.777   4.043   7.034 -0.6764 -0.4012 -0.1770
   80SLPC   C34 7435   0.776   3.968   7.245 -0.3393 -0.3030 -0.0887
   80SLPC   H4X 7436   0.708   4.053   7.264 -1.0920 -0.6466 -1.1610
   80SLPC   H4Y 7437   0.878   4.008   7.265 -0.3162  0.9463 -2.3690
   80SLPC   C35 7438   0.728   3.853   7.334  0.1765 -0.3708 -0.5626
   80SLPC   H5X 7439   0.797   3.766   7.334 -3.2713 -3.3368  0.3628
   80SLPC   H5Y 7440   0.632   3.811   7.298 -1.9259  2.5617  1.1842
   80SLPC   C36 7441   0.722   3.888   7.490  0.0191 -0.0624  0.6747
   80SLPC   H6X 7442   0.675   3.986   7.513 -0.8636 -0.3967  0.3385
   80SLPC   H6Y 7443   0.828   3.875   7.522  0.0536  0.2168  0.6772
   80SLPC   C37 7444   0.647   3.779   7.564  0.2909  0.7651  0.1993
   80SLPC   H7X 7445   0.706   3.688   7.543  0.4753  0.8256  0.4460
   80SLPC   H7Y 7446   0.549   3.751   7.519  0.6377 -0.7436  0.3255
   80SLPC   C38 7447   0.640   3.797   7.723  0.1656 -0.3081  0.1218
   80SLPC   H8X 7448   0.599   3.901   7.724 -0.6731 -0.6178  1.2904
   80SLPC   H8Y 7449   0.748   3.790   7.747 -0.2353 -3.0423  1.5564
   80SLPC   C39 7450   0.557   3.683   7.788 -0.0187  0.7547 -0.8940
   80SLPC   H9X 7451   0.521   3.623   7.703 -0.2809  0.8628 -0.8601
   80SLPC   H9Y 7452   0.478   3.709   7.862  1.1601 -1.4615  1.2787
   80SLPC  C310 7453   0.658   3.602   7.872  0.3710 -0.2135  0.5373
   80SLPC  H10X 7454   0.752   3.584   7.815 -0.6440 -1.2789 -0.8718
   80SLPC  H10Y 7455   0.611   3.507   7.905 -1.2622  0.7591  1.1717
   80SLPC  C311 7456   0.705   3.672   8.002  0.0375  0.1174  0.4828
   80SLPC  H11X 7457   0.609   3.702   8.049 -0.4384 -0.8205  0.1252
   80SLPC  H11Y 7458   0.769   3.762   7.987 -1.2702  0.9845 -0.1397
   80SLPC  C312 7459   0.777   3.579   8.101 -0.0456  0.2296  0.1622
   80SLPC  H12X 7460   0.875   3.539   8.065 -0.8785 -2.2303  0.4489
   80SLPC  H12Y 7461   0.708   3.494   8.118 -0.4894  0.5467 -0.0192
   80SLPC  C313 7462   0.804   3.642   8.232 -0.3917 -0.3335 -0.1516
   80SLPC  H13X 7463   0.724   3.711   8.267  0.2641  1.1576 -1.4780
   80SLPC  H13Y 7464   0.894   3.707   8.226  0.6217 -1.6447  0.3576
   80SLPC  C314 7465   0.851   3.553   8.349  0.6768  0.5391 -0.4588
   80SLPC  H14X 7466   0.951   3.513   8.323  1.2972  2.1708 -0.7283
   80SLPC  H14Y 7467   0.774   3.475   8.368  1.6518  0.0968  2.1294
   80SLPC  C315 7468   0.874   3.630   8.472 -0.2422  0.0328 -0.1238
   80SLPC  H15X 7469   0.782   3.683   8.507  1.2717  3.2266 -0.6284
   80SLPC  H15Y 7470   0.941   3.714   8.442 -0.0661  0.4920  1.4432
   80SLPC  C316 7471   0.936   3.544   8.584 -0.2607 -0.3839 -0.1174
   80SLPC  H16X 7472   1.034   3.511   8.545  1.0078  1.2759  1.5202
   80SLPC  H16Y 7473   0.874   3.453   8.602 -0.9273  0.0961  0.0715
   80SLPC  C317 7474   0.966   3.626   8.712  0.1604 -0.4608  0.1553
   80SLPC  H17X 7475   0.991   3.546   8.785  0.1474 -0.8572 -0.2709
   80SLPC  H17Y 7476   0.880   3.681   8.754  0.7108  0.9096 -0.4316
   80SLPC  C318 7477   1.079   3.722   8.695  0.1084 -0.7070  0.2616
   80SLPC  H18X 7478   1.125   3.740   8.795  0.3211 -0.0189  0.0470
   80SLPC  H18Y 7479   1.051   3.816   8.643 -0.8668 -0.9075  0.4149
   80SLPC  H18Z 7480   1.154   3.682   8.623  0.8875  1.4903 -0.2481
   81SAPS     N 7481   2.407   5.783  10.894  0.1727  0.1071  0.6095
   81SAPS   HN1 7482   2.388   5.866  10.953 -1.4355 -2.1242  3.5023
   81SAPS   HN2 7483   2.508   5.760  10.896  0.1416 -0.0884  0.1104
   81SAPS   HN3 7484   2.381   5.794  10.794 -0.0958 -2.4090  0.3337
   81SAPS   C12 7485   2.343   5.667  10.957  0.1556  1.2576 -0.6207
   81SAPS  H12A 7486   2.368   5.578  10.901 -0.7874 -0.1036  1.0663
   81SAPS   C13 7487   2.381   5.659  11.104  0.3052  0.5548  0.1021
   81SAPS  O13A 7488   2.448   5.748  11.156  0.2867 -1.1064 -0.0658
   81SAPS  O13B 7489   2.349   5.564  11.172  0.7099 -0.2272 -0.2091
   81SAPS   C11 7490   2.186   5.667  10.950  0.0575  0.2073  0.2314
   81SAPS  H11A 7491   2.145   5.567  10.977  1.7723 -0.8454 -0.8409
   81SAPS  H11B 7492   2.166   5.674  10.841 -2.4729 -2.2828  0.4102
   81SAPS     P 7493   2.010   5.850  10.979  0.2152  0.2578 -0.2501
   81SAPS   O13 7494   1.888   5.762  10.969 -0.8935 -0.0069 -0.2308
   81SAPS   O14 7495   1.988   5.976  11.053  0.1591  0.1115 -0.2709
   81SAPS   O12 7496   2.130   5.768  11.038  0.4812  0.1496  0.3728
   81SAPS   O11 7497   2.041   5.884  10.829  0.1258  0.8618 -0.0459
   81SAPS    C1 7498   2.115   6.008  10.801 -0.6963 -0.1045 -0.5253
   81SAPS    HA 7499   2.108   6.083  10.883  2.4301 -0.7513  0.4629
   81SAPS    HB 7500   2.225   5.996  10.788 -0.2817  3.4465 -1.2271
   81SAPS    C2 7501   2.062   6.090  10.685  0.7047 -0.7179  0.1062
   81SAPS    HS 7502   1.951   6.080  10.682  0.3984  0.7987  2.9630
   81SAPS   O21 7503   2.121   6.045  10.558  0.4620 -0.0838 -0.8528
   81SAPS   C21 7504   2.042   5.946  10.504  0.3295 -0.3652  0.1114
   81SAPS   O22 7505   1.940   5.898  10.553  0.3982  0.7104 -0.0219
   81SAPS   C22 7506   2.099   5.881  10.382 -0.0897 -0.0307 -1.1482
   81SAPS   H2R 7507   2.209   5.867  10.387  0.3884  3.0970 -0.8526
   81SAPS   H2S 7508   2.047   5.783  10.379 -0.3151  0.0094  0.7324
   81SAPS    C3 7509   2.083   6.242  10.695 -0.4915 -0.1369  0.4676
   81SAPS    HX 7510   2.185   6.257  10.736  1.2195  0.8319 -3.5674
   81SAPS    HY 7511   2.014   6.287  10.769  2.2670  2.4966  1.6515
   81SAPS   O31 7512   2.082   6.307  10.569 -0.2940 -0.4699  0.0411
   81SAPS   C31 7513   2.087   6.436  10.569  0.2481 -0.1795  0.0215
   81SAPS   O32 7514   2.099   6.510  10.664  0.1817  0.1361  0.1435
   81SAPS   C32 7515   2.074   6.485  10.419  0.2170 -0.2757 -0.2862
   81SAPS   H2X 7516   1.971   6.472  10.379 -0.0180  0.5008  0.0493
   81SAPS   H2Y 7517   2.140   6.418  10.360 -0.1558 -0.1290 -0.8812
   81SAPS   C23 7518   2.066   5.955  10.248 -0.4396 -0.2958 -0.1113
   81SAPS   H3R 7519   1.957   5.975  10.242 -0.7582 -1.2566  1.8132
   81SAPS   H3S 7520   2.095   5.876  10.175 -0.0740 -0.4189  0.1639
   81SAPS   C24 7521   2.138   6.088  10.212  0.2663  0.0019 -0.0006
   81SAPS   H4R 7522   2.235   6.064  10.162  2.0537  0.9681  2.7646
   81SAPS   H4S 7523   2.160   6.132  10.311 -1.7196 -2.6287  1.7166
   81SAPS   C25 7524   2.060   6.182  10.125  0.0359  0.2968  0.7317
   81SAPS   H5R 7525   1.971   6.214  10.182  0.7591 -3.0876  4.1588
   81SAPS   C26 7526   2.085   6.247  10.013 -0.3620  0.2740  0.0184
   81SAPS   H6R 7527   1.998   6.289   9.961 -0.5278 -0.8763 -0.6623
   81SAPS   C27 7528   2.208   6.229   9.918  0.0406  0.5652  0.0605
   81SAPS   H7R 7529   2.190   6.155   9.837  0.7214 -0.6639  0.9994
   81SAPS   H7S 7530   2.289   6.183   9.978 -0.6348 -2.4211 -1.1455
   81SAPS   C28 7531   2.251   6.363   9.848 -0.1302  0.2714 -0.2946
   81SAPS   H8R 7532   2.278   6.448   9.913 -0.6492  0.7799 -0.7278
   81SAPS   C29 7533   2.257   6.389   9.714 -0.3873  0.1551 -0.2702
   81SAPS   H9R 7534   2.304   6.482   9.679 -0.6557 -0.8008 -3.4108
   81SAPS  C210 7535   2.236   6.282   9.609 -0.1761  0.1356  0.0049
   81SAPS  H10R 7536   2.266   6.183   9.648 -0.0366  1.2643  3.0661
   81SAPS  H10S 7537   2.299   6.298   9.519 -0.4514  2.3512  0.1388
   81SAPS  C211 7538   2.092   6.277   9.564 -0.2285  0.2425 -0.2132
   81SAPS  H11R 7539   2.015   6.278   9.643 -1.7759  0.0866 -1.6569
   81SAPS  C212 7540   2.053   6.272   9.432 -0.1789  0.0385  0.3511
   81SAPS  H12R 7541   1.946   6.294   9.425 -0.0128  1.5035  1.7779
   81SAPS  C213 7542   2.134   6.263   9.304 -0.2368 -0.2104 -0.0774
   81SAPS  H13R 7543   2.076   6.223   9.218  0.8972  0.3491 -1.1390
   81SAPS  H13S 7544   2.205   6.181   9.330  1.5566  1.1659 -0.4110
   81SAPS  C214 7545   2.221   6.385   9.271  0.0206  0.0712 -0.8535
   81SAPS  H14R 7546   2.211   6.475   9.334 -1.1634 -1.2223  0.8782
   81SAPS  C215 7547   2.328   6.380   9.186  0.5549 -0.0940  0.2184
   81SAPS  H15R 7548   2.379   6.473   9.159 -1.5872  1.3040  0.7730
   81SAPS  C216 7549   2.365   6.267   9.097  0.7271  0.0231  0.0237
   81SAPS  H16R 7550   2.295   6.183   9.112 -1.9675  2.0219 -0.6703
   81SAPS  H16S 7551   2.465   6.227   9.125  0.0592 -0.8789  1.1986
   81SAPS  C217 7552   2.372   6.311   8.949 -0.3119  0.5644  0.2122
   81SAPS  H17R 7553   2.446   6.393   8.939  0.7035 -0.1796  1.3332
   81SAPS  H17S 7554   2.271   6.351   8.925 -1.8031 -3.0991 -0.3561
   81SAPS  C218 7555   2.404   6.191   8.854  0.1931 -0.3766 -0.2296
   81SAPS  H18R 7556   2.332   6.111   8.880 -0.4015  0.1036 -0.3787
   81SAPS  H18S 7557   2.507   6.150   8.855 -0.5580 -2.4295 -1.2927
   81SAPS  C219 7558   2.371   6.218   8.703 -0.7894  0.0411 -0.7765
   81SAPS  H19R 7559   2.270   6.264   8.698 -0.3857  1.2627  1.2205
   81SAPS  H19S 7560   2.361   6.116   8.660  0.3491 -0.2351 -0.4125
   81SAPS  C220 7561   2.484   6.298   8.641 -0.1677 -0.7139  0.1501
   81SAPS  H20R 7562   2.581   6.245   8.654  0.4959  0.5629  0.5612
   81SAPS  H20S 7563   2.479   6.400   8.684  3.6378 -0.4094  0.1879
   81SAPS  H20T 7564   2.470   6.301   8.531  1.0908  2.2099 -0.0107
   81SAPS   C33 7565   2.130   6.624  10.385 -0.0449 -0.1959  0.3419
   81SAPS   H3X 7566   2.237   6.642  10.408 -0.0282 -0.1754  0.2520
   81SAPS   H3Y 7567   2.081   6.705  10.443  0.5839  0.5146 -0.1029
   81SAPS   C34 7568   2.099   6.673  10.241  0.0334  0.2430 -0.3201
   81SAPS   H4X 7569   1.993   6.704  10.235 -0.1576 -0.5532 -1.7803
   81SAPS   H4Y 7570   2.122   6.583  10.179 -0.3467 -1.2473  1.6136
   81SAPS   C35 7571   2.175   6.800  10.192  0.0215  0.3037 -1.0326
   81SAPS   H5X 7572   2.279   6.759  10.192 -0.7463 -1.7836 -2.3492
   81SAPS   H5Y 7573   2.178   6.861  10.285  0.5314 -2.1672  0.6922
   81SAPS   C36 7574   2.128   6.860  10.065 -0.3724 -0.2650 -0.5241
   81SAPS   H6X 7575   2.174   6.959  10.047 -1.7681  0.1801 -1.8399
   81SAPS   H6Y 7576   2.022   6.893  10.061 -1.0001 -2.1125 -0.2565
   81SAPS   C37 7577   2.157   6.774   9.944  0.5641 -0.5241 -0.0006
   81SAPS   H7X 7578   2.105   6.679   9.971  0.3547 -0.1684  0.8612
   81SAPS   H7Y 7579   2.267   6.760   9.941  0.5892 -0.2824 -0.2308
   81SAPS   C38 7580   2.101   6.831   9.821  0.0628  0.1926  0.0645
   81SAPS   H8X 7581   2.137   6.936   9.816 -2.2563  1.0021 -2.6593
   81SAPS   H8Y 7582   1.990   6.846   9.819  0.1621  0.9517 -0.2038
   81SAPS   C39 7583   2.143   6.756   9.691  0.8520  0.0180 -0.0619
   81SAPS   H9X 7584   2.093   6.657   9.685 -0.3814  0.2687  3.5563
   81SAPS   H9Y 7585   2.249   6.731   9.713  0.5709  1.2062  3.0971
   81SAPS  C310 7586   2.132   6.834   9.554  0.0261 -0.1376 -0.7246
   81SAPS  H10X 7587   2.179   6.935   9.560 -0.8967  0.2362  0.6629
   81SAPS  H10Y 7588   2.025   6.859   9.536  0.5968  2.6423 -0.7103
   81SAPS  C311 7589   2.202   6.759   9.438  0.2185  0.4876  0.6065
   81SAPS  H11X 7590   2.143   6.669   9.413 -3.0122  2.1874  1.6210
   81SAPS  H11Y 7591   2.305   6.731   9.468 -0.2754 -2.3589 -0.0542
   81SAPS  C312 7592   2.223   6.847   9.309 -0.0907  0.7513 -0.1457
   81SAPS  H12X 7593   2.297   6.926   9.334 -0.0002  0.8602 -0.7373
   81SAPS  H12Y 7594   2.128   6.905   9.296 -0.9056 -0.2911  0.9926
   81SAPS  C313 7595   2.268   6.769   9.187 -0.2274 -0.1936  0.0760
   81SAPS  H13X 7596   2.189   6.696   9.159 -1.0276  1.1067 -1.2182
   81SAPS  H13Y 7597   2.364   6.715   9.205 -0.6885 -1.9232 -2.1754
   81SAPS  C314 7598   2.291   6.861   9.072 -0.5179 -0.5883 -0.3632
   81SAPS  H14X 7599   2.371   6.935   9.090 -1.4687  0.9777 -2.1826
   81SAPS  H14Y 7600   2.191   6.910   9.066 -0.8197 -1.2478 -0.9124
   81SAPS  C315 7601   2.328   6.797   8.942 -0.2506  0.2705  0.0792
   81SAPS  H15X 7602   2.266   6.711   8.911 -1.4124  1.6394 -1.5419
   81SAPS  H15Y 7603   2.434   6.761   8.943 -0.0730  0.7059 -1.2746
   81SAPS  C316 7604   2.333   6.903   8.832 -0.1133 -0.2951  0.5946
   81SAPS  H16X 7605   2.398   6.977   8.883 -0.1555 -1.4478  2.4202
   81SAPS  H16Y 7606   2.231   6.938   8.806 -0.6434 -2.5624 -0.6881
   81SAPS  C317 7607   2.397   6.853   8.701  0.6608  0.2811  0.3716
   81SAPS  H17X 7608   2.343   6.765   8.659  0.6056  0.1441  0.7266
   81SAPS  H17Y 7609   2.498   6.813   8.722  2.3894  3.0539 -1.9535
   81SAPS  C318 7610   2.412   6.966   8.598  0.1541  0.3632 -0.2872
   81SAPS  H18X 7611   2.313   7.011   8.575 -1.3964 -2.0951  1.2058
   81SAPS  H18Y 7612   2.459   6.928   8.505 -0.6169  2.2787 -1.5209
   81SAPS  H18Z 7613   2.483   7.044   8.635  0.4760  0.2219 -0.5972
   82SAPS     N 7614   6.574   6.242  10.896  0.5026  0.3698 -0.4491
   82SAPS   HN1 7615   6.538   6.233  10.799  1.1080 -0.4475 -0.6123
   82SAPS   HN2 7616   6.660   6.183  10.895 -0.6984 -1.4659  0.1849
   82SAPS   HN3 7617   6.505   6.191  10.954  0.0883  0.6851 -0.6552
   82SAPS   C12 7618   6.603   6.384  10.941 -0.0675 -0.5151  0.2865
   82SAPS  H12A 7619   6.504   6.428  10.950 -0.3544 -1.4271  2.0542
   82SAPS   C13 7620   6.681   6.380  11.076  0.2566  0.7676 -0.1518
   82SAPS  O13A 7621   6.690   6.266  11.136 -0.2246  0.3006  0.0618
   82SAPS  O13B 7622   6.707   6.491  11.140 -0.1431 -0.0533  0.3041
   82SAPS   C11 7623   6.698   6.449  10.837 -0.7662 -0.4313 -0.0250
   82SAPS  H11A 7624   6.635   6.470  10.748  0.5263  0.3301 -0.7823
   82SAPS  H11B 7625   6.767   6.366  10.813 -0.5012  0.2918 -1.8882
   82SAPS     P 7626   6.680   6.712  10.883 -0.0919 -0.4210  0.2514
   82SAPS   O13 7627   6.537   6.690  10.898 -0.2991  0.5074 -0.1032
   82SAPS   O14 7628   6.739   6.810  10.975 -0.2243  0.2890  0.6596
   82SAPS   O12 7629   6.763   6.572  10.887 -0.3193  0.4333  0.0395
   82SAPS   O11 7630   6.710   6.755  10.739  0.1396 -0.0770  0.1504
   82SAPS    C1 7631   6.620   6.812  10.644  0.2818  0.1189  0.1749
   82SAPS    HA 7632   6.567   6.902  10.680 -1.7845 -0.5308 -1.0781
   82SAPS    HB 7633   6.683   6.852  10.562 -1.5637 -1.5763 -2.2225
   82SAPS    C2 7634   6.518   6.709  10.581 -1.1904  0.5214 -0.4789
   82SAPS    HS 7635   6.481   6.640  10.660 -0.6711  0.3197 -0.4118
   82SAPS   O21 7636   6.595   6.643  10.483 -0.0976 -0.0515  0.0367
   82SAPS   C21 7637   6.546   6.530  10.435  0.2681 -0.9229  0.0997
   82SAPS   O22 7638   6.445   6.475  10.486 -0.1034 -0.5276  0.6136
   82SAPS   C22 7639   6.619   6.487  10.312 -0.3700  0.8303 -0.0275
   82SAPS   H2R 7640   6.681   6.566  10.263  0.4025 -0.9737 -2.1408
   82SAPS   H2S 7641   6.692   6.405  10.331 -0.5277 -0.0751 -2.8597
   82SAPS    C3 7642   6.402   6.788  10.515  0.1567 -0.5595  0.7063
   82SAPS    HX 7643   6.334   6.831  10.591 -0.4814 -0.9669  0.3822
   82SAPS    HY 7644   6.338   6.722  10.453 -0.7819 -0.5463  1.6397
   82SAPS   O31 7645   6.465   6.896  10.439 -0.0592  0.1266  0.0335
   82SAPS   C31 7646   6.458   6.894  10.306 -0.1736 -0.7654  0.1013
   82SAPS   O32 7647   6.396   6.814  10.241  0.6542  0.0449 -0.2741
   82SAPS   C32 7648   6.537   7.010  10.233  0.2921 -0.1060 -0.4801
   82SAPS   H2X 7649   6.607   7.050  10.309  1.4753 -1.6406 -0.7038
   82SAPS   H2Y 7650   6.463   7.093  10.230 -0.8977 -1.0678  1.1040
   82SAPS   C23 7651   6.521   6.427  10.200  0.3457 -0.5735 -0.4140
   82SAPS   H3R 7652   6.434   6.494  10.182 -0.7599 -1.9449 -0.2841
   82SAPS   H3S 7653   6.470   6.334  10.231 -0.6037  0.2269  0.4780
   82SAPS   C24 7654   6.607   6.414  10.075 -0.1935 -0.4440 -0.0756
   82SAPS   H4R 7655   6.697   6.355  10.104  0.8251  0.9329 -0.2851
   82SAPS   H4S 7656   6.652   6.510  10.042 -1.4276 -0.0418 -0.6273
   82SAPS   C25 7657   6.545   6.356   9.951 -0.9615 -0.2508  0.4768
   82SAPS   H5R 7658   6.560   6.248   9.940  0.9971 -0.2023  2.1401
   82SAPS   C26 7659   6.474   6.420   9.857  0.3095 -0.4530  0.0935
   82SAPS   H6R 7660   6.437   6.362   9.771 -0.0413  1.0723 -0.8313
   82SAPS   C27 7661   6.444   6.574   9.866  0.4523 -0.0136  0.2532
   82SAPS   H7R 7662   6.525   6.640   9.827  0.1547 -0.2425 -0.7822
   82SAPS   H7S 7663   6.442   6.602   9.974  0.7316 -0.4330  0.3710
   82SAPS   C28 7664   6.309   6.615   9.804  0.0841  0.2050  0.7951
   82SAPS   H8R 7665   6.219   6.612   9.867 -0.9857 -0.2882 -0.6982
   82SAPS   C29 7666   6.307   6.660   9.674  0.2059 -0.8549  0.3414
   82SAPS   H9R 7667   6.214   6.700   9.632 -0.4960 -1.7453  1.0381
   82SAPS  C210 7668   6.420   6.683   9.576  0.6234  0.7744  0.3425
   82SAPS  H10R 7669   6.468   6.585   9.552 -1.4765 -0.6145  1.5079
   82SAPS  H10S 7670   6.498   6.743   9.629  0.6220 -0.4587  1.8066
   82SAPS  C211 7671   6.383   6.744   9.444  0.2376 -0.2399  0.2203
   82SAPS  H11R 7672   6.300   6.816   9.441 -0.4533 -1.0483 -1.0147
   82SAPS  C212 7673   6.431   6.707   9.324  0.3839 -0.1631 -0.0699
   82SAPS  H12R 7674   6.389   6.751   9.233  2.4349  1.9246 -0.1113
   82SAPS  C213 7675   6.547   6.614   9.301 -0.2277 -0.2056  0.1030
   82SAPS  H13R 7676   6.546   6.555   9.207  3.7068 -1.1537  0.4714
   82SAPS  H13S 7677   6.550   6.527   9.371  1.4700 -1.0681 -0.9470
   82SAPS  C214 7678   6.685   6.682   9.313 -0.1127  0.6079  0.1526
   82SAPS  H14R 7679   6.695   6.767   9.245 -1.7445  1.2293  0.6489
   82SAPS  C215 7680   6.789   6.652   9.395 -0.4037 -0.2168  0.4091
   82SAPS  H15R 7681   6.889   6.696   9.399  0.7522 -2.6551  0.6284
   82SAPS  C216 7682   6.788   6.545   9.502 -0.0008  1.0621  0.4471
   82SAPS  H16R 7683   6.717   6.472   9.456  1.3067 -1.5054  2.2277
   82SAPS  H16S 7684   6.734   6.585   9.590 -2.1246  1.9733 -1.1841
   82SAPS  C217 7685   6.920   6.473   9.534  0.6281  0.0115 -0.2482
   82SAPS  H17R 7686   6.906   6.392   9.609  1.5794 -1.0963 -1.2271
   82SAPS  H17S 7687   6.983   6.545   9.589  2.0001 -1.0371 -0.3784
   82SAPS  C218 7688   6.991   6.425   9.404  0.0169  0.5514  0.0907
   82SAPS  H18R 7689   7.033   6.517   9.356 -0.7663 -0.6816 -3.2386
   82SAPS  H18S 7690   6.915   6.378   9.338  0.0941 -2.0522  1.7156
   82SAPS  C219 7691   7.100   6.331   9.451  0.0322 -0.0546 -0.6401
   82SAPS  H19R 7692   7.051   6.236   9.480  1.3581 -0.4405  0.4538
   82SAPS  H19S 7693   7.155   6.365   9.542 -1.3463  1.7596 -0.4263
   82SAPS  C220 7694   7.210   6.300   9.345  0.5713  0.3353  0.2431
   82SAPS  H20R 7695   7.276   6.389   9.333 -0.6215  1.0981 -0.9266
   82SAPS  H20S 7696   7.167   6.268   9.248  0.1786 -1.8247  1.0757
   82SAPS  H20T 7697   7.273   6.211   9.366  1.0567  0.4698 -0.5778
   82SAPS   C33 7698   6.605   6.973  10.097 -0.0609 -0.3617  0.8821
   82SAPS   H3X 7699   6.530   6.919  10.035  1.0221 -1.3711  0.4068
   82SAPS   H3Y 7700   6.683   6.897  10.120  1.0754  0.5124  0.0231
   82SAPS   C34 7701   6.681   7.085  10.031 -0.1702 -0.7138  0.4677
   82SAPS   H4X 7702   6.762   7.124  10.097 -2.1362  0.1178  2.5254
   82SAPS   H4Y 7703   6.623   7.171   9.990  0.9895 -0.8127 -1.5297
   82SAPS   C35 7704   6.759   7.038   9.905 -0.8150 -0.0208 -0.0112
   82SAPS   H5X 7705   6.812   6.947   9.940  2.7145  2.1101  0.6675
   82SAPS   H5Y 7706   6.833   7.116   9.875 -0.3575 -0.1253  0.8183
   82SAPS   C36 7707   6.660   7.025   9.789 -0.2847  0.4051 -0.4399
   82SAPS   H6X 7708   6.612   7.119   9.758  0.1790  0.1200 -2.1074
   82SAPS   H6Y 7709   6.573   6.965   9.822  0.2723 -0.4554 -0.4876
   82SAPS   C37 7710   6.719   6.961   9.661  0.3539  0.3334 -0.5069
   82SAPS   H7X 7711   6.636   6.912   9.605  1.6057 -0.2252 -1.9577
   82SAPS   H7Y 7712   6.807   6.899   9.688 -1.4184 -1.5688  1.1924
   82SAPS   C38 7713   6.781   7.064   9.565  1.1461  0.1857  0.1161
   82SAPS   H8X 7714   6.864   7.118   9.615  1.7385 -1.0408  0.4855
   82SAPS   H8Y 7715   6.697   7.135   9.550  0.1149 -0.5098  2.1845
   82SAPS   C39 7716   6.846   7.010   9.440 -0.5824 -0.4520 -0.1348
   82SAPS   H9X 7717   6.772   6.957   9.376  0.5735  0.5329 -2.4463
   82SAPS   H9Y 7718   6.925   6.940   9.474 -1.5638 -1.1225  0.8136
   82SAPS  C310 7719   6.929   7.116   9.362  0.2231 -0.3237  0.9810
   82SAPS  H10X 7720   6.980   7.193   9.424 -4.1255  3.4700  0.4336
   82SAPS  H10Y 7721   6.855   7.179   9.307 -0.2862 -1.9610 -0.2843
   82SAPS  C311 7722   7.023   7.053   9.258 -0.2280  0.3745 -0.5191
   82SAPS  H11X 7723   7.106   7.005   9.313 -0.1851 -0.7326 -1.5267
   82SAPS  H11Y 7724   7.077   7.125   9.192 -0.4633  0.8733 -0.1752
   82SAPS  C312 7725   6.962   6.944   9.165 -0.1991  0.6316 -0.9043
   82SAPS  H12X 7726   6.900   6.864   9.211  1.0446 -1.2554 -2.3407
   82SAPS  H12Y 7727   7.051   6.898   9.116  1.1473  1.5313  0.5813
   82SAPS  C313 7728   6.870   7.004   9.055 -0.1214 -0.4563  0.3883
   82SAPS  H13X 7729   6.927   7.084   9.003  1.8657 -2.1739 -0.2318
   82SAPS  H13Y 7730   6.783   7.052   9.104  0.8007  0.0470  1.5903
   82SAPS  C314 7731   6.814   6.909   8.945 -0.0206  0.0883 -0.0645
   82SAPS  H14X 7732   6.788   6.978   8.862  1.7241 -0.6378 -1.2688
   82SAPS  H14Y 7733   6.721   6.866   8.989 -0.5162  1.3986  0.2016
   82SAPS  C315 7734   6.916   6.801   8.910  0.4333  0.1548 -0.1317
   82SAPS  H15X 7735   6.924   6.730   8.995 -1.2903 -1.1030 -0.9570
   82SAPS  H15Y 7736   7.012   6.855   8.897  2.0614 -2.4316  0.4097
   82SAPS  C316 7737   6.900   6.716   8.781 -1.1392 -0.3419  0.3695
   82SAPS  H16X 7738   6.791   6.696   8.776 -1.4234  1.1089  0.3814
   82SAPS  H16Y 7739   6.959   6.624   8.801 -0.2948  0.4369  1.7074
   82SAPS  C317 7740   6.952   6.788   8.659 -0.4644  0.1414 -0.2506
   82SAPS  H17X 7741   7.062   6.801   8.650 -0.4675 -0.0511 -0.6065
   82SAPS  H17Y 7742   6.914   6.892   8.668 -0.8064  0.3632 -3.1628
   82SAPS  C318 7743   6.897   6.718   8.536  0.4231  0.1438  0.0878
   82SAPS  H18X 7744   6.931   6.774   8.446 -3.0484 -1.2661 -2.2985
   82SAPS  H18Y 7745   6.787   6.713   8.529  0.3733 -4.0122  1.0925
   82SAPS  H18Z 7746   6.927   6.611   8.526  0.6548  0.3608 -1.9031
   83SAPS     N 7747   1.244   1.001  11.131  0.0238 -0.0781 -0.3650
   83SAPS   HN1 7748   1.338   0.965  11.157  1.4677  0.8593 -3.7150
   83SAPS   HN2 7749   1.214   0.979  11.034 -0.3530  2.0332 -0.7838
   83SAPS   HN3 7750   1.230   1.104  11.137  0.5820 -0.0139 -0.1333
   83SAPS   C12 7751   1.165   0.939  11.239  0.7519 -0.1160 -0.8325
   83SAPS  H12A 7752   1.211   0.979  11.329 -1.7814  1.0134  0.0356
   83SAPS   C13 7753   1.021   0.980  11.250  0.6737 -0.2869  0.2530
   83SAPS  O13A 7754   0.971   1.052  11.160  0.2848 -0.1950 -0.2947
   83SAPS  O13B 7755   0.947   0.908  11.326  0.7035  0.7988 -0.2783
   83SAPS   C11 7756   1.188   0.782  11.224 -0.3114  0.2533 -0.2199
   83SAPS  H11A 7757   1.117   0.740  11.149  0.0107 -0.5832 -0.0619
   83SAPS  H11B 7758   1.148   0.748  11.322 -0.4916 -0.4471 -0.5257
   83SAPS     P 7759   1.381   0.616  11.173 -0.0825  0.0741 -0.4557
   83SAPS   O13 7760   1.517   0.617  11.118  0.0000 -0.2993  0.0906
   83SAPS   O14 7761   1.344   0.519  11.274  0.0729  0.0191 -0.6834
   83SAPS   O12 7762   1.328   0.760  11.205  0.6443  0.0908 -0.1710
   83SAPS   O11 7763   1.281   0.584  11.053  0.5508 -0.2802  0.0567
   83SAPS    C1 7764   1.278   0.656  10.928  0.2413  1.0070  0.6942
   83SAPS    HA 7765   1.175   0.659  10.884 -0.0267 -1.1592  1.0298
   83SAPS    HB 7766   1.317   0.759  10.941 -1.2407  1.5876  0.7423
   83SAPS    C2 7767   1.348   0.572  10.810 -0.6021 -0.5231 -1.0126
   83SAPS    HS 7768   1.452   0.556  10.845 -0.4782  1.5694 -0.3038
   83SAPS   O21 7769   1.333   0.645  10.691 -0.1891 -0.4471 -0.3896
   83SAPS   C21 7770   1.433   0.730  10.669 -0.6854  0.0225  0.3332
   83SAPS   O22 7771   1.541   0.733  10.729 -0.3669  0.3374  0.5532
   83SAPS   C22 7772   1.406   0.806  10.546  0.0656  0.0790  0.3150
   83SAPS   H2R 7773   1.307   0.853  10.564 -0.6654 -0.9134 -0.9074
   83SAPS   H2S 7774   1.470   0.896  10.543 -2.3013  1.8633 -2.2709
   83SAPS    C3 7775   1.277   0.435  10.795  0.1860  0.0238  0.0160
   83SAPS    HX 7776   1.170   0.453  10.769 -0.1332 -0.1441  1.1586
   83SAPS    HY 7777   1.284   0.371  10.886 -0.0607  0.4285  0.3230
   83SAPS   O31 7778   1.317   0.355  10.680 -0.2912  0.2027 -0.1116
   83SAPS   C31 7779   1.451   0.327  10.676  0.8304  0.1778 -0.0004
   83SAPS   O32 7780   1.528   0.338  10.768 -0.7332  0.1806  0.6625
   83SAPS   C32 7781   1.482   0.292  10.536 -0.1964  0.1823 -0.2122
   83SAPS   H2X 7782   1.445   0.376  10.473 -0.9396 -0.0684 -0.1216
   83SAPS   H2Y 7783   1.429   0.198  10.506  0.0100  0.3388 -1.1048
   83SAPS   C23 7784   1.394   0.728  10.414  0.1249 -0.2528  0.7025
   83SAPS   H3R 7785   1.289   0.692  10.405  1.3072 -4.1947  0.5027
   83SAPS   H3S 7786   1.463   0.641  10.405  0.0715 -0.1369 -1.6960
   83SAPS   C24 7787   1.429   0.820  10.298  0.0632  0.0390  0.1296
   83SAPS   H4R 7788   1.380   0.920  10.296 -1.3143 -0.5943 -1.9962
   83SAPS   H4S 7789   1.375   0.775  10.212  0.8603  0.3801 -0.5694
   83SAPS   C25 7790   1.579   0.824  10.286  0.3641 -1.1075 -0.2113
   83SAPS   H5R 7791   1.636   0.857  10.374 -1.0909  1.2971 -0.0840
   83SAPS   C26 7792   1.649   0.773  10.187  0.0582 -0.3669 -0.7320
   83SAPS   H6R 7793   1.759   0.780  10.196  0.2084 -1.7197 -1.1226
   83SAPS   C27 7794   1.588   0.705  10.064 -0.1808  0.1553 -0.6278
   83SAPS   H7R 7795   1.524   0.629  10.112 -1.5280  1.5163 -0.2116
   83SAPS   H7S 7796   1.674   0.643  10.029 -0.5383 -2.1794  2.2363
   83SAPS   C28 7797   1.501   0.785   9.964 -0.6866  0.2461 -0.1106
   83SAPS   H8R 7798   1.457   0.875  10.010  0.9481  0.6363  0.7659
   83SAPS   C29 7799   1.501   0.776   9.828  0.3187  0.0188 -0.4549
   83SAPS   H9R 7800   1.441   0.852   9.776  1.0858 -0.0497 -1.4723
   83SAPS  C210 7801   1.576   0.684   9.736 -0.6124  0.2871  0.0707
   83SAPS  H10R 7802   1.513   0.668   9.646 -0.1005 -1.4365 -0.0168
   83SAPS  H10S 7803   1.579   0.584   9.785 -0.6301  0.3978  0.2991
   83SAPS  C211 7804   1.715   0.733   9.708  0.5150 -0.1659 -0.4018
   83SAPS  H11R 7805   1.778   0.743   9.798  0.1100 -0.7266 -0.0500
   83SAPS  C212 7806   1.766   0.760   9.585 -0.0681  0.0322 -0.6677
   83SAPS  H12R 7807   1.869   0.794   9.600 -0.2830  0.1021  0.8003
   83SAPS  C213 7808   1.693   0.752   9.455  0.3025 -0.9747 -0.1438
   83SAPS  H13R 7809   1.594   0.702   9.457 -0.0210 -0.3424  1.5989
   83SAPS  H13S 7810   1.757   0.680   9.401  1.3463  0.0018 -0.2494
   83SAPS  C214 7811   1.672   0.888   9.391  0.6576 -0.4695 -0.5049
   83SAPS  H14R 7812   1.652   0.972   9.459 -1.0727  1.0882 -2.7976
   83SAPS  C215 7813   1.683   0.919   9.262 -0.7340 -0.1636  0.0454
   83SAPS  H15R 7814   1.654   1.019   9.227 -0.4089 -0.6124 -1.5548
   83SAPS  C216 7815   1.701   0.813   9.155 -0.5390  0.5961  0.1305
   83SAPS  H16R 7816   1.653   0.845   9.060  2.2988  0.0100 -1.6078
   83SAPS  H16S 7817   1.661   0.712   9.179 -1.2306  1.0282  0.8301
   83SAPS  C217 7818   1.853   0.797   9.141 -0.2706  0.0612 -0.5132
   83SAPS  H17R 7819   1.873   0.703   9.085  0.5179  0.2668 -0.5781
   83SAPS  H17S 7820   1.904   0.799   9.239 -1.6832  2.1541  0.2379
   83SAPS  C218 7821   1.927   0.914   9.069  0.3423  0.0592 -0.8515
   83SAPS  H18R 7822   1.896   1.015   9.104  0.0959 -0.2015 -0.3036
   83SAPS  H18S 7823   1.919   0.901   8.959  0.1701  0.7591 -0.9290
   83SAPS  C219 7824   2.079   0.916   9.093  0.2991  0.2389  0.1372
   83SAPS  H19R 7825   2.132   0.838   9.035 -0.7224  0.8215 -1.6650
   83SAPS  H19S 7826   2.097   0.893   9.200 -0.3809 -2.1347 -0.1902
   83SAPS  C220 7827   2.134   1.060   9.079 -0.9473 -0.4725  0.4498
   83SAPS  H20R 7828   2.218   1.068   9.152 -2.4522  0.0026  2.2203
   83SAPS  H20S 7829   2.076   1.150   9.107  1.9564  2.0078 -0.9110
   83SAPS  H20T 7830   2.170   1.078   8.976  0.6839 -0.1333  1.0432
   83SAPS   C33 7831   1.638   0.272  10.518 -0.1342 -0.7100 -0.2921
   83SAPS   H3X 7832   1.669   0.188  10.584 -1.8336  0.6922  2.4696
   83SAPS   H3Y 7833   1.702   0.356  10.550 -0.2220 -0.2827 -1.2106
   83SAPS   C34 7834   1.676   0.243  10.376 -0.0580 -0.5473  0.8910
   83SAPS   H4X 7835   1.613   0.157  10.348 -0.8916  0.7845 -1.6846
   83SAPS   H4Y 7836   1.782   0.213  10.360  0.0712 -1.1805  2.7387
   83SAPS   C35 7837   1.628   0.347  10.275 -0.0203 -0.3083  0.0849
   83SAPS   H5X 7838   1.660   0.444  10.318  1.3093 -0.8036  0.2620
   83SAPS   H5Y 7839   1.517   0.345  10.269  0.0341 -1.1717 -1.2671
   83SAPS   C36 7840   1.681   0.318  10.138 -0.4328  0.6083  0.1568
   83SAPS   H6X 7841   1.789   0.301  10.158 -0.4455  0.6421  0.2555
   83SAPS   H6Y 7842   1.682   0.415  10.085 -1.6271  0.7389  0.3306
   83SAPS   C37 7843   1.614   0.205  10.060 -0.8787 -1.0148 -0.4944
   83SAPS   H7X 7844   1.508   0.234  10.046 -0.1004  1.3327 -2.1568
   83SAPS   H7Y 7845   1.614   0.105  10.109  1.0308 -2.1028 -2.5346
   83SAPS   C38 7846   1.684   0.178   9.920  0.3111 -0.1630 -0.3729
   83SAPS   H8X 7847   1.643   0.078   9.897 -1.1111  0.1349  0.7265
   83SAPS   H8Y 7848   1.794   0.174   9.931  0.3226 -0.8920 -0.7254
   83SAPS   C39 7849   1.644   0.276   9.807 -0.1358 -0.1291  0.0283
   83SAPS   H9X 7850   1.674   0.381   9.829 -0.4737 -0.1858  0.8283
   83SAPS   H9Y 7851   1.533   0.281   9.810 -0.2298 -1.6781  0.3117
   83SAPS  C310 7852   1.708   0.234   9.673 -0.1236  0.4354 -0.6739
   83SAPS  H10X 7853   1.668   0.131   9.664 -0.8479  0.3315  2.5052
   83SAPS  H10Y 7854   1.819   0.231   9.684 -0.2957  1.3362  2.0677
   83SAPS  C311 7855   1.677   0.327   9.553  0.2022 -0.0088  0.9462
   83SAPS  H11X 7856   1.697   0.429   9.593 -3.0801  0.6193  1.2851
   83SAPS  H11Y 7857   1.568   0.327   9.533  0.7862  0.5897 -3.3944
   83SAPS  C312 7858   1.751   0.299   9.424 -0.0320 -0.0814 -0.1301
   83SAPS  H12X 7859   1.736   0.190   9.411  0.7144 -0.0244 -1.6593
   83SAPS  H12Y 7860   1.859   0.303   9.452 -0.1592 -0.8012  0.5060
   83SAPS  C313 7861   1.704   0.377   9.307  0.0258  0.6262  0.2932
   83SAPS  H13X 7862   1.697   0.486   9.326 -1.0508  0.2030  2.7173
   83SAPS  H13Y 7863   1.599   0.353   9.279  0.8136 -0.2919 -2.1926
   83SAPS  C314 7864   1.785   0.348   9.186 -0.0524 -0.2919  0.5341
   83SAPS  H14X 7865   1.790   0.237   9.183 -0.0843 -0.3340  1.6025
   83SAPS  H14Y 7866   1.891   0.376   9.203  0.6365 -1.4221 -1.5424
   83SAPS  C315 7867   1.739   0.412   9.060  0.4976  0.2181  0.1972
   83SAPS  H15X 7868   1.751   0.521   9.080  0.5869  0.0503  1.1291
   83SAPS  H15Y 7869   1.634   0.386   9.035  0.7622 -1.2982  0.5286
   83SAPS  C316 7870   1.817   0.353   8.940 -0.3675  0.4215 -0.7232
   83SAPS  H16X 7871   1.793   0.245   8.951 -2.3387  1.0839  2.7602
   83SAPS  H16Y 7872   1.921   0.379   8.968 -0.7736 -0.7124  2.1286
   83SAPS  C317 7873   1.763   0.409   8.807  0.2595  0.0927  0.6384
   83SAPS  H17X 7874   1.660   0.369   8.791  0.5118 -0.2891 -0.0955
   83SAPS  H17Y 7875   1.822   0.387   8.715  0.0328  1.7289  0.0719
   83SAPS  C318 7876   1.766   0.565   8.802  0.2079  0.1642 -0.3755
   83SAPS  H18X 7877   1.853   0.619   8.845  0.8478 -2.0609  1.3148
   83SAPS  H18Y 7878   1.678   0.611   8.853  1.1147  0.5816  0.8589
   83SAPS  H18Z 7879   1.743   0.598   8.699 -0.0568  1.0739 -0.0399
   84SAPS     N 7880   3.202   6.558  10.981  0.4107 -0.0914  0.0170
   84SAPS   HN1 7881   3.101   6.534  10.980  0.6442 -1.2487  1.2625
   84SAPS   HN2 7882   3.212   6.643  10.923  0.0443 -0.3083 -0.3700
   84SAPS   HN3 7883   3.243   6.477  10.932  0.0644  1.0644 -2.3162
   84SAPS   C12 7884   3.258   6.561  11.116 -0.2868 -0.6864  1.2246
   84SAPS  H12A 7885   3.365   6.558  11.104 -0.3812 -1.5347  0.4365
   84SAPS   C13 7886   3.212   6.674  11.206 -0.1587 -0.3522 -0.4401
   84SAPS  O13A 7887   3.105   6.741  11.181 -0.0659 -0.2663  0.2554
   84SAPS  O13B 7888   3.256   6.676  11.327 -0.1712  0.8027 -0.0542
   84SAPS   C11 7889   3.205   6.423  11.178  0.9189 -0.8973 -0.0033
   84SAPS  H11A 7890   3.095   6.417  11.195  0.5941  1.1838 -1.0083
   84SAPS  H11B 7891   3.255   6.422  11.277  3.1396  2.2599 -0.9238
   84SAPS     P 7892   3.380   6.245  11.096 -0.1857 -0.1831  0.2318
   84SAPS   O13 7893   3.445   6.259  11.231 -0.2300  0.2141 -0.6174
   84SAPS   O14 7894   3.386   6.123  11.022 -0.0427 -0.5133  0.1992
   84SAPS   O12 7895   3.238   6.310  11.091  0.0117 -0.1562 -0.4163
   84SAPS   O11 7896   3.460   6.350  11.000  0.2386 -0.2667 -0.9546
   84SAPS    C1 7897   3.605   6.332  10.995  1.0073  0.4828  0.0810
   84SAPS    HA 7898   3.645   6.324  11.098  2.0718  0.5809 -0.3038
   84SAPS    HB 7899   3.630   6.235  10.946 -0.6472  0.8690 -1.6296
   84SAPS    C2 7900   3.682   6.446  10.922 -0.4451 -0.0014  0.7575
   84SAPS    HS 7901   3.696   6.525  10.999 -0.3226  0.0723  0.6604
   84SAPS   O21 7902   3.611   6.493  10.805  0.8817  0.1886  0.0999
   84SAPS   C21 7903   3.606   6.619  10.784 -0.2898 -0.8171  0.1885
   84SAPS   O22 7904   3.644   6.708  10.860 -0.2802 -0.5154 -0.0158
   84SAPS   C22 7905   3.555   6.632  10.640  0.3389 -0.2159  0.5302
   84SAPS   H2R 7906   3.611   6.567  10.571 -0.5560 -2.2841  1.6672
   84SAPS   H2S 7907   3.447   6.607  10.638  0.1523  0.5308  0.7146
   84SAPS    C3 7908   3.821   6.384  10.880 -0.5354 -0.1609  0.0233
   84SAPS    HX 7909   3.812   6.327  10.785  1.4165 -0.3256 -0.0836
   84SAPS    HY 7910   3.854   6.311  10.957 -1.8651  0.2107  0.9973
   84SAPS   O31 7911   3.921   6.489  10.880  0.2503 -0.0376 -0.2344
   84SAPS   C31 7912   3.983   6.518  10.777  0.1392 -0.5479 -0.3444
   84SAPS   O32 7913   3.978   6.465  10.665 -0.3715  0.2394  0.2210
   84SAPS   C32 7914   4.075   6.633  10.811 -0.4030  0.3331 -0.1443
   84SAPS   H2X 7915   4.137   6.599  10.896  0.0843 -2.8690 -1.6149
   84SAPS   H2Y 7916   4.005   6.704  10.859 -1.4773 -1.5310  1.1788
   84SAPS   C23 7917   3.579   6.770  10.577  0.4826  0.4818 -0.0585
   84SAPS   H3R 7918   3.550   6.847  10.652  0.9595 -0.7154  1.4173
   84SAPS   H3S 7919   3.507   6.783  10.494  1.2588  0.4772 -0.7347
   84SAPS   C24 7920   3.716   6.782  10.524 -0.3758  0.0883 -0.0952
   84SAPS   H4R 7921   3.788   6.732  10.593 -1.3782 -0.5499  0.5190
   84SAPS   H4S 7922   3.752   6.887  10.521 -1.4689  0.5271  1.2105
   84SAPS   C25 7923   3.726   6.723  10.385  0.1841  0.0462 -0.6222
   84SAPS   H5R 7924   3.747   6.615  10.390  0.1980  0.0869  0.7841
   84SAPS   C26 7925   3.695   6.786  10.273  0.6605 -0.4425  0.0799
   84SAPS   H6R 7926   3.719   6.730  10.182  0.4743 -0.7583  0.2224
   84SAPS   C27 7927   3.661   6.934  10.258 -0.5205  0.1277  0.3126
   84SAPS   H7R 7928   3.721   6.955  10.166  0.1384 -0.1214  0.6772
   84SAPS   H7S 7929   3.696   6.995  10.343 -0.4113  0.9532 -0.3119
   84SAPS   C28 7930   3.511   6.951  10.238  0.3895 -0.5500 -0.1477
   84SAPS   H8R 7931   3.443   6.945  10.325 -0.3224  0.0799 -0.6479
   84SAPS   C29 7932   3.451   6.983  10.118 -0.0271  0.6207 -0.1204
   84SAPS   H9R 7933   3.343   6.996  10.127 -0.2769 -1.5682  0.6856
   84SAPS  C210 7934   3.518   7.000   9.985 -0.7756 -0.4789  0.4924
   84SAPS  H10R 7935   3.593   7.081   9.996 -0.7761 -0.6688  1.9970
   84SAPS  H10S 7936   3.453   7.055   9.913 -1.5172 -0.4098  1.2040
   84SAPS  C211 7937   3.559   6.875   9.903 -0.6609 -0.1118 -0.1862
   84SAPS  H11R 7938   3.534   6.780   9.953  2.3821 -0.8969  0.0351
   84SAPS  C212 7939   3.606   6.883   9.776 -0.1436 -0.7672 -0.6739
   84SAPS  H12R 7940   3.609   6.797   9.707 -1.4055 -1.6430  0.3042
   84SAPS  C213 7941   3.633   7.017   9.709  0.0301  0.1368  0.6222
   84SAPS  H13R 7942   3.734   7.017   9.664  0.8115  3.0226  2.1170
   84SAPS  H13S 7943   3.627   7.104   9.778 -1.5692  0.3415  0.2825
   84SAPS  C214 7944   3.509   7.038   9.611 -0.4311 -0.1593  0.4673
   84SAPS  H14R 7945   3.411   7.047   9.659 -0.7794  3.2770 -0.6591
   84SAPS  C215 7946   3.511   7.034   9.475 -0.0303  1.4655  0.0717
   84SAPS  H15R 7947   3.416   7.035   9.419 -0.4143 -0.0126  0.6541
   84SAPS  C216 7948   3.631   7.016   9.396 -0.3140  0.1011 -0.1145
   84SAPS  H16R 7949   3.665   6.913   9.417  0.2126  0.1752 -0.5756
   84SAPS  H16S 7950   3.712   7.073   9.447 -1.7304  0.4901  1.7981
   84SAPS  C217 7951   3.616   7.046   9.247 -0.5951 -0.4095  0.3171
   84SAPS  H17R 7952   3.588   7.152   9.230  0.4960 -0.1620 -0.0115
   84SAPS  H17S 7953   3.524   6.990   9.220 -2.1375  2.3455 -0.6140
   84SAPS  C218 7954   3.734   7.021   9.160  0.0216  0.5703 -0.5551
   84SAPS  H18R 7955   3.767   6.915   9.163  0.1312  0.5035 -2.6344
   84SAPS  H18S 7956   3.823   7.077   9.196  0.1473 -0.3697  0.6722
   84SAPS  C219 7957   3.709   7.055   9.019 -0.2567 -0.2748  0.1662
   84SAPS  H19R 7958   3.678   7.161   9.010 -2.6769 -1.0807 -3.1309
   84SAPS  H19S 7959   3.624   6.995   8.979 -1.0889  1.0114 -0.0263
   84SAPS  C220 7960   3.824   7.025   8.919 -0.2006 -0.9443 -0.5631
   84SAPS  H20R 7961   3.799   7.069   8.820  1.5240 -0.3865 -0.7862
   84SAPS  H20S 7962   3.848   6.917   8.911  0.5937 -0.6495 -3.0084
   84SAPS  H20T 7963   3.915   7.068   8.965  0.4005 -1.8410 -0.8845
   84SAPS   C33 7964   4.163   6.693  10.695  0.7801 -0.4796 -0.1139
   84SAPS   H3X 7965   4.210   6.614  10.633 -0.0232 -1.1922  0.1609
   84SAPS   H3Y 7966   4.233   6.762  10.746 -0.3789  0.9438 -0.3839
   84SAPS   C34 7967   4.090   6.786  10.587 -0.4113  0.3285  0.0257
   84SAPS   H4X 7968   4.016   6.852  10.636 -1.1305 -1.1012  0.9666
   84SAPS   H4Y 7969   4.034   6.717  10.521 -0.9216  0.7013  0.0661
   84SAPS   C35 7970   4.194   6.872  10.505  0.1881 -0.4498 -0.2393
   84SAPS   H5X 7971   4.286   6.899  10.562  0.1877  1.9954 -1.2889
   84SAPS   H5Y 7972   4.139   6.965  10.480 -2.4421 -2.0411 -0.7789
   84SAPS   C36 7973   4.235   6.807  10.375  0.0613  0.6562  0.2759
   84SAPS   H6X 7974   4.279   6.707  10.396 -0.4306  0.0559 -1.3291
   84SAPS   H6Y 7975   4.325   6.861  10.339  0.5761 -0.0281  0.5012
   84SAPS   C37 7976   4.124   6.819  10.263  0.9336  0.4542  0.3523
   84SAPS   H7X 7977   4.067   6.899  10.313  2.0612  0.5728  1.5183
   84SAPS   H7Y 7978   4.059   6.729  10.265 -0.3665  1.3696 -0.0058
   84SAPS   C38 7979   4.181   6.844  10.122 -0.5448 -0.0147 -0.2807
   84SAPS   H8X 7980   4.265   6.772  10.111  1.5712  2.2771 -0.1008
   84SAPS   H8Y 7981   4.225   6.945  10.116 -0.7119  0.4258  3.4134
   84SAPS   C39 7982   4.080   6.820  10.012  0.5658 -0.5385  0.2056
   84SAPS   H9X 7983   3.977   6.861  10.018  0.8528  0.8659 -2.6684
   84SAPS   H9Y 7984   4.057   6.711  10.015  0.2557 -0.4859 -0.1228
   84SAPS  C310 7985   4.135   6.853   9.879 -0.2953  0.0882  0.3386
   84SAPS  H10X 7986   4.205   6.773   9.848 -1.9279 -1.0666 -0.5416
   84SAPS  H10Y 7987   4.188   6.950   9.886  0.8936 -0.4909 -0.3575
   84SAPS  C311 7988   4.020   6.870   9.781  0.1877  0.1703 -0.1592
   84SAPS  H11X 7989   3.959   6.959   9.809 -2.4921 -1.4815 -0.4455
   84SAPS  H11Y 7990   3.953   6.782   9.789  0.5393 -0.0313  0.6534
   84SAPS  C312 7991   4.065   6.889   9.637 -0.2838  0.4079 -0.7043
   84SAPS  H12X 7992   4.126   6.799   9.612 -0.7659 -0.0333 -0.3136
   84SAPS  H12Y 7993   4.134   6.976   9.636 -1.0934  1.0491 -0.8608
   84SAPS  C313 7994   3.955   6.904   9.539  0.6278  0.4725 -0.6768
   84SAPS  H13X 7995   3.904   7.002   9.556 -1.1250 -0.6448  0.8919
   84SAPS  H13Y 7996   3.878   6.829   9.568  1.0322  0.2342 -0.2179
   84SAPS  C314 7997   3.998   6.883   9.399 -0.3391  0.3354 -0.7277
   84SAPS  H14X 7998   3.905   6.905   9.343 -0.4967  2.0070  0.1297
   84SAPS  H14Y 7999   4.042   6.782   9.384 -1.0440 -0.0898  0.0226
   84SAPS  C315 8000   4.103   6.984   9.337 -0.7410  0.4657  0.2377
   84SAPS  H15X 8001   4.204   6.979   9.383 -1.1690  2.3738  1.5167
   84SAPS  H15Y 8002   4.065   7.087   9.355 -0.9691  0.1114  1.9512
   84SAPS  C316 8003   4.123   6.958   9.186  0.0005 -0.2489  0.0742
   84SAPS  H16X 8004   4.026   6.960   9.131 -0.7412 -0.8872  1.3030
   84SAPS  H16Y 8005   4.169   6.860   9.163 -2.1297 -1.3444  0.1772
   84SAPS  C317 8006   4.227   7.050   9.127  0.4243 -0.0285  0.4280
   84SAPS  H17X 8007   4.318   7.047   9.190  1.2716 -0.4734 -0.7815
   84SAPS  H17Y 8008   4.199   7.158   9.123  0.5557  0.1027  2.1430
   84SAPS  C318 8009   4.267   7.008   8.982 -0.2585 -0.4360 -0.1832
   84SAPS  H18X 8010   4.175   7.024   8.922  0.1393 -1.5148 -1.1186
   84SAPS  H18Y 8011   4.300   6.902   8.978  3.5191  0.6010 -0.5985
   84SAPS  H18Z 8012   4.359   7.066   8.957  0.0706 -1.0934 -0.5207
   85SAPS     N 8013   0.297   3.187  10.728 -0.3658 -0.1523  0.0576
   85SAPS   HN1 8014   0.333   3.151  10.638 -3.5652  0.1518 -1.4823
   85SAPS   HN2 8015   0.195   3.168  10.737 -0.0069 -1.5063  1.9838
   85SAPS   HN3 8016   0.308   3.287  10.703 -0.2193 -0.7380 -2.4280
   85SAPS   C12 8017   0.365   3.158  10.862  0.5106 -0.0041 -0.1131
   85SAPS  H12A 8018   0.471   3.175  10.845  0.8346 -2.3468 -0.8161
   85SAPS   C13 8019   0.324   3.260  10.977 -0.4707 -0.2906  0.3628
   85SAPS  O13A 8020   0.210   3.314  10.963 -0.6204 -0.0863 -0.4009
   85SAPS  O13B 8021   0.391   3.263  11.083 -0.6459 -0.2815 -0.3183
   85SAPS   C11 8022   0.326   3.017  10.911 -0.4762 -0.0115 -0.2366
   85SAPS  H11A 8023   0.216   3.008  10.905 -0.5446  1.3824 -3.3768
   85SAPS  H11B 8024   0.370   3.005  11.013  1.6508  1.5756 -0.8772
   85SAPS     P 8025   0.376   2.773  10.851  0.4986 -0.0139 -0.3620
   85SAPS   O13 8026   0.463   2.756  10.969  0.0135 -0.1380  0.4040
   85SAPS   O14 8027   0.240   2.728  10.871  0.2547 -0.7724  0.0641
   85SAPS   O12 8028   0.374   2.923  10.806  1.0914 -0.0223 -0.1051
   85SAPS   O11 8029   0.440   2.682  10.745 -0.4220 -0.0848 -0.3979
   85SAPS    C1 8030   0.517   2.734  10.639 -0.3386 -0.0600  0.1000
   85SAPS    HA 8031   0.582   2.812  10.684 -1.5102  0.3160  1.2250
   85SAPS    HB 8032   0.581   2.655  10.595  1.4394  1.7022 -0.6372
   85SAPS    C2 8033   0.423   2.793  10.527 -0.5955 -0.3606 -0.3534
   85SAPS    HS 8034   0.354   2.861  10.580  1.5307  1.2803  0.4521
   85SAPS   O21 8035   0.364   2.681  10.452  0.4257  0.6491  0.3940
   85SAPS   C21 8036   0.245   2.713  10.401  0.0646 -0.1794  1.2691
   85SAPS   O22 8037   0.173   2.799  10.446  0.0275 -0.2301  0.1643
   85SAPS   C22 8038   0.215   2.619  10.281 -0.4729  0.0172 -0.2324
   85SAPS   H2R 8039   0.199   2.518  10.325  0.2669 -0.5253 -1.1690
   85SAPS   H2S 8040   0.120   2.644  10.230 -0.1863  0.9426 -0.3385
   85SAPS    C3 8041   0.514   2.872  10.429  0.1502  0.2656 -0.9291
   85SAPS    HX 8042   0.569   2.795  10.372  2.2852  0.7004  0.4208
   85SAPS    HY 8043   0.585   2.933  10.490 -2.8922  3.0848  0.0840
   85SAPS   O31 8044   0.438   2.957  10.334  0.2112  0.3898 -0.0839
   85SAPS   C31 8045   0.388   3.066  10.383 -0.6379  0.1471 -0.4333
   85SAPS   O32 8046   0.391   3.102  10.503 -0.1770  0.0117 -0.0977
   85SAPS   C32 8047   0.332   3.140  10.255  0.0661 -0.8289 -1.0155
   85SAPS   H2X 8048   0.275   3.065  10.195  0.1683 -1.2571 -0.5853
   85SAPS   H2Y 8049   0.420   3.182  10.201  2.2313 -2.0286  1.3484
   85SAPS   C23 8050   0.331   2.628  10.180 -0.2974  0.1156  0.4686
   85SAPS   H3R 8051   0.324   2.546  10.105  2.2999  0.3764 -0.1527
   85SAPS   H3S 8052   0.427   2.609  10.233 -0.0331  2.9638  1.1714
   85SAPS   C24 8053   0.331   2.760  10.098  0.6400 -0.5639 -0.7469
   85SAPS   H4R 8054   0.330   2.844  10.170 -2.3141 -1.3368  0.2759
   85SAPS   H4S 8055   0.231   2.766  10.049  0.5929 -0.0960 -0.5909
   85SAPS   C25 8056   0.436   2.768   9.997 -0.3685  0.1703 -0.7559
   85SAPS   H5R 8057   0.491   2.672   9.998 -3.3660 -1.6543 -0.9972
   85SAPS   C26 8058   0.472   2.870   9.915  0.4295  0.1653 -0.5117
   85SAPS   H6R 8059   0.560   2.849   9.853  0.6955 -3.3915  0.8057
   85SAPS   C27 8060   0.402   3.007   9.912  0.5299 -0.0696 -0.2951
   85SAPS   H7R 8061   0.444   3.046  10.006  0.6336 -1.4175  0.2424
   85SAPS   H7S 8062   0.292   3.005   9.929  0.5023  1.4153 -0.2156
   85SAPS   C28 8063   0.428   3.092   9.785  0.6468 -0.4816  0.1764
   85SAPS   H8R 8064   0.531   3.066   9.759  2.3390 -2.0742  6.7146
   85SAPS   C29 8065   0.345   3.169   9.711 -0.3785 -0.1264 -0.2082
   85SAPS   H9R 8066   0.384   3.209   9.616  0.1160  0.5531  0.2682
   85SAPS  C210 8067   0.200   3.181   9.748 -0.1769  0.7677 -0.1558
   85SAPS  H10R 8068   0.164   3.284   9.727 -1.5515  0.0832 -1.3257
   85SAPS  H10S 8069   0.192   3.175   9.859  0.0519 -0.5210 -0.1862
   85SAPS  C211 8070   0.107   3.078   9.697 -0.5701  0.0658  0.2553
   85SAPS  H11R 8071   0.059   3.022   9.779  0.6801  0.7710  1.5345
   85SAPS  C212 8072   0.065   3.050   9.571 -0.3498 -0.9737 -1.0401
   85SAPS  H12R 8073  -0.017   2.980   9.546 -1.2822 -0.3118  0.0537
   85SAPS  C213 8074   0.128   3.122   9.453  0.9365  0.3623 -0.0829
   85SAPS  H13R 8075   0.196   3.207   9.475  0.0719  1.6283 -2.0185
   85SAPS  H13S 8076   0.046   3.170   9.396  0.8170  0.2623  0.0029
   85SAPS  C214 8077   0.203   3.011   9.383 -0.7185 -0.1962  0.2642
   85SAPS  H14R 8078   0.281   2.954   9.436  1.1635  0.5078 -1.6139
   85SAPS  C215 8079   0.184   2.980   9.250 -0.0069 -0.1809 -0.6142
   85SAPS  H15R 8080   0.235   2.893   9.206 -0.7743 -0.0384 -1.8305
   85SAPS  C216 8081   0.099   3.055   9.151 -0.1451 -0.1386  0.1418
   85SAPS  H16R 8082   0.006   3.097   9.195 -0.9280 -1.1097 -0.5424
   85SAPS  H16S 8083   0.078   2.990   9.064  2.9317  0.6367 -1.3370
   85SAPS  C217 8084   0.185   3.174   9.083  0.0034 -0.4741  0.3544
   85SAPS  H17R 8085   0.257   3.222   9.153  0.2675 -0.0193 -0.2316
   85SAPS  H17S 8086   0.126   3.250   9.028  0.7218 -0.6900 -0.7288
   85SAPS  C218 8087   0.279   3.112   8.971 -0.1603 -0.5789 -0.2971
   85SAPS  H18R 8088   0.218   3.094   8.880  1.3605  1.3088 -1.7722
   85SAPS  H18S 8089   0.329   3.018   9.002  0.9522  0.0471 -0.1392
   85SAPS  C219 8090   0.393   3.209   8.928  0.5561  0.4847 -0.4160
   85SAPS  H19R 8091   0.442   3.249   9.020 -1.7771 -0.5704  1.4104
   85SAPS  H19S 8092   0.358   3.306   8.886 -0.0855  0.8031  0.8067
   85SAPS  C220 8093   0.483   3.136   8.821 -0.6654 -0.0427 -0.2826
   85SAPS  H20R 8094   0.434   3.100   8.728  3.2174 -0.5039 -2.3323
   85SAPS  H20S 8095   0.546   3.061   8.873  1.5310  1.7064 -0.2835
   85SAPS  H20T 8096   0.552   3.208   8.774  0.5998 -0.5366  0.7562
   85SAPS   C33 8097   0.255   3.257  10.300 -0.4883 -0.2726  0.4059
   85SAPS   H3X 8098   0.317   3.315  10.371  1.0356 -1.3540  0.0198
   85SAPS   H3Y 8099   0.170   3.223  10.363  0.1450  1.3504  2.2510
   85SAPS   C34 8100   0.200   3.336  10.178  0.7910  0.3644  0.1494
   85SAPS   H4X 8101   0.161   3.263  10.104 -0.4456  1.8161 -0.6824
   85SAPS   H4Y 8102   0.291   3.379  10.131 -0.5932  0.9641 -2.1743
   85SAPS   C35 8103   0.095   3.450  10.205 -0.2837 -0.5793 -0.2721
   85SAPS   H5X 8104   0.134   3.503  10.295 -1.0964 -0.3872 -0.0280
   85SAPS   H5Y 8105   0.001   3.396  10.227 -0.2144 -0.5524  0.1108
   85SAPS   C36 8106   0.087   3.559  10.098 -0.9493 -0.3296 -0.0751
   85SAPS   H6X 8107   0.192   3.589  10.075 -0.2363 -1.8850  1.0250
   85SAPS   H6Y 8108   0.033   3.653  10.124  1.3726  0.6176  1.6928
   85SAPS   C37 8109   0.045   3.504   9.965  0.2373  0.4588  0.2679
   85SAPS   H7X 8110  -0.050   3.447   9.981  1.1774 -1.3968 -0.4056
   85SAPS   H7Y 8111   0.117   3.434   9.917  1.9385  0.9683  1.9710
   85SAPS   C38 8112   0.016   3.618   9.861  0.0448  0.5093 -0.3291
   85SAPS   H8X 8113   0.110   3.678   9.863  0.8504 -0.7249  1.0678
   85SAPS   H8Y 8114  -0.076   3.674   9.889  0.3835  0.2440  1.4654
   85SAPS   C39 8115  -0.016   3.557   9.721 -0.3207  0.3313 -0.1845
   85SAPS   H9X 8116  -0.117   3.510   9.713 -0.8274  0.4758  3.4725
   85SAPS   H9Y 8117   0.060   3.479   9.705  2.5722  3.1707 -1.2618
   85SAPS  C310 8118  -0.011   3.668   9.619  0.0313 -1.0134 -0.7539
   85SAPS  H10X 8119   0.083   3.723   9.640 -0.2157 -1.1861  0.9074
   85SAPS  H10Y 8120  -0.084   3.747   9.645  1.1414  0.0620 -0.7933
   85SAPS  C311 8121  -0.024   3.625   9.475 -0.5875  0.5274  0.0947
   85SAPS  H11X 8122  -0.065   3.713   9.422 -1.2603  0.3084  0.2426
   85SAPS  H11Y 8123  -0.098   3.546   9.453 -0.6645  0.4137  0.7247
   85SAPS  C312 8124   0.107   3.578   9.413 -0.0436 -0.1072 -0.1142
   85SAPS  H12X 8125   0.115   3.469   9.433 -2.9594 -0.3262  0.2443
   85SAPS  H12Y 8126   0.190   3.642   9.452 -0.0639  0.6279 -1.2318
   85SAPS  C313 8127   0.112   3.587   9.260  0.4492  0.6206 -0.0701
   85SAPS  H13X 8128   0.209   3.543   9.229 -1.0790 -2.4595 -0.9080
   85SAPS  H13Y 8129   0.121   3.698   9.256  2.0498  0.7116  3.0410
   85SAPS  C314 8130  -0.007   3.516   9.192  0.3029 -0.4655  0.4352
   85SAPS  H14X 8131  -0.103   3.568   9.214 -0.4949 -0.4113 -2.6381
   85SAPS  H14Y 8132  -0.017   3.411   9.227 -2.6690 -0.3468  0.2045
   85SAPS  C315 8133   0.003   3.519   9.035  0.4562 -0.1451 -0.8279
   85SAPS  H15X 8134  -0.092   3.478   8.993 -0.5004 -0.6104  1.6007
   85SAPS  H15Y 8135   0.078   3.443   9.006  0.5896 -0.0847 -0.6440
   85SAPS  C316 8136   0.037   3.655   8.969  0.3381  0.2109 -0.6908
   85SAPS  H16X 8137   0.135   3.691   9.008  0.5374  1.9982 -2.6242
   85SAPS  H16Y 8138  -0.042   3.727   8.999  0.3008 -0.2072  0.2454
   85SAPS  C317 8139   0.057   3.633   8.822  0.4011  0.2122  0.0733
   85SAPS  H17X 8140  -0.040   3.593   8.786 -0.9258  0.9552  2.6219
   85SAPS  H17Y 8141   0.132   3.553   8.803  0.0479 -0.3905  1.1642
   85SAPS  C318 8142   0.084   3.761   8.745 -0.1415  0.4802  0.2245
   85SAPS  H18X 8143   0.007   3.837   8.770  0.3473  1.2715 -0.6232
   85SAPS  H18Y 8144   0.082   3.754   8.635  1.1864  1.1285  0.1337
   85SAPS  H18Z 8145   0.183   3.792   8.787  0.4072  1.1396 -1.4662
   86SAPS     N 8146   2.775   2.432  11.219 -0.5229 -0.3819 -0.4737
   86SAPS   HN1 8147   2.840   2.358  11.254 -1.1087 -0.5836  0.2094
   86SAPS   HN2 8148   2.674   2.408  11.227 -1.6764  4.1791  2.2857
   86SAPS   HN3 8149   2.808   2.442  11.120  0.2042 -1.4561 -0.3573
   86SAPS   C12 8150   2.791   2.562  11.301  0.3130  0.9889 -0.3499
   86SAPS  H12A 8151   2.749   2.547  11.400  2.3216  0.0784  0.4032
   86SAPS   C13 8152   2.942   2.600  11.312 -0.6784  0.2426 -0.4345
   86SAPS  O13A 8153   3.032   2.522  11.277  0.1123 -0.0727  0.4085
   86SAPS  O13B 8154   2.971   2.688  11.397 -0.3389 -0.0310 -0.1573
   86SAPS   C11 8155   2.727   2.675  11.221 -0.2039  0.0161  0.0037
   86SAPS  H11A 8156   2.793   2.694  11.133 -1.5235  0.8578 -0.8474
   86SAPS  H11B 8157   2.731   2.771  11.278 -1.0601  1.9145 -2.9065
   86SAPS     P 8158   2.525   2.728  11.067  0.1001  0.3463 -0.0399
   86SAPS   O13 8159   2.383   2.750  11.103  0.5271 -0.0439  0.0809
   86SAPS   O14 8160   2.608   2.852  11.036 -0.3620 -0.4753  0.1391
   86SAPS   O12 8161   2.595   2.646  11.178  0.6202  0.7229 -0.5461
   86SAPS   O11 8162   2.529   2.626  10.951  0.1352 -0.3599 -0.1441
   86SAPS    C1 8163   2.598   2.640  10.828  0.5080  0.0297 -0.6110
   86SAPS    HA 8164   2.706   2.662  10.842  0.4266  1.3281 -1.8466
   86SAPS    HB 8165   2.577   2.545  10.775 -2.3263 -0.0157  0.3818
   86SAPS    C2 8166   2.544   2.756  10.735  0.6537  0.3754 -0.6795
   86SAPS    HS 8167   2.592   2.844  10.783 -1.0610  0.4147  1.1142
   86SAPS   O21 8168   2.406   2.765  10.733  0.2940 -0.9269  0.3124
   86SAPS   C21 8169   2.362   2.881  10.693  1.0441  0.4483  0.1314
   86SAPS   O22 8170   2.426   2.986  10.684 -0.4087 -0.2266 -0.4843
   86SAPS   C22 8171   2.209   2.871  10.668  0.5478  0.1017  0.1623
   86SAPS   H2R 8172   2.171   2.771  10.698  0.3973 -1.0595 -3.3946
   86SAPS   H2S 8173   2.164   2.952  10.729  0.5927 -0.2124  0.6172
   86SAPS    C3 8174   2.594   2.730  10.593  0.3742  0.2299  0.0672
   86SAPS    HX 8175   2.705   2.733  10.599  0.4817  0.0267 -1.4897
   86SAPS    HY 8176   2.555   2.804  10.520  0.9865 -0.8405 -1.3711
   86SAPS   O31 8177   2.543   2.595  10.551  0.2021 -0.2425 -0.6758
   86SAPS   C31 8178   2.572   2.567  10.422  0.0546 -0.1011  0.6417
   86SAPS   O32 8179   2.636   2.645  10.352 -0.8018  0.1494 -0.0633
   86SAPS   C32 8180   2.497   2.442  10.380 -0.2222 -0.0379 -0.3885
   86SAPS   H2X 8181   2.389   2.457  10.403  0.4697  1.3465  2.3560
   86SAPS   H2Y 8182   2.529   2.364  10.452 -0.8641  1.8838  2.1435
   86SAPS   C23 8183   2.189   2.891  10.514 -0.1951 -0.2073 -1.3855
   86SAPS   H3R 8184   2.260   2.974  10.494 -1.2761  1.1040 -0.0050
   86SAPS   H3S 8185   2.087   2.929  10.489 -1.2332 -2.7632 -1.3181
   86SAPS   C24 8186   2.204   2.764  10.432  0.4009  0.2337  0.4593
   86SAPS   H4R 8187   2.311   2.738  10.446  0.6438  1.2066  0.4609
   86SAPS   H4S 8188   2.202   2.796  10.325  2.9138 -0.5184  0.1096
   86SAPS   C25 8189   2.116   2.644  10.447 -0.1680  0.3938 -0.4885
   86SAPS   H5R 8190   2.101   2.602  10.548  2.4341  2.0839  0.6910
   86SAPS   C26 8191   2.057   2.576  10.350  0.2396  0.5754  0.2814
   86SAPS   H6R 8192   1.996   2.490  10.383 -0.7320  1.7568  1.6562
   86SAPS   C27 8193   2.049   2.603  10.197 -0.4575  0.7116  0.0374
   86SAPS   H7R 8194   2.094   2.693  10.151  1.7203 -1.1674 -1.7279
   86SAPS   H7S 8195   1.940   2.594  10.178 -0.1388 -1.5174 -1.1449
   86SAPS   C28 8196   2.107   2.481  10.129 -0.3324 -0.5664  0.1536
   86SAPS   H8R 8197   2.104   2.390  10.191 -0.6347 -1.3356 -0.9741
   86SAPS   C29 8198   2.164   2.484  10.004  0.1209 -0.0541  0.5576
   86SAPS   H9R 8199   2.202   2.388   9.964 -1.2966 -0.8623  1.0634
   86SAPS  C210 8200   2.184   2.609   9.912 -0.6711 -0.2336  0.9573
   86SAPS  H10R 8201   2.120   2.696   9.938 -1.5949  0.0378 -1.8281
   86SAPS  H10S 8202   2.160   2.579   9.808  0.4686  0.2752  0.5328
   86SAPS  C211 8203   2.329   2.651   9.915 -0.1293  0.7017 -0.3358
   86SAPS  H11R 8204   2.373   2.679  10.012 -0.4102 -0.6848  0.2266
   86SAPS  C212 8205   2.407   2.663   9.808 -0.1747 -0.0701  0.3267
   86SAPS  H12R 8206   2.511   2.690   9.828 -0.1844 -0.2596  0.6395
   86SAPS  C213 8207   2.383   2.636   9.661  0.2410 -0.5178  0.5230
   86SAPS  H13R 8208   2.433   2.716   9.604 -1.1371 -1.2175 -1.7955
   86SAPS  H13S 8209   2.273   2.647   9.645  0.1251  2.7138  2.5627
   86SAPS  C214 8210   2.420   2.498   9.607  0.3334 -0.9091  0.1610
   86SAPS  H14R 8211   2.443   2.424   9.685 -0.1063  0.0415  1.2226
   86SAPS  C215 8212   2.440   2.468   9.479  0.1830  0.8286 -0.1753
   86SAPS  H15R 8213   2.474   2.369   9.443 -0.8715  0.2862  0.2730
   86SAPS  C216 8214   2.425   2.572   9.376 -0.1199 -0.9135 -0.4088
   86SAPS  H16R 8215   2.515   2.638   9.379 -2.1809  2.1496 -0.9233
   86SAPS  H16S 8216   2.337   2.637   9.396 -0.6130 -1.4732 -0.7204
   86SAPS  C217 8217   2.413   2.519   9.230 -0.0091 -0.0229  0.1552
   86SAPS  H17R 8218   2.400   2.605   9.161  0.6493 -0.8979 -1.1045
   86SAPS  H17S 8219   2.328   2.452   9.206  0.3703 -0.9764  1.3825
   86SAPS  C218 8220   2.534   2.444   9.178 -0.3040  0.8192 -0.0146
   86SAPS  H18R 8221   2.566   2.349   9.225  1.5655  1.5324  0.2241
   86SAPS  H18S 8222   2.621   2.509   9.203  1.0525 -0.5365 -1.0461
   86SAPS  C219 8223   2.531   2.434   9.031  0.7937  0.5457 -0.4430
   86SAPS  H19R 8224   2.634   2.427   8.989  1.6772  0.2993  1.5966
   86SAPS  H19S 8225   2.478   2.518   8.982 -1.2041 -1.0706 -1.2023
   86SAPS  C220 8226   2.457   2.304   8.984 -0.5320 -0.1175  0.8604
   86SAPS  H20R 8227   2.533   2.223   8.993 -0.6828 -0.2943  0.5512
   86SAPS  H20S 8228   2.421   2.325   8.881  2.2123  0.2570 -0.1166
   86SAPS  H20T 8229   2.366   2.285   9.044 -1.0917  0.8583  0.3540
   86SAPS   C33 8230   2.514   2.430  10.224 -0.4417  0.1974 -0.3853
   86SAPS   H3X 8231   2.622   2.418  10.200 -0.3317 -2.3994  1.1523
   86SAPS   H3Y 8232   2.479   2.519  10.167 -1.7527 -0.0326  0.0423
   86SAPS   C34 8233   2.441   2.306  10.182 -0.1280  0.3614 -0.0961
   86SAPS   H4X 8234   2.330   2.314  10.190  0.0546  3.0721  0.9363
   86SAPS   H4Y 8235   2.485   2.225  10.244  1.3784  1.1424 -0.1161
   86SAPS   C35 8236   2.465   2.283  10.036  0.1504  0.0609  0.5566
   86SAPS   H5X 8237   2.575   2.281  10.020  0.3772 -0.4621  1.9906
   86SAPS   H5Y 8238   2.417   2.356   9.968  0.3533  2.5790  2.9354
   86SAPS   C36 8239   2.415   2.140   9.990 -0.1119  0.1146 -0.5284
   86SAPS   H6X 8240   2.304   2.131   9.988 -0.0797 -0.7816  0.4537
   86SAPS   H6Y 8241   2.463   2.077  10.068  0.7221  1.1293 -0.1992
   86SAPS   C37 8242   2.457   2.099   9.845  0.3522  0.1298  0.7103
   86SAPS   H7X 8243   2.411   2.170   9.772  1.4493 -0.7121 -0.8568
   86SAPS   H7Y 8244   2.412   2.000   9.822  3.3075 -1.1671  0.1213
   86SAPS   C38 8245   2.601   2.067   9.823 -0.1376  0.6022 -0.5011
   86SAPS   H8X 8246   2.614   1.991   9.744  0.0363  1.2959 -1.1491
   86SAPS   H8Y 8247   2.646   2.026   9.916 -2.4579  2.3261  1.5108
   86SAPS   C39 8248   2.698   2.178   9.768 -0.7927  0.7129  0.2880
   86SAPS   H9X 8249   2.801   2.147   9.795 -1.4496 -0.6770  1.3429
   86SAPS   H9Y 8250   2.687   2.281   9.808  0.9006  0.7700  0.6405
   86SAPS  C310 8251   2.689   2.181   9.621  0.0928 -0.1236 -0.3166
   86SAPS  H10X 8252   2.583   2.202   9.596  0.4251  0.4094 -1.3446
   86SAPS  H10Y 8253   2.700   2.079   9.577  0.3914 -0.1403 -0.1997
   86SAPS  C311 8254   2.789   2.280   9.560 -0.0192  0.0485 -0.0528
   86SAPS  H11X 8255   2.890   2.251   9.598  0.3395  0.9559 -0.2719
   86SAPS  H11Y 8256   2.768   2.386   9.585  0.4285 -0.2888  2.0080
   86SAPS  C312 8257   2.796   2.269   9.407 -0.1000 -0.3216 -0.3227
   86SAPS  H12X 8258   2.698   2.291   9.360 -0.9094 -0.9684  1.0129
   86SAPS  H12Y 8259   2.819   2.163   9.383  0.6212 -0.2761  0.1406
   86SAPS  C313 8260   2.899   2.370   9.338  0.6135  0.6317  0.4725
   86SAPS  H13X 8261   3.002   2.351   9.375  0.3859 -1.7589 -0.0249
   86SAPS  H13Y 8262   2.854   2.467   9.370 -0.2470  0.8714 -1.3459
   86SAPS  C314 8263   2.902   2.357   9.184 -0.2271 -0.8652 -0.3957
   86SAPS  H14X 8264   2.977   2.427   9.142  0.1129 -1.3372 -0.5922
   86SAPS  H14Y 8265   2.806   2.390   9.139 -0.3261 -0.6644 -0.0386
   86SAPS  C315 8266   2.952   2.215   9.134  0.2142 -0.6264  0.9939
   86SAPS  H15X 8267   2.875   2.137   9.153 -1.1214 -0.9598 -4.1078
   86SAPS  H15Y 8268   3.047   2.193   9.185  1.1618  1.0588  0.0341
   86SAPS  C316 8269   2.968   2.211   8.980 -0.3341 -0.5084  0.1815
   86SAPS  H16X 8270   3.065   2.256   8.951  1.3087 -2.1960  2.6437
   86SAPS  H16Y 8271   2.885   2.259   8.926  1.9419  0.9230 -2.2735
   86SAPS  C317 8272   2.981   2.068   8.939  0.0177 -0.1572 -1.0111
   86SAPS  H17X 8273   2.881   2.020   8.943  0.3867 -0.8631  0.8632
   86SAPS  H17Y 8274   3.037   2.014   9.018 -1.9438 -2.1069 -0.8628
   86SAPS  C318 8275   3.060   2.033   8.812 -0.2995  0.0432  0.0246
   86SAPS  H18X 8276   3.159   2.084   8.812  0.0391 -0.5537 -1.6304
   86SAPS  H18Y 8277   2.998   2.060   8.724  1.8669 -0.1616 -1.6268
   86SAPS  H18Z 8278   3.093   1.927   8.808  0.4015  0.2572  0.0936
   87SAPS     N 8279   3.175   2.360  11.124 -0.4733 -0.3715  0.0021
   87SAPS   HN1 8280   3.197   2.396  11.029 -0.5722 -2.7200 -0.9924
   87SAPS   HN2 8281   3.128   2.267  11.116 -2.9428  0.8585 -0.9209
   87SAPS   HN3 8282   3.107   2.422  11.172  0.1961 -0.2651  0.8356
   87SAPS   C12 8283   3.297   2.353  11.211  0.3568 -0.2241  0.7437
   87SAPS  H12A 8284   3.262   2.333  11.311  0.2334  0.9676  0.9626
   87SAPS   C13 8285   3.409   2.243  11.169  0.1505  0.3458 -0.0111
   87SAPS  O13A 8286   3.400   2.177  11.065  0.1273 -0.0530  0.2786
   87SAPS  O13B 8287   3.507   2.241  11.248  0.4144 -0.1972 -0.0819
   87SAPS   C11 8288   3.367   2.496  11.193 -0.0978  0.1291  0.5415
   87SAPS  H11A 8289   3.458   2.484  11.255  1.9978  2.6950 -1.7954
   87SAPS  H11B 8290   3.316   2.581  11.243  0.3151 -0.2064  1.5741
   87SAPS     P 8291   3.548   2.556  11.007  0.2846 -0.1330 -0.4440
   87SAPS   O13 8292   3.641   2.600  11.115 -0.0689 -0.3109  0.1285
   87SAPS   O14 8293   3.598   2.441  10.926 -0.2809 -0.0817 -0.1488
   87SAPS   O12 8294   3.405   2.522  11.056  0.4641  0.2875 -1.0374
   87SAPS   O11 8295   3.520   2.681  10.917 -0.5328 -0.7033 -0.3987
   87SAPS    C1 8296   3.403   2.688  10.830 -1.3130  0.7873  0.8360
   87SAPS    HA 8297   3.322   2.613  10.844 -1.4479  0.5754 -0.8854
   87SAPS    HB 8298   3.364   2.792  10.838 -0.9696  0.9035  1.0398
   87SAPS    C2 8299   3.447   2.649  10.680  0.3338 -0.2269 -0.5667
   87SAPS    HS 8300   3.491   2.548  10.688  0.0631 -0.4787 -1.9916
   87SAPS   O21 8301   3.532   2.752  10.637 -0.3068 -1.0959 -0.1212
   87SAPS   C21 8302   3.629   2.713  10.552  0.3545  0.5626 -0.0162
   87SAPS   O22 8303   3.638   2.604  10.502 -0.1037  0.6244 -0.1430
   87SAPS   C22 8304   3.721   2.831  10.521  0.4569 -0.1231  0.2523
   87SAPS   H2R 8305   3.784   2.857  10.609 -1.0943  0.3437  1.2639
   87SAPS   H2S 8306   3.791   2.797  10.441  0.7844  0.1824  0.4057
   87SAPS    C3 8307   3.325   2.637  10.583 -0.1867  0.1173 -0.0019
   87SAPS    HX 8308   3.263   2.729  10.586  0.5270  0.5867  1.1554
   87SAPS    HY 8309   3.255   2.563  10.626 -1.5861  0.8570 -0.9371
   87SAPS   O31 8310   3.354   2.607  10.449 -0.1161  0.0880 -0.5339
   87SAPS   C31 8311   3.365   2.479  10.420  0.2703 -1.0127 -0.2095
   87SAPS   O32 8312   3.357   2.392  10.504 -0.1186 -0.0500  0.3624
   87SAPS   C32 8313   3.380   2.455  10.274  0.3846 -0.2951  0.3964
   87SAPS   H2X 8314   3.340   2.356  10.244 -1.2567  0.0312  1.3962
   87SAPS   H2Y 8315   3.489   2.456  10.255 -0.0324  1.6665 -2.5810
   87SAPS   C23 8316   3.634   2.950  10.475 -0.2128 -0.2892 -0.0858
   87SAPS   H3R 8317   3.716   3.024  10.464 -0.9701  1.1840  2.8878
   87SAPS   H3S 8318   3.556   2.986  10.546 -2.1003  0.8074 -2.5644
   87SAPS   C24 8319   3.569   2.921  10.338  0.0489 -0.7925 -1.1348
   87SAPS   H4R 8320   3.512   2.826  10.348  2.4274 -2.3936 -1.7989
   87SAPS   H4S 8321   3.660   2.904  10.275 -0.3079 -1.2856 -1.5360
   87SAPS   C25 8322   3.474   3.032  10.286 -0.4949 -0.6364 -0.5268
   87SAPS   H5R 8323   3.391   3.060  10.352 -1.1030  0.5816 -1.7607
   87SAPS   C26 8324   3.479   3.099  10.175  0.3969 -0.2568  0.4730
   87SAPS   H6R 8325   3.409   3.179  10.148  0.5535 -0.2026  0.2206
   87SAPS   C27 8326   3.582   3.092  10.071  0.0743  0.0123 -0.4750
   87SAPS   H7R 8327   3.561   3.175  10.000 -3.5079  0.4025  0.8668
   87SAPS   H7S 8328   3.577   3.001  10.007 -0.1766  1.1658 -2.1774
   87SAPS   C28 8329   3.724   3.103  10.118  0.1020 -0.2164  0.0513
   87SAPS   H8R 8330   3.743   3.120  10.225  0.1816  2.6368 -0.3240
   87SAPS   C29 8331   3.830   3.083  10.037  0.0009 -0.0092  0.6882
   87SAPS   H9R 8332   3.932   3.096  10.077  0.3669 -0.4328 -0.0790
   87SAPS  C210 8333   3.817   3.056   9.893 -0.3811 -0.1669 -0.0843
   87SAPS  H10R 8334   3.740   2.978   9.874  0.1450 -0.9576  0.9448
   87SAPS  H10S 8335   3.913   3.015   9.853 -0.9374 -0.7699 -0.8400
   87SAPS  C211 8336   3.781   3.173   9.801  0.3858  0.8441 -0.1753
   87SAPS  H11R 8337   3.683   3.222   9.811  0.7637  1.9113 -1.3568
   87SAPS  C212 8338   3.863   3.230   9.707  0.6307  0.6695 -0.6247
   87SAPS  H12R 8339   3.829   3.321   9.655 -0.9655 -0.2414 -1.2530
   87SAPS  C213 8340   4.005   3.190   9.681  0.3370  0.3609  0.4748
   87SAPS  H13R 8341   4.046   3.150   9.776 -1.3135 -3.3055 -0.1748
   87SAPS  H13S 8342   4.054   3.287   9.658  1.6819 -0.2319  0.7742
   87SAPS  C214 8343   4.017   3.096   9.562  0.0293 -0.1917  0.0055
   87SAPS  H14R 8344   4.058   3.000   9.598 -0.4059  0.7129  3.1729
   87SAPS  C215 8345   3.995   3.121   9.429 -0.4910 -0.0901  0.6672
   87SAPS  H15R 8346   4.032   3.052   9.352  0.4265  2.1866 -1.0703
   87SAPS  C216 8347   3.953   3.253   9.370 -0.0293  0.1368  0.1158
   87SAPS  H16R 8348   4.000   3.272   9.272 -0.4182  2.5364  0.3397
   87SAPS  H16S 8349   3.996   3.341   9.422 -0.6638  1.3893 -1.4174
   87SAPS  C217 8350   3.798   3.282   9.346 -0.0576  0.2022 -0.4314
   87SAPS  H17R 8351   3.749   3.274   9.445  0.3767 -1.4987 -0.3178
   87SAPS  H17S 8352   3.750   3.199   9.290 -1.1408  0.6514 -0.1845
   87SAPS  C218 8353   3.760   3.422   9.282  0.6314 -0.5985  0.5036
   87SAPS  H18R 8354   3.827   3.495   9.333 -1.1131  0.6738  1.1056
   87SAPS  H18S 8355   3.656   3.449   9.312 -0.4616  0.7166 -3.8237
   87SAPS  C219 8356   3.767   3.433   9.122  0.1480 -0.5779  0.1132
   87SAPS  H19R 8357   3.702   3.346   9.100  2.1454 -2.0646 -0.1748
   87SAPS  H19S 8358   3.869   3.429   9.077  0.3114  3.2638 -0.1877
   87SAPS  C220 8359   3.717   3.567   9.068 -0.0462  0.1147  0.3176
   87SAPS  H20R 8360   3.703   3.559   8.958  0.7370 -1.6729  0.3238
   87SAPS  H20S 8361   3.789   3.646   9.098  0.0473  0.9152 -1.8492
   87SAPS  H20T 8362   3.619   3.590   9.117  0.3054 -0.3512  1.2532
   87SAPS   C33 8363   3.325   2.565  10.184  0.4741 -0.1630  0.2933
   87SAPS   H3X 8364   3.360   2.669  10.206 -0.6448  0.7355 -1.8792
   87SAPS   H3Y 8365   3.217   2.576  10.207  0.2503 -2.0524  0.2358
   87SAPS   C34 8366   3.358   2.546  10.033  0.4159 -1.0032  0.3703
   87SAPS   H4X 8367   3.279   2.609   9.987  1.8317  1.4474  1.1259
   87SAPS   H4Y 8368   3.344   2.438  10.012 -0.2696 -0.7780 -0.3792
   87SAPS   C35 8369   3.494   2.596   9.987  0.2233 -0.0779  0.7752
   87SAPS   H5X 8370   3.580   2.557  10.045 -0.2833 -0.8303  1.0288
   87SAPS   H5Y 8371   3.490   2.705  10.012 -0.4302  0.3778 -1.1675
   87SAPS   C36 8372   3.513   2.594   9.833  0.1167  0.7708 -0.0236
   87SAPS   H6X 8373   3.424   2.647   9.794 -0.4677  0.3389  0.6834
   87SAPS   H6Y 8374   3.503   2.489   9.796 -0.5750  0.5504  0.7464
   87SAPS   C37 8375   3.639   2.666   9.794  0.1336 -0.8833  0.7209
   87SAPS   H7X 8376   3.718   2.600   9.835 -0.4430 -4.8420 -3.6669
   87SAPS   H7Y 8377   3.645   2.766   9.842  1.1715  0.5788 -2.1799
   87SAPS   C38 8378   3.657   2.685   9.642  0.2088 -0.2439  0.1281
   87SAPS   H8X 8379   3.569   2.748   9.615 -2.2546 -2.0396  3.3343
   87SAPS   H8Y 8380   3.643   2.589   9.589  0.9082 -0.7844  0.8997
   87SAPS   C39 8381   3.790   2.737   9.583 -0.5264 -0.1338  0.5575
   87SAPS   H9X 8382   3.849   2.653   9.541 -1.0177 -0.2594  0.1051
   87SAPS   H9Y 8383   3.852   2.782   9.663  0.4042  3.0160 -1.7536
   87SAPS  C310 8384   3.759   2.830   9.471 -0.0675  0.2436 -0.0775
   87SAPS  H10X 8385   3.856   2.874   9.438  0.0220 -0.4730 -0.7774
   87SAPS  H10Y 8386   3.695   2.911   9.514 -0.9502 -0.8015  0.6240
   87SAPS  C311 8387   3.686   2.766   9.346 -0.3429 -0.9849 -0.5019
   87SAPS  H11X 8388   3.579   2.792   9.351 -0.3417 -0.3536 -2.6391
   87SAPS  H11Y 8389   3.695   2.655   9.338  1.7149 -0.9724  0.7555
   87SAPS  C312 8390   3.727   2.845   9.230  0.3161 -0.2693  0.3749
   87SAPS  H12X 8391   3.832   2.817   9.209  0.2429  0.4443 -1.0662
   87SAPS  H12Y 8392   3.733   2.953   9.254  1.2004 -0.1426 -0.3976
   87SAPS  C313 8393   3.645   2.834   9.101  0.0344 -0.4986  0.3206
   87SAPS  H13X 8394   3.540   2.859   9.125 -0.5203 -1.2074 -1.2804
   87SAPS  H13Y 8395   3.655   2.726   9.076  0.5571 -0.5752  0.8317
   87SAPS  C314 8396   3.698   2.923   8.987 -0.5134 -0.4085 -0.9946
   87SAPS  H14X 8397   3.808   2.931   8.979 -0.5928  1.9307 -0.5776
   87SAPS  H14Y 8398   3.654   3.023   9.006 -2.0684 -0.8198 -2.2649
   87SAPS  C315 8399   3.660   2.878   8.847  0.0007 -0.4369 -1.2777
   87SAPS  H15X 8400   3.551   2.873   8.828 -0.2191  0.8529 -0.4918
   87SAPS  H15Y 8401   3.685   2.770   8.850  0.1685 -0.3795 -0.4277
   87SAPS  C316 8402   3.742   2.955   8.742  0.4774 -0.0767 -0.2612
   87SAPS  H16X 8403   3.728   2.902   8.645 -0.8450  0.2262 -0.2532
   87SAPS  H16Y 8404   3.849   2.960   8.771  0.0756  1.0096  1.1449
   87SAPS  C317 8405   3.709   3.103   8.740 -0.3096 -0.0673 -0.1976
   87SAPS  H17X 8406   3.726   3.141   8.843 -2.5585  0.3221  0.0743
   87SAPS  H17Y 8407   3.600   3.104   8.717 -0.5547 -0.4456  0.8571
   87SAPS  C318 8408   3.797   3.178   8.638 -0.2157  0.0049  0.3357
   87SAPS  H18X 8409   3.902   3.183   8.673  0.0251  1.1413 -0.5008
   87SAPS  H18Y 8410   3.769   3.285   8.631  2.1483  0.7677  1.3709
   87SAPS  H18Z 8411   3.805   3.132   8.537  1.3202  1.1005 -0.0797
   88SAPS     N 8412   5.864   0.938  11.249 -0.4429 -0.1921 -0.0861
   88SAPS   HN1 8413   5.915   0.931  11.159  1.3759 -0.2425  0.9175
   88SAPS   HN2 8414   5.911   1.021  11.289  1.4313 -0.8920 -0.7468
   88SAPS   HN3 8415   5.899   0.858  11.305  0.2022  0.3427  0.2774
   88SAPS   C12 8416   5.715   0.935  11.225 -0.4489 -0.1897 -0.0933
   88SAPS  H12A 8417   5.694   0.837  11.186 -1.3941  0.4233 -1.1808
   88SAPS   C13 8418   5.642   0.967  11.359  0.5826  0.9442  0.5159
   88SAPS  O13A 8419   5.702   0.965  11.472  0.0857 -0.3657 -0.1649
   88SAPS  O13B 8420   5.524   1.010  11.345 -0.3314  0.1177 -0.0366
   88SAPS   C11 8421   5.676   1.037  11.117  0.1460 -0.3012 -0.0403
   88SAPS  H11A 8422   5.701   1.138  11.156  0.4949 -0.5683  0.4418
   88SAPS  H11B 8423   5.568   1.032  11.095 -0.1932  3.0501  0.3748
   88SAPS     P 8424   5.703   0.900  10.890  0.0979 -0.0533  0.0792
   88SAPS   O13 8425   5.692   0.772  10.961  0.0265 -0.3259 -0.7715
   88SAPS   O14 8426   5.582   0.942  10.818  0.0077  0.1982 -0.3638
   88SAPS   O12 8427   5.740   1.007  10.994 -0.1334 -0.1677  0.4570
   88SAPS   O11 8428   5.819   0.890  10.788 -0.0596 -0.2480 -0.3867
   88SAPS    C1 8429   5.926   0.980  10.772 -0.0156  1.0482 -0.4646
   88SAPS    HA 8430   5.915   1.066  10.842  1.6157  0.6075  0.3886
   88SAPS    HB 8431   6.019   0.924  10.794 -0.2905  0.4041 -0.9157
   88SAPS    C2 8432   5.944   1.039  10.627 -0.7339  0.2712  0.2243
   88SAPS    HS 8433   6.031   1.107  10.629 -1.0261  0.8849 -2.8123
   88SAPS   O21 8434   5.823   1.098  10.577  0.0651 -0.2670  0.5328
   88SAPS   C21 8435   5.811   1.223  10.623 -0.0571 -0.9838 -0.1539
   88SAPS   O22 8436   5.883   1.277  10.709 -0.1988 -0.0186  0.3150
   88SAPS   C22 8437   5.687   1.287  10.555  0.4333  0.1958 -0.1317
   88SAPS   H2R 8438   5.590   1.252  10.597  0.6996 -0.2155  0.1471
   88SAPS   H2S 8439   5.683   1.393  10.588 -3.9272  0.5005 -1.0033
   88SAPS    C3 8440   5.995   0.932  10.528 -0.1142 -0.3289 -0.3944
   88SAPS    HX 8441   5.902   0.876  10.505 -0.2293 -0.6028  0.6921
   88SAPS    HY 8442   6.073   0.867  10.573 -0.2335 -0.3645 -0.2411
   88SAPS   O31 8443   6.057   1.005  10.416 -0.4055  0.0907  0.2751
   88SAPS   C31 8444   5.984   1.030  10.310  0.5798 -0.2055 -0.5199
   88SAPS   O32 8445   5.872   0.992  10.282  0.1575 -0.0466 -0.7929
   88SAPS   C32 8446   6.069   1.124  10.216  0.8436  0.2389 -0.6020
   88SAPS   H2X 8447   6.162   1.068  10.193 -0.2312 -1.6966 -0.4271
   88SAPS   H2Y 8448   6.080   1.215  10.279  1.5964 -0.4505  0.2772
   88SAPS   C23 8449   5.697   1.287  10.397 -0.0301  0.0006  0.2171
   88SAPS   H3R 8450   5.599   1.253  10.358 -0.4085 -0.7970  1.7811
   88SAPS   H3S 8451   5.781   1.225  10.357 -0.3750  0.8131 -1.8810
   88SAPS   C24 8452   5.726   1.419  10.329 -0.8650  0.3543  0.4211
   88SAPS   H4R 8453   5.809   1.468  10.384 -0.2916  0.4446 -0.5056
   88SAPS   H4S 8454   5.639   1.486  10.345 -2.4278 -1.4112 -0.2073
   88SAPS   C25 8455   5.752   1.411  10.185  0.6133  0.0323  0.2438
   88SAPS   H5R 8456   5.852   1.450  10.161  0.7635 -0.0694  0.6963
   88SAPS   C26 8457   5.664   1.370  10.090 -0.2155  0.8983  0.3534
   88SAPS   H6R 8458   5.697   1.369   9.986 -0.7148 -1.1554  0.1785
   88SAPS   C27 8459   5.521   1.327  10.118  0.5834  0.1578  0.7010
   88SAPS   H7R 8460   5.465   1.378  10.037 -1.9350  1.2268  2.9681
   88SAPS   H7S 8461   5.473   1.360  10.213  1.4714 -3.4893  2.6227
   88SAPS   C28 8462   5.492   1.179  10.103  1.3243 -0.8304  0.6202
   88SAPS   H8R 8463   5.549   1.129  10.182  1.8741  1.2295  1.5954
   88SAPS   C29 8464   5.391   1.117  10.033 -0.2806  0.0184 -0.0512
   88SAPS   H9R 8465   5.375   1.009  10.028  1.4087 -0.2327 -2.7702
   88SAPS  C210 8466   5.298   1.184   9.935 -0.3236 -0.8878 -1.0219
   88SAPS  H10R 8467   5.312   1.291   9.908 -3.8015  0.4777  1.7609
   88SAPS  H10S 8468   5.203   1.192   9.992 -0.4857  1.4973 -1.5372
   88SAPS  C211 8469   5.289   1.103   9.813  0.5548  0.1251 -0.3076
   88SAPS  H11R 8470   5.260   0.997   9.826  2.1947 -0.4216 -0.8764
   88SAPS  C212 8471   5.306   1.153   9.690  0.0318 -0.6569 -0.6252
   88SAPS  H12R 8472   5.292   1.092   9.600  1.6090 -2.7679  0.4650
   88SAPS  C213 8473   5.343   1.301   9.651  0.2792 -0.5414 -0.0496
   88SAPS  H13R 8474   5.436   1.307   9.591 -0.5772 -0.6548 -1.4441
   88SAPS  H13S 8475   5.369   1.367   9.736  1.0637  0.5218 -1.0771
   88SAPS  C214 8476   5.233   1.359   9.566 -0.7033 -0.0309 -0.5922
   88SAPS  H14R 8477   5.172   1.427   9.627  0.6273 -0.5757  1.4726
   88SAPS  C215 8478   5.210   1.343   9.441  0.2201  0.6153  0.8563
   88SAPS  H15R 8479   5.121   1.385   9.392  0.9811 -2.1008 -3.3280
   88SAPS  C216 8480   5.286   1.255   9.343  0.4549 -0.2085  0.3064
   88SAPS  H16R 8481   5.368   1.205   9.399  1.3819  1.0044  0.0812
   88SAPS  H16S 8482   5.334   1.320   9.267 -2.8405  1.6131 -0.3904
   88SAPS  C217 8483   5.208   1.151   9.261 -0.7335 -0.3679  0.1792
   88SAPS  H17R 8484   5.149   1.201   9.181  1.4879 -0.0534 -1.3598
   88SAPS  H17S 8485   5.130   1.098   9.320 -1.7032  1.8165  0.9697
   88SAPS  C218 8486   5.290   1.047   9.193  0.4467  0.1238 -0.1362
   88SAPS  H18R 8487   5.359   0.998   9.265  0.3639  0.7368  0.3633
   88SAPS  H18S 8488   5.356   1.100   9.122 -0.8241  2.3396  0.2490
   88SAPS  C219 8489   5.209   0.940   9.124  0.6470 -0.2521  0.2157
   88SAPS  H19R 8490   5.150   0.988   9.042 -0.6121 -0.3890  1.0257
   88SAPS  H19S 8491   5.137   0.885   9.188 -1.0582 -0.0144 -1.3982
   88SAPS  C220 8492   5.296   0.831   9.053  0.1133 -0.3672  0.2757
   88SAPS  H20R 8493   5.352   0.874   8.967  1.9632 -2.1671  0.4753
   88SAPS  H20S 8494   5.228   0.749   9.020 -2.1152 -0.0164  3.4673
   88SAPS  H20T 8495   5.381   0.792   9.113  0.6920 -2.3345 -1.6983
   88SAPS   C33 8496   5.993   1.152  10.085  0.2923  0.3699  0.7303
   88SAPS   H3X 8497   6.052   1.227  10.028 -0.8967  0.6906 -0.1147
   88SAPS   H3Y 8498   5.888   1.187  10.089 -0.3580 -1.5108  1.0587
   88SAPS   C34 8499   6.004   1.033   9.982  0.4634 -0.4300  0.3847
   88SAPS   H4X 8500   5.945   0.953  10.031  0.8305 -0.2763  1.0904
   88SAPS   H4Y 8501   6.104   0.984   9.982  0.7406  0.1226  0.3180
   88SAPS   C35 8502   5.952   1.061   9.836  0.9128 -0.9159  0.3091
   88SAPS   H5X 8503   5.979   0.977   9.768 -1.2448  0.7621 -2.8686
   88SAPS   H5Y 8504   6.009   1.138   9.781  0.4683 -0.8076 -0.0041
   88SAPS   C36 8505   5.800   1.061   9.825 -0.2317  0.1723  0.2520
   88SAPS   H6X 8506   5.766   1.126   9.909  1.3203 -0.5363  1.4617
   88SAPS   H6Y 8507   5.752   0.961   9.822  0.7195 -0.2980  0.5011
   88SAPS   C37 8508   5.737   1.135   9.699 -0.1072 -0.2170  0.1917
   88SAPS   H7X 8509   5.779   1.236   9.684 -0.4146 -0.1965 -0.5790
   88SAPS   H7Y 8510   5.626   1.139   9.702 -0.0672  3.1904  0.1323
   88SAPS   C38 8511   5.768   1.056   9.575 -0.3986  0.3117 -0.4162
   88SAPS   H8X 8512   5.717   0.957   9.565 -1.8426  1.0257 -0.3516
   88SAPS   H8Y 8513   5.876   1.035   9.563 -0.4858 -0.4302 -0.0008
   88SAPS   C39 8514   5.718   1.129   9.447  0.5238  0.0057 -0.2286
   88SAPS   H9X 8515   5.779   1.218   9.420 -0.9973  2.2497  2.9520
   88SAPS   H9Y 8516   5.615   1.165   9.467 -0.1526 -0.5849 -2.3740
   88SAPS  C310 8517   5.717   1.039   9.329  0.3143  0.4255 -0.4352
   88SAPS  H10X 8518   5.650   0.952   9.347 -0.9972  1.8420  2.0649
   88SAPS  H10Y 8519   5.818   0.996   9.312  0.1769  0.9022 -2.9313
   88SAPS  C311 8520   5.682   1.107   9.195 -0.6733  0.1602 -0.0599
   88SAPS  H11X 8521   5.763   1.181   9.177 -0.5285 -0.0601 -0.3285
   88SAPS  H11Y 8522   5.588   1.166   9.204 -1.2693 -0.2434 -2.7419
   88SAPS  C312 8523   5.680   1.014   9.071 -0.9563  0.5996  0.5991
   88SAPS  H12X 8524   5.615   0.928   9.096 -2.6515  1.9931  1.2432
   88SAPS  H12Y 8525   5.780   0.971   9.049 -1.1192  0.3056  0.4260
   88SAPS  C313 8526   5.629   1.088   8.954  0.0807  0.0478  0.2037
   88SAPS  H13X 8527   5.701   1.163   8.914  0.8764 -1.2523 -0.8963
   88SAPS  H13Y 8528   5.534   1.133   8.989  0.0467 -0.2610  0.5179
   88SAPS  C314 8529   5.579   1.000   8.833 -0.1304 -0.0400 -0.0858
   88SAPS  H14X 8530   5.533   0.906   8.871  2.8894 -2.2910 -1.5994
   88SAPS  H14Y 8531   5.669   0.976   8.773  0.2880  0.6344  0.2550
   88SAPS  C315 8532   5.479   1.073   8.735  0.2026 -0.0633 -0.8342
   88SAPS  H15X 8533   5.543   1.154   8.694  1.6540 -0.3764  0.7171
   88SAPS  H15Y 8534   5.391   1.096   8.799  0.6257  0.1516 -0.3246
   88SAPS  C316 8535   5.419   0.989   8.623  0.1314 -0.3009 -0.3337
   88SAPS  H16X 8536   5.487   0.949   8.545  1.9528 -0.4950  1.2979
   88SAPS  H16Y 8537   5.345   1.048   8.564 -2.5426 -3.3019 -0.2559
   88SAPS  C317 8538   5.334   0.872   8.676 -0.4039 -0.4810 -1.0244
   88SAPS  H17X 8539   5.268   0.918   8.753  2.0288  1.0756  0.2709
   88SAPS  H17Y 8540   5.391   0.789   8.723 -2.3912 -2.6924 -2.2920
   88SAPS  C318 8541   5.254   0.804   8.558 -0.3941 -0.4367 -0.1505
   88SAPS  H18X 8542   5.230   0.703   8.598 -0.9066 -0.5353 -0.6926
   88SAPS  H18Y 8543   5.322   0.793   8.471 -1.8307  0.9727 -1.5326
   88SAPS  H18Z 8544   5.159   0.857   8.536 -1.4501 -1.8991  0.7091
   89SAPS     N 8545   5.682   2.981  10.739  0.4353 -0.2904  0.0464
   89SAPS   HN1 8546   5.761   3.049  10.737  0.4497 -0.1896  1.9995
   89SAPS   HN2 8547   5.710   2.881  10.724  3.0886  0.2103  1.1133
   89SAPS   HN3 8548   5.603   3.018  10.682 -0.1592  0.3505  1.2411
   89SAPS   C12 8549   5.624   2.983  10.875 -0.5971 -0.4515  0.1580
   89SAPS  H12A 8550   5.524   2.941  10.868 -2.2440  2.8331  1.7001
   89SAPS   C13 8551   5.707   2.916  10.991 -0.1924 -0.0151  0.9038
   89SAPS  O13A 8552   5.813   2.853  10.965 -0.0103 -0.0064  0.3329
   89SAPS  O13B 8553   5.647   2.894  11.099 -0.3925 -0.6546  0.0233
   89SAPS   C11 8554   5.612   3.139  10.912  0.7754 -0.0043  0.6563
   89SAPS  H11A 8555   5.710   3.175  10.951  0.6967 -0.1255  0.9731
   89SAPS  H11B 8556   5.546   3.141  11.001 -1.1398  1.1645 -0.7365
   89SAPS     P 8557   5.484   3.344  10.806 -0.1938 -0.1382 -0.1499
   89SAPS   O13 8558   5.360   3.300  10.869 -0.2421 -0.6316  0.1855
   89SAPS   O14 8559   5.551   3.448  10.889 -0.6190  0.2107 -0.3649
   89SAPS   O12 8560   5.573   3.223  10.802  0.0800  0.5375 -0.3553
   89SAPS   O11 8561   5.459   3.394  10.659  0.0526 -0.1939 -0.1693
   89SAPS    C1 8562   5.570   3.461  10.593 -0.0170 -0.0454  0.7296
   89SAPS    HA 8563   5.662   3.463  10.655  1.2961 -0.9780 -1.0925
   89SAPS    HB 8564   5.596   3.394  10.509 -0.3399 -0.0500  0.6314
   89SAPS    C2 8565   5.530   3.606  10.542 -0.0127 -0.1723 -0.1598
   89SAPS    HS 8566   5.486   3.664  10.626  0.1254 -0.2743 -0.0191
   89SAPS   O21 8567   5.438   3.588  10.429  0.5216  0.0449 -0.4504
   89SAPS   C21 8568   5.375   3.706  10.415  0.6943 -0.4490  0.1803
   89SAPS   O22 8569   5.368   3.799  10.489  0.1926  0.2196 -0.7800
   89SAPS   C22 8570   5.306   3.703  10.273  0.1372 -0.1402 -0.0491
   89SAPS   H2R 8571   5.389   3.694  10.199  0.8763  1.4365  0.5364
   89SAPS   H2S 8572   5.233   3.619  10.265  0.5436 -0.4616 -0.4843
   89SAPS    C3 8573   5.655   3.692  10.498 -0.7584  0.7407  0.3966
   89SAPS    HX 8574   5.706   3.698  10.597 -2.6825 -1.3380  1.5992
   89SAPS    HY 8575   5.621   3.795  10.474  0.1698  0.8723 -0.4618
   89SAPS   O31 8576   5.736   3.620  10.406  0.1647 -0.9469  0.1451
   89SAPS   C31 8577   5.726   3.650  10.280 -0.3195 -0.5776  0.8680
   89SAPS   O32 8578   5.651   3.735  10.235  0.4322 -0.4004  0.7653
   89SAPS   C32 8579   5.819   3.552  10.199 -0.0378  0.0767 -0.4017
   89SAPS   H2X 8580   5.798   3.456  10.251 -0.1770  0.7826  0.8886
   89SAPS   H2Y 8581   5.925   3.584  10.215  0.2338 -0.1438 -1.7053
   89SAPS   C23 8582   5.222   3.834  10.241 -0.2071  0.5576  0.1799
   89SAPS   H3R 8583   5.290   3.922  10.243  1.4542 -0.6210 -1.2336
   89SAPS   H3S 8584   5.137   3.831  10.312 -1.9701  0.8372 -1.8057
   89SAPS   C24 8585   5.178   3.841  10.090 -0.2882  0.1402 -0.3947
   89SAPS   H4R 8586   5.265   3.818  10.024  1.4083 -0.1963  1.8534
   89SAPS   H4S 8587   5.161   3.950  10.073  1.0607  0.5159  0.4492
   89SAPS   C25 8588   5.058   3.750  10.072  1.0320 -0.3973 -0.1120
   89SAPS   H5R 8589   4.973   3.774  10.138 -0.2890  0.7472 -2.1041
   89SAPS   C26 8590   5.039   3.649   9.982 -0.0451 -0.5691  0.3231
   89SAPS   H6R 8591   4.936   3.609   9.976 -0.0365 -0.5883  0.3060
   89SAPS   C27 8592   5.132   3.602   9.869 -0.0907 -0.3835  0.0485
   89SAPS   H7R 8593   5.104   3.502   9.830  2.4860 -0.7961 -0.9645
   89SAPS   H7S 8594   5.231   3.579   9.913 -0.1608 -2.7884 -0.8868
   89SAPS   C28 8595   5.137   3.693   9.759 -0.7629 -0.5077 -0.6475
   89SAPS   H8R 8596   5.083   3.789   9.767  2.1440  1.1433  0.4778
   89SAPS   C29 8597   5.203   3.676   9.649  0.3137  0.0899  0.1444
   89SAPS   H9R 8598   5.179   3.745   9.567 -0.8951 -1.6033 -0.9927
   89SAPS  C210 8599   5.294   3.561   9.609  0.3666  0.0000  0.0587
   89SAPS  H10R 8600   5.285   3.542   9.500  1.3227  0.1332 -0.0520
   89SAPS  H10S 8601   5.269   3.465   9.659  0.7861  0.9274  2.1268
   89SAPS  C211 8602   5.443   3.578   9.638 -0.1857  0.3108 -0.1070
   89SAPS  H11R 8603   5.453   3.599   9.745 -0.2532  2.0601 -0.4195
   89SAPS  C212 8604   5.542   3.569   9.549  0.3387  0.7769 -0.0525
   89SAPS  H12R 8605   5.648   3.582   9.576  0.3096  2.8871 -0.7749
   89SAPS  C213 8606   5.533   3.541   9.396 -0.3987  0.0655 -0.2077
   89SAPS  H13R 8607   5.461   3.459   9.375  1.1580 -0.8053 -2.5483
   89SAPS  H13S 8608   5.634   3.520   9.355  0.2995  1.5209  0.6978
   89SAPS  C214 8609   5.491   3.665   9.322  0.3183 -0.1589  0.2942
   89SAPS  H14R 8610   5.554   3.754   9.337  0.8118 -0.5186  0.3806
   89SAPS  C215 8611   5.375   3.678   9.254 -0.3395 -0.5768  0.1604
   89SAPS  H15R 8612   5.353   3.783   9.228  0.5004  0.0701  1.9140
   89SAPS  C216 8613   5.269   3.579   9.208  0.7996 -0.1922  0.4183
   89SAPS  H16R 8614   5.164   3.584   9.241  0.2766 -2.5808 -0.6366
   89SAPS  H16S 8615   5.301   3.480   9.249  0.5017 -1.1921 -1.6354
   89SAPS  C217 8616   5.261   3.561   9.051  0.6946 -1.0411 -0.3912
   89SAPS  H17R 8617   5.237   3.666   9.021  0.1413 -0.8527  0.6791
   89SAPS  H17S 8618   5.165   3.507   9.043 -0.4843  0.7707  0.8561
   89SAPS  C218 8619   5.376   3.495   8.992  0.1290  0.5869  0.8878
   89SAPS  H18R 8620   5.393   3.396   9.040 -1.6198 -0.6431 -0.8333
   89SAPS  H18S 8621   5.474   3.541   9.017  0.8264  0.0580 -0.7181
   89SAPS  C219 8622   5.378   3.469   8.840  0.6160 -0.8311  0.3091
   89SAPS  H19R 8623   5.298   3.402   8.801  0.7735 -0.3357 -0.9035
   89SAPS  H19S 8624   5.462   3.399   8.822  2.4794  0.9692  1.5131
   89SAPS  C220 8625   5.371   3.594   8.748 -0.0741 -0.1677 -0.0766
   89SAPS  H20R 8626   5.434   3.677   8.788  0.7980 -0.4463 -0.8294
   89SAPS  H20S 8627   5.267   3.633   8.745  0.6387  1.8951  0.3272
   89SAPS  H20T 8628   5.401   3.572   8.643 -1.9797  1.5789 -1.0767
   89SAPS   C33 8629   5.778   3.549  10.053  0.4092 -0.0969  0.3969
   89SAPS   H3X 8630   5.777   3.655  10.019 -0.0445  0.3958  1.8939
   89SAPS   H3Y 8631   5.678   3.503  10.038  0.6473  0.2145 -3.0286
   89SAPS   C34 8632   5.890   3.476   9.976 -0.0025 -0.4857  0.1134
   89SAPS   H4X 8633   5.877   3.367   9.994  0.2828 -0.4724  0.4146
   89SAPS   H4Y 8634   5.988   3.514  10.011  1.3789 -2.4046 -1.4189
   89SAPS   C35 8635   5.884   3.495   9.820  0.2558  0.0592 -1.3314
   89SAPS   H5X 8636   5.919   3.598   9.796  1.9765 -0.7561 -2.5168
   89SAPS   H5Y 8637   5.779   3.492   9.784 -1.9987 -0.2453  4.2617
   89SAPS   C36 8638   5.981   3.393   9.755  0.7784  0.4033 -0.0513
   89SAPS   H6X 8639   5.974   3.297   9.811 -0.2748  0.9036  0.7132
   89SAPS   H6Y 8640   6.080   3.435   9.781  0.5123  2.2180 -1.6946
   89SAPS   C37 8641   5.980   3.396   9.607 -1.1259  0.4817 -0.1114
   89SAPS   H7X 8642   6.065   3.336   9.568 -1.7765  1.3233 -3.0566
   89SAPS   H7Y 8643   5.993   3.502   9.574 -0.4694  0.5769  0.4355
   89SAPS   C38 8644   5.855   3.332   9.551 -0.3974 -0.2340 -0.6421
   89SAPS   H8X 8645   5.767   3.383   9.596 -0.5362 -0.5116 -0.5920
   89SAPS   H8Y 8646   5.858   3.227   9.588  0.5895  0.7764  2.4918
   89SAPS   C39 8647   5.844   3.348   9.396  0.0984 -0.9333  0.8039
   89SAPS   H9X 8648   5.943   3.335   9.348 -0.9385 -2.8062 -1.0216
   89SAPS   H9Y 8649   5.812   3.452   9.377  0.6452 -1.1761 -1.9009
   89SAPS  C310 8650   5.748   3.231   9.343  0.2596 -0.2674 -0.0122
   89SAPS  H10X 8651   5.652   3.247   9.397  0.4960  0.2983  0.2583
   89SAPS  H10Y 8652   5.789   3.135   9.379 -1.8566 -1.4562 -0.6142
   89SAPS  C311 8653   5.737   3.236   9.185  0.3981 -0.7344  0.3312
   89SAPS  H11X 8654   5.831   3.253   9.129 -0.1612  0.7616 -0.2013
   89SAPS  H11Y 8655   5.682   3.330   9.164 -0.6460 -1.1537  1.0966
   89SAPS  C312 8656   5.681   3.103   9.135  0.1323  0.5243  0.0766
   89SAPS  H12X 8657   5.578   3.083   9.173 -0.1636 -0.0328 -0.9671
   89SAPS  H12Y 8658   5.751   3.027   9.173 -0.7139 -0.3143 -0.0078
   89SAPS  C313 8659   5.674   3.091   8.984  0.6838 -0.2382  0.0182
   89SAPS  H13X 8660   5.770   3.106   8.929  0.6364 -3.0046 -0.9806
   89SAPS  H13Y 8661   5.595   3.158   8.945  0.9075  0.2693  0.4252
   89SAPS  C314 8662   5.640   2.953   8.934 -0.0884  0.3265 -0.3289
   89SAPS  H14X 8663   5.547   2.917   8.984  1.0091 -0.5561  1.1641
   89SAPS  H14Y 8664   5.725   2.884   8.954  0.5356  1.6793  1.9877
   89SAPS  C315 8665   5.623   2.936   8.783 -0.2921 -0.6555 -0.4603
   89SAPS  H15X 8666   5.577   2.837   8.764 -1.0071 -1.1384  3.0449
   89SAPS  H15Y 8667   5.726   2.948   8.743 -0.5040  1.6837 -0.4269
   89SAPS  C316 8668   5.525   3.039   8.711 -0.5995  0.0696  0.3650
   89SAPS  H16X 8669   5.570   3.140   8.727  0.8184  0.3130 -4.0243
   89SAPS  H16Y 8670   5.423   3.054   8.755 -0.8809  2.6899 -0.9953
   89SAPS  C317 8671   5.509   2.994   8.564  0.2408  0.8327  0.2294
   89SAPS  H17X 8672   5.436   2.911   8.558 -2.5162  3.1931 -2.3657
   89SAPS  H17Y 8673   5.606   2.954   8.526  0.7669  1.1121  1.2572
   89SAPS  C318 8674   5.463   3.107   8.468  0.2952  0.5672  0.1427
   89SAPS  H18X 8675   5.438   3.074   8.365 -1.1287 -1.7808  1.1674
   89SAPS  H18Y 8676   5.543   3.182   8.448  2.0706 -1.3279 -0.2023
   89SAPS  H18Z 8677   5.368   3.150   8.504 -1.3812 -1.9916 -0.9429
   90SAPS     N 8678   5.973   4.585  10.920  0.0508  0.2527  0.0054
   90SAPS   HN1 8679   5.926   4.522  10.988  0.4874 -0.9109 -0.7237
   90SAPS   HN2 8680   5.902   4.599  10.845 -1.4738  1.5393  1.6245
   90SAPS   HN3 8681   6.060   4.542  10.883  1.5607  3.7113 -0.8667
   90SAPS   C12 8682   6.024   4.710  10.977  0.2264 -0.2716  0.0933
   90SAPS  H12A 8683   5.938   4.763  11.017 -0.0757  0.6757 -1.7016
   90SAPS   C13 8684   6.135   4.706  11.085 -0.2298 -0.6399 -0.1642
   90SAPS  O13A 8685   6.184   4.593  11.116  0.0551  0.0683  0.7070
   90SAPS  O13B 8686   6.187   4.812  11.130  0.1744  0.3743  0.1426
   90SAPS   C11 8687   6.075   4.792  10.857  0.0512  0.2906  0.4912
   90SAPS  H11A 8688   6.179   4.762  10.831  0.0436  0.5780  0.1045
   90SAPS  H11B 8689   6.095   4.895  10.893  1.9998  0.1294 -0.0393
   90SAPS     P 8690   5.926   4.916  10.675  0.4618 -0.1793 -0.0458
   90SAPS   O13 8691   5.929   4.896  10.534  0.0587 -0.1619 -0.2670
   90SAPS   O14 8692   5.793   4.940  10.736  0.1152  0.3658 -0.3178
   90SAPS   O12 8693   5.988   4.783  10.745  0.1741 -0.1789  0.0768
   90SAPS   O11 8694   6.024   5.038  10.715  0.4841 -0.7479  0.4252
   90SAPS    C1 8695   6.158   5.038  10.665 -0.7604  0.2612  0.6934
   90SAPS    HA 8696   6.231   5.064  10.744 -0.8260 -0.3480  0.9632
   90SAPS    HB 8697   6.185   4.935  10.632 -4.1837 -0.7032  0.4956
   90SAPS    C2 8698   6.182   5.139  10.545  0.6880  0.8458 -0.3466
   90SAPS    HS 8699   6.117   5.227  10.563 -1.3391 -0.7530  0.6158
   90SAPS   O21 8700   6.161   5.059  10.426 -0.2787  0.4874  0.4979
   90SAPS   C21 8701   6.060   5.091  10.346 -0.1695 -0.5306  0.8090
   90SAPS   O22 8702   5.992   5.193  10.354  0.6274 -0.1811  0.4377
   90SAPS   C22 8703   6.044   4.980  10.245 -0.2873  0.0053  0.5488
   90SAPS   H2R 8704   6.039   4.883  10.301  2.5533 -0.4701  0.1076
   90SAPS   H2S 8705   5.947   5.002  10.196 -0.3987  0.4085  0.9409
   90SAPS    C3 8706   6.324   5.188  10.533  0.1179  0.7971  0.0987
   90SAPS    HX 8707   6.387   5.103  10.501  0.2527  0.2606  1.7118
   90SAPS    HY 8708   6.370   5.215  10.630  3.3532 -0.3913 -0.9782
   90SAPS   O31 8709   6.328   5.287  10.434  0.2528  0.2767  0.9573
   90SAPS   C31 8710   6.312   5.415  10.482  0.5203 -0.5587  0.4204
   90SAPS   O32 8711   6.293   5.446  10.598 -0.1453 -0.3685  0.0918
   90SAPS   C32 8712   6.335   5.526  10.373  0.2240 -0.1788 -1.0656
   90SAPS   H2X 8713   6.421   5.500  10.308  1.1191 -2.2625  0.8531
   90SAPS   H2Y 8714   6.363   5.620  10.425  2.6959 -1.4712  0.0853
   90SAPS   C23 8715   6.157   4.972  10.141 -0.4636  0.0189  0.0632
   90SAPS   H3R 8716   6.250   4.975  10.201 -0.5973 -0.3148  0.2886
   90SAPS   H3S 8717   6.156   5.058  10.071  0.1837 -1.4920 -1.8851
   90SAPS   C24 8718   6.140   4.856  10.044  0.1700 -0.0831  0.1187
   90SAPS   H4R 8719   6.041   4.865   9.993  1.0313 -1.9992 -2.0417
   90SAPS   H4S 8720   6.123   4.769  10.111  2.2068  2.3871  4.2876
   90SAPS   C25 8721   6.256   4.835   9.952 -0.3333  0.7608  0.0180
   90SAPS   H5R 8722   6.351   4.818  10.005 -0.9795 -1.9663  0.5012
   90SAPS   C26 8723   6.259   4.829   9.817 -0.5429 -0.3796  0.1496
   90SAPS   H6R 8724   6.347   4.799   9.759  0.1589 -1.0812  1.5419
   90SAPS   C27 8725   6.142   4.846   9.719  0.2540 -0.3271 -0.9010
   90SAPS   H7R 8726   6.158   4.940   9.663  0.3695 -0.8021 -1.6788
   90SAPS   H7S 8727   6.050   4.856   9.781  0.8365 -2.1504  0.3322
   90SAPS   C28 8728   6.130   4.722   9.635 -0.0426  0.0145  1.1537
   90SAPS   H8R 8729   6.163   4.626   9.679 -0.6259 -1.7697 -1.9495
   90SAPS   C29 8730   6.115   4.725   9.499 -0.4944  0.2759  0.4047
   90SAPS   H9R 8731   6.116   4.625   9.452 -0.8519 -0.0628  1.1085
   90SAPS  C210 8732   6.095   4.850   9.416 -0.0485  0.0909  0.1717
   90SAPS  H10R 8733   6.199   4.887   9.425 -0.2378  0.1613  3.3386
   90SAPS  H10S 8734   6.032   4.924   9.471  1.9051  1.5217  0.5728
   90SAPS  C211 8735   6.045   4.850   9.269 -0.9162 -0.4764  0.2963
   90SAPS  H11R 8736   5.942   4.889   9.262 -0.8001 -0.4617 -1.6446
   90SAPS  C212 8737   6.104   4.808   9.152 -0.6369  0.4103  0.7227
   90SAPS  H12R 8738   6.048   4.821   9.058 -1.1344  2.6042  1.2765
   90SAPS  C213 8739   6.245   4.754   9.117 -0.0509  0.0511 -0.0957
   90SAPS  H13R 8740   6.231   4.658   9.063  2.0545 -0.9511  1.0141
   90SAPS  H13S 8741   6.287   4.737   9.219 -1.7580  0.5262  0.7309
   90SAPS  C214 8742   6.324   4.846   9.032 -0.3058  0.0637 -0.0881
   90SAPS  H14R 8743   6.300   4.953   9.037  0.7953  0.2858  1.5002
   90SAPS  C215 8744   6.426   4.808   8.946  0.8150  0.3376 -1.1847
   90SAPS  H15R 8745   6.489   4.884   8.896  0.1640  2.2011  0.6802
   90SAPS  C216 8746   6.474   4.671   8.930 -0.4047  0.3004  0.3751
   90SAPS  H16R 8747   6.449   4.598   9.010 -0.4183 -0.7156 -0.5439
   90SAPS  H16S 8748   6.584   4.687   8.932 -0.5502  1.8510 -1.3284
   90SAPS  C217 8749   6.423   4.602   8.805 -0.0192 -0.2278  0.1365
   90SAPS  H17R 8750   6.455   4.495   8.807  0.2790 -0.1364  0.2689
   90SAPS  H17S 8751   6.469   4.657   8.721  0.7058  0.0182  0.6826
   90SAPS  C218 8752   6.275   4.593   8.799  0.4822 -0.2988  0.0530
   90SAPS  H18R 8753   6.230   4.694   8.806 -1.7540 -1.3388  1.3426
   90SAPS  H18S 8754   6.231   4.537   8.883 -2.0113  2.3378  0.6855
   90SAPS  C219 8755   6.230   4.535   8.664 -0.2322 -0.1228  0.1025
   90SAPS  H19R 8756   6.255   4.426   8.669 -0.2883 -0.1391  0.0188
   90SAPS  H19S 8757   6.294   4.590   8.592  0.1599 -1.5403 -0.6792
   90SAPS  C220 8758   6.084   4.544   8.633  0.0375  0.5710  0.3464
   90SAPS  H20R 8759   6.031   4.504   8.721 -3.4290  3.3552 -0.2472
   90SAPS  H20S 8760   6.047   4.491   8.542 -1.4888 -1.6490  2.1629
   90SAPS  H20T 8761   6.059   4.652   8.619  0.1746  0.2232 -3.7526
   90SAPS   C33 8762   6.214   5.549  10.278  0.1646  0.1728  0.2220
   90SAPS   H3X 8763   6.138   5.620  10.316 -1.5387 -1.9259  0.9268
   90SAPS   H3Y 8764   6.159   5.453  10.266  2.3438 -1.3604  1.8183
   90SAPS   C34 8765   6.258   5.586  10.140 -0.7813 -0.2377 -0.1485
   90SAPS   H4X 8766   6.326   5.504  10.109 -1.2151 -0.4587 -0.5269
   90SAPS   H4Y 8767   6.321   5.678  10.139  1.0396 -1.4391 -0.5058
   90SAPS   C35 8768   6.146   5.603  10.038 -0.0410  0.2023 -0.6212
   90SAPS   H5X 8769   6.076   5.683  10.073 -0.7800 -0.4629 -0.5381
   90SAPS   H5Y 8770   6.083   5.511  10.034  0.0939 -0.0152  1.3825
   90SAPS   C36 8771   6.182   5.633   9.892 -0.2125 -0.4474  0.1136
   90SAPS   H6X 8772   6.262   5.558   9.872 -0.9836 -0.7270 -2.2751
   90SAPS   H6Y 8773   6.234   5.731   9.892 -1.3871  0.1948  0.5836
   90SAPS   C37 8774   6.061   5.626   9.803  0.2861  0.1595 -0.7097
   90SAPS   H7X 8775   5.995   5.715   9.812 -3.7913 -2.2125 -3.6189
   90SAPS   H7Y 8776   5.993   5.541   9.827  1.0885 -0.2626  0.1526
   90SAPS   C38 8777   6.108   5.616   9.660 -0.7979 -0.0852 -0.2712
   90SAPS   H8X 8778   6.168   5.524   9.643  0.4360  0.9660 -1.8497
   90SAPS   H8Y 8779   6.173   5.700   9.629 -0.7129 -0.0260  0.0616
   90SAPS   C39 8780   5.989   5.611   9.559  0.6400  0.1301  0.8656
   90SAPS   H9X 8781   5.929   5.704   9.558 -1.5221 -1.2013  1.3252
   90SAPS   H9Y 8782   5.919   5.532   9.594  0.0545 -1.3792 -3.1916
   90SAPS  C310 8783   6.034   5.583   9.413  0.1062  0.2675 -0.3661
   90SAPS  H10X 8784   5.948   5.564   9.346  0.6007  0.3085 -1.0258
   90SAPS  H10Y 8785   6.086   5.485   9.424 -2.5363 -1.2864 -0.9637
   90SAPS  C311 8786   6.120   5.689   9.340 -0.7593  0.1642  0.6946
   90SAPS  H11X 8787   6.221   5.703   9.384 -1.3294  0.5296  1.9399
   90SAPS  H11Y 8788   6.058   5.779   9.357 -2.9964 -1.5001  2.0567
   90SAPS  C312 8789   6.125   5.660   9.183  0.1795 -1.0038 -0.3123
   90SAPS  H12X 8790   6.184   5.746   9.145 -1.1927  0.5352  0.8756
   90SAPS  H12Y 8791   6.024   5.648   9.137 -0.2606  1.6870 -0.2464
   90SAPS  C313 8792   6.190   5.528   9.151 -0.0776  0.3212 -0.1238
   90SAPS  H13X 8793   6.138   5.457   9.218  0.9206  1.4099  1.9057
   90SAPS  H13Y 8794   6.299   5.525   9.175  0.2397 -1.9231 -1.4842
   90SAPS  C314 8795   6.165   5.470   9.008 -0.1748  0.3918 -0.0688
   90SAPS  H14X 8796   6.212   5.551   8.948  0.6709  0.6093  0.8488
   90SAPS  H14Y 8797   6.058   5.457   8.984 -0.3713  0.7008  0.6199
   90SAPS  C315 8798   6.248   5.341   8.988  0.2630  0.7649  0.0051
   90SAPS  H15X 8799   6.178   5.263   9.026  0.8279 -0.5613 -1.5639
   90SAPS  H15Y 8800   6.341   5.355   9.047  1.7095 -0.5422 -1.8337
   90SAPS  C316 8801   6.280   5.318   8.843 -0.0808 -0.5625 -0.5707
   90SAPS  H16X 8802   6.311   5.409   8.786  1.0134 -1.8022 -2.0251
   90SAPS  H16Y 8803   6.189   5.279   8.793 -0.3070  0.0701 -0.6675
   90SAPS  C317 8804   6.389   5.206   8.814 -0.0191 -0.1231 -0.2210
   90SAPS  H17X 8805   6.373   5.164   8.712  0.5356  0.8133 -0.7108
   90SAPS  H17Y 8806   6.367   5.120   8.880 -0.5815  1.0464  1.1704
   90SAPS  C318 8807   6.532   5.255   8.845  0.0991 -0.0217  0.2912
   90SAPS  H18X 8808   6.608   5.181   8.810  1.4995  2.2002 -1.7343
   90SAPS  H18Y 8809   6.541   5.257   8.955 -2.1128 -0.2072  0.5143
   90SAPS  H18Z 8810   6.555   5.353   8.796  0.2712  0.5015  1.3779
   91SAPS     N 8811   6.434   0.358   6.259 -1.1573  0.1560  0.3976
   91SAPS   HN1 8812   6.438   0.365   6.363 -1.3259 -1.0843  0.4996
   91SAPS   HN2 8813   6.337   0.326   6.241 -1.2337  0.5683  0.0443
   91SAPS   HN3 8814   6.499   0.287   6.220 -3.8116 -1.2136 -1.8736
   91SAPS   C12 8815   6.462   0.483   6.192 -0.6029 -0.0932  0.3223
   91SAPS  H12A 8816   6.541   0.533   6.245 -1.3886  0.0967  1.3571
   91SAPS   C13 8817   6.497   0.461   6.042 -0.1320  0.6367  0.1331
   91SAPS  O13A 8818   6.518   0.343   6.004 -0.5778 -0.1639  0.4325
   91SAPS  O13B 8819   6.554   0.555   5.989 -0.4473  0.4382  0.5249
   91SAPS   C11 8820   6.339   0.575   6.201 -0.2790 -0.3819  0.4818
   91SAPS  H11A 8821   6.367   0.674   6.160  0.1427  0.4209  2.5748
   91SAPS  H11B 8822   6.317   0.597   6.308 -0.2305 -0.7684  0.5718
   91SAPS     P 8823   6.094   0.607   6.133 -0.1072 -0.2603  0.3942
   91SAPS   O13 8824   6.117   0.707   6.030  0.0031  0.7508  0.1620
   91SAPS   O14 8825   5.983   0.509   6.108 -0.1868 -0.2604 -0.4967
   91SAPS   O12 8826   6.223   0.517   6.144 -0.3435 -0.1002  0.2420
   91SAPS   O11 8827   6.083   0.670   6.275  0.3168 -0.1109 -0.3786
   91SAPS    C1 8828   5.991   0.774   6.305  0.8836  0.1222  0.8647
   91SAPS    HA 8829   6.027   0.876   6.277 -1.4744  1.0648  1.0195
   91SAPS    HB 8830   5.896   0.750   6.254  0.7692  0.4357  0.9227
   91SAPS    C2 8831   5.949   0.765   6.451 -0.3636 -0.4573  0.0947
   91SAPS    HS 8832   6.037   0.805   6.506 -0.0153 -0.8719 -0.1591
   91SAPS   O21 8833   5.919   0.625   6.484 -0.3433 -0.4868 -0.9150
   91SAPS   C21 8834   6.014   0.557   6.548  0.1115  0.0035 -0.4690
   91SAPS   O22 8835   6.110   0.613   6.596  0.4026  0.2434 -0.5072
   91SAPS   C22 8836   5.985   0.408   6.541 -0.1662 -0.4473 -0.0430
   91SAPS   H2R 8837   5.888   0.375   6.500  1.0717 -2.9283 -1.2090
   91SAPS   H2S 8838   6.054   0.356   6.472 -0.1853  0.9014 -1.1094
   91SAPS    C3 8839   5.822   0.848   6.496  0.0840 -0.5098 -0.5827
   91SAPS    HX 8840   5.747   0.831   6.416 -0.4451 -0.2106 -0.1541
   91SAPS    HY 8841   5.844   0.956   6.487  3.5821 -1.1335 -1.2086
   91SAPS   O31 8842   5.772   0.811   6.626 -0.4048 -0.0654 -0.6298
   91SAPS   C31 8843   5.848   0.850   6.732  0.8143  0.7219  0.4599
   91SAPS   O32 8844   5.928   0.938   6.736 -0.6666  0.0604  0.4594
   91SAPS   C32 8845   5.792   0.789   6.865 -0.0360 -0.3526  0.8761
   91SAPS   H2X 8846   5.751   0.691   6.831  0.0418 -0.8313  2.1054
   91SAPS   H2Y 8847   5.713   0.857   6.903  0.2131  0.2854  0.2611
   91SAPS   C23 8848   5.998   0.339   6.677 -0.3408 -1.2330 -0.0673
   91SAPS   H3R 8849   6.099   0.352   6.722 -0.6605 -0.8527  0.5565
   91SAPS   H3S 8850   5.967   0.232   6.679 -1.4338 -0.9287 -0.1603
   91SAPS   C24 8851   5.903   0.383   6.784 -0.0613 -0.3716 -0.2898
   91SAPS   H4R 8852   5.923   0.489   6.811 -2.1978  0.7816 -2.8394
   91SAPS   H4S 8853   5.928   0.318   6.871  3.9112  0.5453 -0.5828
   91SAPS   C25 8854   5.753   0.371   6.746 -0.3838  0.3975  0.1822
   91SAPS   H5R 8855   5.740   0.414   6.646  4.1642  0.9098 -0.3879
   91SAPS   C26 8856   5.658   0.328   6.834  0.3252 -0.0600  0.7989
   91SAPS   H6R 8857   5.557   0.318   6.791  0.2025  2.3297  0.3570
   91SAPS   C27 8858   5.685   0.263   6.970 -0.3479  0.2323  0.4588
   91SAPS   H7R 8859   5.750   0.174   6.958 -0.3962  0.3202 -0.5936
   91SAPS   H7S 8860   5.587   0.235   7.013 -0.4945  0.8123  0.5027
   91SAPS   C28 8861   5.744   0.359   7.072 -0.4529 -0.0520 -0.0344
   91SAPS   H8R 8862   5.785   0.455   7.036 -0.1780  0.0496  0.5439
   91SAPS   C29 8863   5.761   0.335   7.201 -0.2463  0.9946  0.5157
   91SAPS   H9R 8864   5.827   0.402   7.258  0.4770  0.1057  0.7341
   91SAPS  C210 8865   5.734   0.196   7.259  0.7467  0.0195 -0.1321
   91SAPS  H10R 8866   5.650   0.145   7.206  1.1851  0.3458 -1.1531
   91SAPS  H10S 8867   5.702   0.215   7.364 -2.2608  3.7594 -1.4837
   91SAPS  C211 8868   5.856   0.103   7.251 -0.2115 -0.2801 -0.0772
   91SAPS  H11R 8869   5.875   0.051   7.156  1.3668 -0.4864  0.3172
   91SAPS  C212 8870   5.944   0.087   7.352 -0.5138  0.7249  0.3820
   91SAPS  H12R 8871   6.030   0.021   7.334 -0.3610  1.1625 -0.5814
   91SAPS  C213 8872   5.952   0.160   7.480 -1.1932 -0.4081  0.0802
   91SAPS  H13R 8873   5.933   0.269   7.481  0.3446 -0.0906 -1.1045
   91SAPS  H13S 8874   6.059   0.154   7.511 -0.3101  0.8902 -2.3661
   91SAPS  C214 8875   5.868   0.093   7.580  0.1381 -0.2229 -0.5296
   91SAPS  H14R 8876   5.832  -0.003   7.539  3.2541 -1.0243 -1.7206
   91SAPS  C215 8877   5.836   0.136   7.706  0.0246  0.6108 -0.7872
   91SAPS  H15R 8878   5.781   0.071   7.776  1.5492  0.4488  0.3168
   91SAPS  C216 8879   5.899   0.263   7.756  0.6366  0.0876  0.2471
   91SAPS  H16R 8880   5.869   0.347   7.690 -2.9995 -0.8022  0.5475
   91SAPS  H16S 8881   6.010   0.251   7.760  0.6527  0.3727  3.0851
   91SAPS  C217 8882   5.860   0.310   7.899  0.5745 -0.5629 -0.2044
   91SAPS  H17R 8883   5.749   0.316   7.905  0.4885 -2.4298  0.6052
   91SAPS  H17S 8884   5.915   0.407   7.911 -0.2479  0.0281 -1.1250
   91SAPS  C218 8885   5.906   0.209   8.005  0.2283 -0.2302  0.6509
   91SAPS  H18R 8886   5.973   0.138   7.951  0.3513  0.6307 -0.3643
   91SAPS  H18S 8887   5.812   0.162   8.041 -1.3386  0.3665 -2.3510
   91SAPS  C219 8888   5.973   0.274   8.119  0.0746 -0.5159 -0.1503
   91SAPS  H19R 8889   6.042   0.349   8.075 -0.7792 -0.1678 -0.9461
   91SAPS  H19S 8890   6.022   0.208   8.194 -0.9335  0.7774  1.7356
   91SAPS  C220 8891   5.874   0.364   8.195 -0.3234  0.0156 -0.4088
   91SAPS  H20R 8892   5.775   0.327   8.232  0.2393 -1.0784  0.0455
   91SAPS  H20S 8893   5.856   0.449   8.126  1.5929  0.2936 -0.6080
   91SAPS  H20T 8894   5.930   0.402   8.283  1.6109 -0.1842 -1.5124
   91SAPS   C33 8895   5.904   0.774   6.967 -0.4067  0.1918 -0.0089
   91SAPS   H3X 8896   5.937   0.879   6.982 -0.0781 -0.1469  1.8741
   91SAPS   H3Y 8897   5.990   0.712   6.933 -0.2659  1.1574 -1.5243
   91SAPS   C34 8898   5.839   0.734   7.095  0.1369  0.8500 -0.2391
   91SAPS   H4X 8899   5.786   0.639   7.075 -1.4333  1.6805 -0.2389
   91SAPS   H4Y 8900   5.757   0.806   7.116 -0.4170 -0.0605  0.8044
   91SAPS   C35 8901   5.922   0.718   7.219 -0.3293 -0.1052  0.7868
   91SAPS   H5X 8902   5.989   0.805   7.234  1.4766 -1.5235  1.2835
   91SAPS   H5Y 8903   5.990   0.631   7.201  0.6196  0.7512  0.1337
   91SAPS   C36 8904   5.836   0.696   7.342 -0.2294 -0.5004 -0.2319
   91SAPS   H6X 8905   5.765   0.614   7.317 -1.1814  0.2687 -0.1152
   91SAPS   H6Y 8906   5.774   0.788   7.352  0.3815 -0.0857 -0.1939
   91SAPS   C37 8907   5.907   0.679   7.475  0.1974 -0.3699 -0.1188
   91SAPS   H7X 8908   5.959   0.581   7.485 -0.2076 -0.5515  0.2417
   91SAPS   H7Y 8909   5.826   0.672   7.551  0.4065 -0.6882  0.0805
   91SAPS   C38 8910   6.003   0.794   7.516 -0.1498  0.4756 -0.0179
   91SAPS   H8X 8911   5.944   0.887   7.509  1.0738  1.3463  0.7951
   91SAPS   H8Y 8912   6.088   0.801   7.445  0.7873  0.5300  1.0801
   91SAPS   C39 8913   6.040   0.790   7.662 -0.1400  0.6353 -0.2608
   91SAPS   H9X 8914   6.113   0.872   7.682  1.2630 -0.6637  0.1659
   91SAPS   H9Y 8915   6.108   0.703   7.677  0.8621  1.0063 -2.2929
   91SAPS  C310 8916   5.924   0.810   7.759 -0.0358  0.5531 -0.5212
   91SAPS  H10X 8917   5.839   0.742   7.737  0.8688 -1.2174  1.1603
   91SAPS  H10Y 8918   5.885   0.913   7.749 -1.0736  0.2704  0.4145
   91SAPS  C311 8919   5.970   0.803   7.908  0.3234  0.6879  0.0321
   91SAPS  H11X 8920   6.053   0.875   7.927  1.3898 -0.1107 -1.3657
   91SAPS  H11Y 8921   6.011   0.703   7.932  1.3758  1.4562  1.6744
   91SAPS  C312 8922   5.849   0.824   8.010 -0.1215  0.0372  0.1719
   91SAPS  H12X 8923   5.770   0.749   7.990 -0.5133  0.7433 -1.0354
   91SAPS  H12Y 8924   5.814   0.926   7.980 -0.5425  0.7330  2.7292
   91SAPS  C313 8925   5.887   0.829   8.161 -0.3247 -0.1833  0.8634
   91SAPS  H13X 8926   5.922   0.930   8.192  4.0319 -1.0452 -0.4954
   91SAPS  H13Y 8927   5.971   0.759   8.181 -0.7921 -0.6071  1.3930
   91SAPS  C314 8928   5.772   0.770   8.242  0.1231 -0.4040 -0.1001
   91SAPS  H14X 8929   5.752   0.663   8.221 -0.2649  0.1908 -3.4552
   91SAPS  H14Y 8930   5.676   0.817   8.209 -0.3338  1.6313  3.6771
   91SAPS  C315 8931   5.784   0.802   8.390  0.3593  1.1984 -0.1558
   91SAPS  H15X 8932   5.787   0.909   8.419  1.2491  0.9502  0.7348
   91SAPS  H15Y 8933   5.871   0.754   8.440  0.6423  0.0301 -1.6769
   91SAPS  C316 8934   5.661   0.741   8.467 -0.1249  0.9209  0.2001
   91SAPS  H16X 8935   5.577   0.739   8.394  0.7632 -1.4149 -0.8638
   91SAPS  H16Y 8936   5.637   0.798   8.560 -1.5056  0.8187 -0.0670
   91SAPS  C317 8937   5.686   0.595   8.499 -0.1686 -0.2487 -0.7713
   91SAPS  H17X 8938   5.781   0.576   8.554  1.1350  0.2414 -2.7249
   91SAPS  H17Y 8939   5.683   0.531   8.408 -2.9107  0.7240 -1.4641
   91SAPS  C318 8940   5.583   0.538   8.588 -0.1986 -0.5359 -0.2537
   91SAPS  H18X 8941   5.573   0.428   8.579 -0.9196 -0.4554 -0.4974
   91SAPS  H18Y 8942   5.481   0.576   8.565  0.2765  0.2818 -1.0819
   91SAPS  H18Z 8943   5.603   0.559   8.695 -0.8676 -1.4529  0.0638
   92SAPS     N 8944   3.744   5.938   6.554  0.1552  0.0893 -0.2679
   92SAPS   HN1 8945   3.738   6.010   6.628  3.8958 -0.0708  0.3996
   92SAPS   HN2 8946   3.649   5.901   6.536  1.1266 -2.0874 -1.3697
   92SAPS   HN3 8947   3.792   5.854   6.592  0.4839  0.6593  0.6023
   92SAPS   C12 8948   3.820   5.985   6.443 -1.3261 -0.7031 -0.0355
   92SAPS  H12A 8949   3.864   5.899   6.396  0.2060 -1.7516  3.0300
   92SAPS   C13 8950   3.748   6.075   6.336  0.4768 -0.1650 -0.3808
   92SAPS  O13A 8951   3.633   6.121   6.351  0.4572  0.4275  0.2058
   92SAPS  O13B 8952   3.810   6.094   6.227 -1.2290 -0.2258  0.1743
   92SAPS   C11 8953   3.941   6.074   6.512  0.0417  0.3858  0.4419
   92SAPS  H11A 8954   3.906   6.167   6.562  2.3273  2.6357 -1.7947
   92SAPS  H11B 8955   4.004   6.120   6.433 -0.9769 -0.3374 -0.8322
   92SAPS     P 8956   4.134   6.035   6.691 -0.1410 -0.3878 -0.2673
   92SAPS   O13 8957   4.204   5.926   6.759 -0.2827 -0.2552  0.0695
   92SAPS   O14 8958   4.227   6.128   6.619 -0.1728  0.0631 -0.1848
   92SAPS   O12 8959   4.019   5.989   6.597 -0.7478  0.5427  0.2732
   92SAPS   O11 8960   4.074   6.117   6.816  0.1133 -0.0602  0.5709
   92SAPS    C1 8961   3.979   6.052   6.900  0.3637 -0.5567 -0.2632
   92SAPS    HA 8962   3.878   6.095   6.881  0.5921 -0.0388 -0.3114
   92SAPS    HB 8963   3.971   5.942   6.884 -0.9428 -0.3956 -0.8348
   92SAPS    C2 8964   4.017   6.067   7.048 -0.1228 -0.0571 -0.6322
   92SAPS    HS 8965   3.972   5.983   7.105  0.7424 -0.8881 -1.1421
   92SAPS   O21 8966   3.962   6.189   7.103 -0.0634  0.0352 -0.6107
   92SAPS   C21 8967   3.832   6.202   7.112 -0.4259  0.0184 -0.4262
   92SAPS   O22 8968   3.745   6.126   7.084 -0.3747 -0.0921  0.8380
   92SAPS   C22 8969   3.799   6.344   7.146  0.2111 -0.0940  0.0237
   92SAPS   H2R 8970   3.885   6.413   7.159 -0.0586  0.3370 -0.3995
   92SAPS   H2S 8971   3.747   6.391   7.060 -1.3052  1.1599  1.5546
   92SAPS    C3 8972   4.170   6.066   7.075 -0.4891  0.2603 -0.3431
   92SAPS    HX 8973   4.211   6.155   7.024  2.5020  0.3262  1.8848
   92SAPS    HY 8974   4.213   5.974   7.029 -1.1090  0.3981 -1.2294
   92SAPS   O31 8975   4.210   6.071   7.214 -0.2584 -0.8442 -0.0055
   92SAPS   C31 8976   4.224   5.950   7.279  0.9474  0.0595  0.0709
   92SAPS   O32 8977   4.193   5.843   7.232 -0.2953  0.7025  0.0415
   92SAPS   C32 8978   4.292   5.963   7.416 -0.1747  1.3482 -0.7979
   92SAPS   H2X 8979   4.266   6.062   7.459 -0.3230  0.5062  1.1570
   92SAPS   H2Y 8980   4.402   5.963   7.399 -0.3862 -0.0162 -2.5447
   92SAPS   C23 8981   3.706   6.361   7.268 -0.6855  0.7085  0.2515
   92SAPS   H3R 8982   3.614   6.299   7.273 -1.3810  1.7504  0.7520
   92SAPS   H3S 8983   3.657   6.459   7.248  1.0000  1.0051 -3.1053
   92SAPS   C24 8984   3.782   6.347   7.400 -0.0862 -0.8757  0.2133
   92SAPS   H4R 8985   3.814   6.241   7.409  0.4746 -0.6387  1.2022
   92SAPS   H4S 8986   3.702   6.364   7.475 -1.5673 -1.6601 -1.1289
   92SAPS   C25 8987   3.895   6.448   7.426  1.0429  0.0186 -0.2134
   92SAPS   H5R 8988   3.859   6.552   7.421 -0.0497 -0.2774  1.1205
   92SAPS   C26 8989   4.026   6.412   7.456  0.0560  0.6377  0.4137
   92SAPS   H6R 8990   4.094   6.496   7.479  1.6250 -0.4017 -0.2990
   92SAPS   C27 8991   4.101   6.280   7.490  0.2381 -0.2403  0.1698
   92SAPS   H7R 8992   4.204   6.291   7.452  0.3985 -0.6996  0.4639
   92SAPS   H7S 8993   4.063   6.191   7.435  0.2814 -1.2046  1.6360
   92SAPS   C28 8994   4.109   6.244   7.640 -0.5428  0.0720 -0.0313
   92SAPS   H8R 8995   4.022   6.196   7.687 -0.1312  1.3485  2.1925
   92SAPS   C29 8996   4.207   6.263   7.729  0.4847 -0.1283 -0.2505
   92SAPS   H9R 8997   4.179   6.238   7.832 -0.4860 -0.1313 -0.5041
   92SAPS  C210 8998   4.342   6.325   7.718  0.1128  0.3851 -0.2268
   92SAPS  H10R 8999   4.343   6.434   7.695 -0.3771  0.0399 -2.0214
   92SAPS  H10S 9000   4.392   6.279   7.630 -2.5897  0.1608 -1.7340
   92SAPS  C211 9001   4.434   6.321   7.836  0.4582  0.3180 -0.3174
   92SAPS  H11R 9002   4.531   6.289   7.794  0.3785 -0.1312 -0.1564
   92SAPS  C212 9003   4.423   6.371   7.963 -0.5030 -0.0443 -0.2038
   92SAPS  H12R 9004   4.506   6.358   8.034  0.2774  1.0964 -0.8654
   92SAPS  C213 9005   4.308   6.445   8.030  0.0096 -0.5121  0.5488
   92SAPS  H13R 9006   4.232   6.482   7.958  0.1167 -0.7057  0.3346
   92SAPS  H13S 9007   4.350   6.541   8.068 -2.7083  0.3538  1.5616
   92SAPS  C214 9008   4.241   6.379   8.149 -0.2964 -0.1294  0.5983
   92SAPS  H14R 9009   4.215   6.272   8.137 -0.0084 -0.0944 -0.4211
   92SAPS  C215 9010   4.227   6.423   8.274 -0.6934 -0.0789 -0.3400
   92SAPS  H15R 9011   4.203   6.354   8.357  2.0652 -1.3511 -0.4786
   92SAPS  C216 9012   4.266   6.558   8.328  0.0699 -0.2248  0.0667
   92SAPS  H16R 9013   4.357   6.599   8.278  0.6898 -2.5291 -0.8064
   92SAPS  H16S 9014   4.297   6.548   8.434  0.7844 -2.0893 -0.2858
   92SAPS  C217 9015   4.151   6.658   8.331 -0.4699  0.3529 -0.8299
   92SAPS  H17R 9016   4.063   6.639   8.266 -2.1685  3.1672  0.4967
   92SAPS  H17S 9017   4.191   6.758   8.304 -0.3730  0.7599  0.7237
   92SAPS  C218 9018   4.097   6.684   8.480  0.4372  0.3642  0.1376
   92SAPS  H18R 9019   4.059   6.596   8.535 -0.8946  0.8992  0.1297
   92SAPS  H18S 9020   4.013   6.756   8.471  1.3656  1.6731  1.5139
   92SAPS  C219 9021   4.195   6.770   8.554  0.1316  0.0576 -0.2696
   92SAPS  H19R 9022   4.234   6.845   8.483 -1.1511 -0.0366 -1.1174
   92SAPS  H19S 9023   4.283   6.711   8.587  0.4422 -0.2337 -1.5607
   92SAPS  C220 9024   4.139   6.834   8.677  0.1077  0.3624 -0.3384
   92SAPS  H20R 9025   4.216   6.876   8.744 -0.1727  0.2432  0.0585
   92SAPS  H20S 9026   4.088   6.754   8.734 -0.6398  0.9362 -0.1797
   92SAPS  H20T 9027   4.059   6.906   8.649 -1.8274 -0.9631  1.5089
   92SAPS   C33 9028   4.241   5.861   7.518 -0.8014  0.0707 -0.3882
   92SAPS   H3X 9029   4.253   5.763   7.467 -0.2711  0.9672 -2.0528
   92SAPS   H3Y 9030   4.135   5.869   7.551 -0.9149  0.7899 -0.9158
   92SAPS   C34 9031   4.333   5.861   7.639  0.1535  0.4256 -0.6344
   92SAPS   H4X 9032   4.344   5.961   7.687  2.0222  0.1040 -0.3272
   92SAPS   H4Y 9033   4.430   5.815   7.610 -0.2295 -2.5466  2.2760
   92SAPS   C35 9034   4.291   5.758   7.747  0.1207  0.2944 -0.3963
   92SAPS   H5X 9035   4.321   5.654   7.722  0.3146  0.5830 -1.3732
   92SAPS   H5Y 9036   4.180   5.770   7.751 -0.1247 -1.8031  0.3999
   92SAPS   C36 9037   4.337   5.798   7.892 -0.3935  0.0979 -0.0822
   92SAPS   H6X 9038   4.447   5.807   7.895 -0.4061 -0.0503  1.6807
   92SAPS   H6Y 9039   4.299   5.718   7.959 -2.2480 -0.0185 -1.1834
   92SAPS   C37 9040   4.282   5.937   7.938 -0.1743 -0.1558  0.3192
   92SAPS   H7X 9041   4.173   5.945   7.916 -0.4829 -0.4320  1.6744
   92SAPS   H7Y 9042   4.331   6.026   7.894 -1.6127  0.5515  0.0835
   92SAPS   C38 9043   4.308   5.946   8.088  0.4523  0.2451  0.0059
   92SAPS   H8X 9044   4.360   6.040   8.117  1.6018  0.1092 -1.5239
   92SAPS   H8Y 9045   4.365   5.860   8.128  0.2989  0.4553  0.6969
   92SAPS   C39 9046   4.170   5.945   8.167  0.7716 -0.0536  0.5479
   92SAPS   H9X 9047   4.108   5.861   8.129 -0.3159  1.1480 -0.3984
   92SAPS   H9Y 9048   4.120   6.041   8.145  3.4826  1.3444  0.0001
   92SAPS  C310 9049   4.197   5.921   8.319  0.1905  0.7028 -0.2906
   92SAPS  H10X 9050   4.263   6.009   8.337 -0.5340  1.3526 -0.7511
   92SAPS  H10Y 9051   4.244   5.822   8.338 -1.5020 -0.2116 -0.6534
   92SAPS  C311 9052   4.071   5.928   8.398 -0.6779  0.3284 -0.0666
   92SAPS  H11X 9053   4.018   5.830   8.403  1.0961 -0.6170  1.1566
   92SAPS  H11Y 9054   4.003   6.007   8.359 -0.9878  0.3967  0.6020
   92SAPS  C312 9055   4.099   5.962   8.546  0.3938 -0.4472 -0.3352
   92SAPS  H12X 9056   4.177   5.898   8.593  1.3981  2.4316  2.2214
   92SAPS  H12Y 9057   4.006   5.952   8.606  0.9656  0.6350  0.7772
   92SAPS  C313 9058   4.130   6.110   8.539 -0.1053  0.4324  0.4284
   92SAPS  H13X 9059   4.077   6.160   8.454  0.6750 -0.8873 -0.8923
   92SAPS  H13Y 9060   4.237   6.127   8.512 -0.4586 -0.4225 -1.7895
   92SAPS  C314 9061   4.099   6.188   8.669  0.0695  0.1073 -1.0552
   92SAPS  H14X 9062   4.154   6.140   8.753 -0.3389  0.7516 -0.4093
   92SAPS  H14Y 9063   3.992   6.185   8.698  0.8905  1.2029  2.5658
   92SAPS  C315 9064   4.134   6.335   8.654 -0.4237  0.1772 -0.4638
   92SAPS  H15X 9065   4.082   6.372   8.562 -2.3752 -0.0767  0.4834
   92SAPS  H15Y 9066   4.239   6.362   8.629 -0.8906  0.9656 -1.7217
   92SAPS  C316 9067   4.084   6.422   8.773  0.3826 -0.3485  0.3964
   92SAPS  H16X 9068   3.973   6.429   8.771  0.1445 -1.1027  4.0179
   92SAPS  H16Y 9069   4.119   6.527   8.762  0.1473  0.0278  2.6385
   92SAPS  C317 9070   4.133   6.383   8.914  0.4942  0.3457  0.1981
   92SAPS  H17X 9071   4.241   6.357   8.912  0.5006  0.4472 -1.2647
   92SAPS  H17Y 9072   4.077   6.296   8.954 -0.8389  1.6722  1.3531
   92SAPS  C318 9073   4.106   6.493   9.015 -0.6329 -0.0963  0.2786
   92SAPS  H18X 9074   3.997   6.506   9.032 -0.7721 -0.6119 -0.1936
   92SAPS  H18Y 9075   4.146   6.593   8.989  1.7120 -0.4970  2.0000
   92SAPS  H18Z 9076   4.163   6.472   9.108  0.8604  0.0298 -0.5741
   93SAPS     N 9077   5.796   5.871   6.478 -0.4637 -0.0871  0.0377
   93SAPS   HN1 9078   5.706   5.833   6.443 -0.9931  1.7539 -0.7216
   93SAPS   HN2 9079   5.858   5.797   6.517  2.1448  2.6300  1.5288
   93SAPS   HN3 9080   5.786   5.939   6.556 -2.4410 -0.3176  0.0386
   93SAPS   C12 9081   5.858   5.926   6.355  1.1641  0.3472  0.7929
   93SAPS  H12A 9082   5.959   5.963   6.368  1.3905  0.4432 -0.9426
   93SAPS   C13 9083   5.853   5.811   6.246  0.0843 -0.4628 -0.8722
   93SAPS  O13A 9084   5.801   5.699   6.263  0.3308  0.0549 -0.3921
   93SAPS  O13B 9085   5.878   5.846   6.130 -0.2999  0.2102  1.0005
   93SAPS   C11 9086   5.772   6.044   6.305 -0.1820 -0.3844  0.2035
   93SAPS  H11A 9087   5.704   6.012   6.223  2.3158  0.3195 -2.2937
   93SAPS  H11B 9088   5.849   6.111   6.262 -0.1705 -0.0983  0.6604
   93SAPS     P 9089   5.658   6.252   6.416  0.0619  0.1246 -0.2030
   93SAPS   O13 9090   5.779   6.328   6.459  0.0124 -0.5585  0.7454
   93SAPS   O14 9091   5.607   6.297   6.287  0.1872 -1.3519  0.2934
   93SAPS   O12 9092   5.698   6.103   6.410  0.4853 -0.0779 -0.2940
   93SAPS   O11 9093   5.557   6.258   6.528  0.2540 -0.0414 -0.4322
   93SAPS    C1 9094   5.520   6.153   6.621  0.1608  0.2359  0.2965
   93SAPS    HA 9095   5.582   6.062   6.606 -0.2149 -0.1500  1.0313
   93SAPS    HB 9096   5.530   6.191   6.726 -2.2324  1.8035  0.0335
   93SAPS    C2 9097   5.381   6.104   6.609 -0.2100 -0.9263  0.2999
   93SAPS    HS 9098   5.356   6.084   6.502  0.6538  0.8395 -0.2613
   93SAPS   O21 9099   5.289   6.211   6.656  0.3046  0.1569  0.3792
   93SAPS   C21 9100   5.173   6.209   6.590 -0.5819  0.6867  0.1234
   93SAPS   O22 9101   5.137   6.136   6.497 -0.3508 -0.3080 -0.6156
   93SAPS   C22 9102   5.101   6.334   6.639  0.2612 -0.7005 -0.2588
   93SAPS   H2R 9103   5.075   6.316   6.745 -1.8793  1.5437 -0.3074
   93SAPS   H2S 9104   5.178   6.414   6.647 -0.2534 -0.0052 -1.7854
   93SAPS    C3 9105   5.354   5.972   6.693  0.0357  0.1993  0.0506
   93SAPS    HX 9106   5.437   5.904   6.664  0.3351  0.6243 -0.1052
   93SAPS    HY 9107   5.265   5.917   6.656  0.1724 -0.4118  0.6243
   93SAPS   O31 9108   5.367   5.986   6.832 -0.9049  0.3704 -0.3047
   93SAPS   C31 9109   5.260   6.010   6.906 -0.0243 -0.0683 -0.3572
   93SAPS   O32 9110   5.146   6.002   6.864 -0.0062 -0.3183 -0.5620
   93SAPS   C32 9111   5.294   6.054   7.048  0.3292  0.3292 -0.7872
   93SAPS   H2X 9112   5.364   6.140   7.043 -0.8992  1.4993  1.0676
   93SAPS   H2Y 9113   5.346   5.971   7.101 -1.4490  1.0102  2.2249
   93SAPS   C23 9114   4.964   6.377   6.566  0.2526  0.0574 -1.1753
   93SAPS   H3R 9115   4.894   6.300   6.605  0.3588  1.3522  1.8916
   93SAPS   H3S 9116   4.970   6.363   6.456 -0.2899 -3.0436 -0.9226
   93SAPS   C24 9117   4.904   6.508   6.613  0.4237 -0.0070 -0.4023
   93SAPS   H4R 9118   4.841   6.492   6.704  0.3695 -2.8310 -0.8485
   93SAPS   H4S 9119   4.817   6.534   6.549  0.2146  0.7564  0.1792
   93SAPS   C25 9120   5.015   6.606   6.620 -0.6609 -0.6381 -0.0555
   93SAPS   H5R 9121   5.054   6.633   6.521 -0.4765 -2.7167 -0.6052
   93SAPS   C26 9122   5.063   6.654   6.736 -0.4986  0.6599  0.0699
   93SAPS   H6R 9123   5.147   6.725   6.737 -0.8029  1.0193  1.2933
   93SAPS   C27 9124   5.025   6.624   6.876  0.7773  0.4742  0.1506
   93SAPS   H7R 9125   4.970   6.527   6.880  0.7830  0.4545 -0.2889
   93SAPS   H7S 9126   4.963   6.708   6.913  0.4519  1.2166 -1.9710
   93SAPS   C28 9127   5.127   6.613   6.989  0.2258 -0.2334  0.5978
   93SAPS   H8R 9128   5.231   6.639   6.963 -0.1728  1.9712  0.9533
   93SAPS   C29 9129   5.107   6.593   7.123 -0.2878 -0.0066 -0.2751
   93SAPS   H9R 9130   5.194   6.585   7.191 -1.3814 -0.6450  1.0989
   93SAPS  C210 9131   4.969   6.561   7.171  0.4710 -0.3167 -0.3388
   93SAPS  H10R 9132   4.955   6.454   7.200 -0.6502  0.6559  3.1824
   93SAPS  H10S 9133   4.887   6.577   7.097 -1.4022  1.9114  2.0638
   93SAPS  C211 9134   4.949   6.663   7.288 -0.1787 -0.1963 -0.2431
   93SAPS  H11R 9135   4.888   6.753   7.269 -0.5400 -0.5677 -0.8922
   93SAPS  C212 9136   4.980   6.635   7.417 -0.1758 -0.9463 -0.2678
   93SAPS  H12R 9137   4.961   6.712   7.494  0.9739 -1.3943  0.4908
   93SAPS  C213 9138   5.052   6.514   7.471  0.2242  0.2199 -0.2402
   93SAPS  H13R 9139   5.074   6.444   7.388 -1.5093 -0.1318 -0.4419
   93SAPS  H13S 9140   5.001   6.447   7.544  1.0183 -0.8679 -0.6559
   93SAPS  C214 9141   5.186   6.547   7.542  0.2185  0.1488  0.7065
   93SAPS  H14R 9142   5.278   6.532   7.484  1.5591  1.8322  2.2805
   93SAPS  C215 9143   5.192   6.578   7.672 -0.0189  0.3522 -0.1229
   93SAPS  H15R 9144   5.295   6.591   7.708  0.7454 -2.2914 -1.1208
   93SAPS  C216 9145   5.077   6.596   7.773  0.7716  0.2783 -0.1033
   93SAPS  H16R 9146   4.976   6.558   7.744  0.3196  2.1872 -1.1786
   93SAPS  H16S 9147   5.061   6.702   7.800 -2.1244 -0.2936  0.8385
   93SAPS  C217 9148   5.132   6.530   7.901 -0.6343 -0.5197  0.6259
   93SAPS  H17R 9149   5.243   6.526   7.904 -0.4995  0.9564 -1.1108
   93SAPS  H17S 9150   5.098   6.424   7.904  2.0705 -1.4323  1.6461
   93SAPS  C218 9151   5.072   6.601   8.022  0.8330  0.6343 -0.4990
   93SAPS  H18R 9152   4.965   6.628   8.006  0.8933  1.7768  0.7809
   93SAPS  H18S 9153   5.121   6.701   8.016  1.9424  0.1606  0.3392
   93SAPS  C219 9154   5.095   6.537   8.160  0.9145 -0.5384  0.3078
   93SAPS  H19R 9155   5.205   6.524   8.172  1.0306  1.0401  1.2463
   93SAPS  H19S 9156   5.052   6.435   8.165  0.1949 -0.3523 -1.4365
   93SAPS  C220 9157   5.029   6.615   8.282 -0.5052  1.0006 -0.6296
   93SAPS  H20R 9158   4.920   6.611   8.261 -0.8484  0.4305  1.0724
   93SAPS  H20S 9159   5.062   6.720   8.293 -1.7629  1.2368  1.2405
   93SAPS  H20T 9160   5.046   6.562   8.378  0.5497 -2.3521 -2.4772
   93SAPS   C33 9161   5.172   6.100   7.135 -0.2211 -0.0412 -0.1255
   93SAPS   H3X 9162   5.098   6.019   7.153 -0.3690  0.0059 -0.5091
   93SAPS   H3Y 9163   5.117   6.184   7.087  0.9149 -0.2991 -1.9907
   93SAPS   C34 9164   5.207   6.144   7.283  0.1585  0.6370 -0.1665
   93SAPS   H4X 9165   5.110   6.183   7.322 -0.8143 -1.1897 -0.5894
   93SAPS   H4Y 9166   5.279   6.226   7.299 -0.1899  1.0905 -0.8847
   93SAPS   C35 9167   5.234   6.019   7.375  0.1185  0.0499  0.5162
   93SAPS   H5X 9168   5.341   5.995   7.364 -0.1334 -0.5315 -0.7963
   93SAPS   H5Y 9169   5.179   5.932   7.333 -1.1289  0.5379  1.0639
   93SAPS   C36 9170   5.188   6.035   7.522 -0.0643 -0.3572  0.0063
   93SAPS   H6X 9171   5.224   5.944   7.573 -0.1387  1.2890  3.2901
   93SAPS   H6Y 9172   5.077   6.045   7.525 -0.1326 -0.4218 -1.3950
   93SAPS   C37 9173   5.256   6.158   7.579 -0.0274  0.2016 -0.2641
   93SAPS   H7X 9174   5.232   6.253   7.526 -0.8203  0.8811  1.2306
   93SAPS   H7Y 9175   5.365   6.140   7.588  0.0596  0.4753 -0.7194
   93SAPS   C38 9176   5.197   6.172   7.729  0.5490  0.4782  0.0143
   93SAPS   H8X 9177   5.086   6.175   7.735  0.5392  1.0548 -0.2975
   93SAPS   H8Y 9178   5.229   6.274   7.759  0.8114  0.2641  0.4669
   93SAPS   C39 9179   5.266   6.074   7.825  0.7442  0.4886 -0.1261
   93SAPS   H9X 9180   5.372   6.107   7.818  1.2381 -0.7833  0.9959
   93SAPS   H9Y 9181   5.258   5.965   7.805  0.7774  0.2046  1.3220
   93SAPS  C310 9182   5.226   6.097   7.963  0.8292 -0.3831  0.4343
   93SAPS  H10X 9183   5.121   6.061   7.969  0.3146  1.1104  0.8937
   93SAPS  H10Y 9184   5.236   6.198   8.008  3.7497  0.8118 -2.5230
   93SAPS  C311 9185   5.299   5.994   8.058  0.0401 -0.2892  0.5106
   93SAPS  H11X 9186   5.398   6.040   8.077  0.0362  0.3328 -0.8374
   93SAPS  H11Y 9187   5.314   5.900   8.001 -0.1802  1.8661 -3.4238
   93SAPS  C312 9188   5.223   5.989   8.196  0.6456 -0.5351 -0.1414
   93SAPS  H12X 9189   5.126   5.936   8.181 -1.2733  1.9633  2.1894
   93SAPS  H12Y 9190   5.212   6.097   8.222  1.3846 -1.0783  2.7864
   93SAPS  C313 9191   5.307   5.933   8.309  0.0083  0.2296 -0.4522
   93SAPS  H13X 9192   5.406   5.982   8.319  1.1888 -2.4080  2.1182
   93SAPS  H13Y 9193   5.332   5.826   8.293 -0.1717  0.1435 -0.1589
   93SAPS  C314 9194   5.243   5.959   8.452  0.0643 -0.7512 -0.7491
   93SAPS  H14X 9195   5.153   5.894   8.454  0.3779 -1.2657 -2.0119
   93SAPS  H14Y 9196   5.218   6.067   8.462 -0.0118 -0.7481 -0.9502
   93SAPS  C315 9197   5.333   5.926   8.564 -0.0771 -0.1618 -0.4263
   93SAPS  H15X 9198   5.403   6.011   8.580 -0.3231  0.0140 -0.2791
   93SAPS  H15Y 9199   5.403   5.840   8.552 -1.0993 -1.4960  2.2309
   93SAPS  C316 9200   5.250   5.892   8.690 -0.2138 -0.4496  0.1686
   93SAPS  H16X 9201   5.192   5.800   8.665  1.1447 -1.4231  0.4702
   93SAPS  H16Y 9202   5.187   5.979   8.716  3.0000  1.9376  0.6045
   93SAPS  C317 9203   5.333   5.860   8.813  0.1913  0.2693 -1.0412
   93SAPS  H17X 9204   5.400   5.946   8.834  1.2148 -0.7634  0.0894
   93SAPS  H17Y 9205   5.407   5.778   8.801  0.6536  0.3156  1.2117
   93SAPS  C318 9206   5.258   5.841   8.947  0.0382  0.1030 -0.3103
   93SAPS  H18X 9207   5.201   5.933   8.974 -0.7378 -0.7269  1.0035
   93SAPS  H18Y 9208   5.331   5.814   9.025  1.3166 -0.0928 -1.5450
   93SAPS  H18Z 9209   5.184   5.759   8.937 -1.6957  1.7987 -2.2509
   94SAPS     N 9210   5.887   1.074   5.529 -0.2017 -0.4990  0.0722
   94SAPS   HN1 9211   5.838   1.024   5.453 -0.1891 -2.6043  1.3743
   94SAPS   HN2 9212   5.818   1.135   5.579  1.6944 -0.9156  3.5437
   94SAPS   HN3 9213   5.954   1.144   5.490  1.0978 -2.4794 -1.4661
   94SAPS   C12 9214   5.959   0.976   5.614  0.0737 -0.7230 -0.0434
   94SAPS  H12A 9215   5.875   0.912   5.637  0.0934 -0.1666  1.6709
   94SAPS   C13 9216   6.069   0.892   5.530  0.2269 -0.6774 -0.2092
   94SAPS  O13A 9217   6.107   0.938   5.420  0.3836  0.6759 -0.3118
   94SAPS  O13B 9218   6.119   0.796   5.591 -0.2477  0.4613  0.4523
   94SAPS   C11 9219   6.024   1.046   5.740 -0.1381  0.2909 -0.2981
   94SAPS  H11A 9220   6.094   1.125   5.705  0.1937 -0.1814 -0.7021
   94SAPS  H11B 9221   6.077   0.963   5.791 -1.6460  0.1267  1.1001
   94SAPS     P 9222   5.956   1.211   5.922 -0.1419 -0.3167  0.1014
   94SAPS   O13 9223   5.947   1.338   5.842  0.5613  0.3955  0.6159
   94SAPS   O14 9224   5.861   1.211   6.041  0.4048  0.7107  0.8232
   94SAPS   O12 9225   5.923   1.091   5.827  0.2253  0.0036  0.2857
   94SAPS   O11 9226   6.104   1.181   5.969  0.1277 -0.0628  0.5294
   94SAPS    C1 9227   6.124   1.085   6.080 -0.9590 -0.1333 -0.6742
   94SAPS    HA 9228   6.037   1.024   6.112  1.3136 -2.2299  2.0293
   94SAPS    HB 9229   6.193   1.005   6.046  0.6150  0.5549  0.7677
   94SAPS    C2 9230   6.175   1.149   6.212 -0.2207  0.0803 -0.6280
   94SAPS    HS 9231   6.146   1.077   6.292  0.3175  0.1929 -0.3270
   94SAPS   O21 9232   6.115   1.281   6.231  0.4252 -0.2306 -0.3248
   94SAPS   C21 9233   6.008   1.284   6.311  0.0221  0.1188 -0.1997
   94SAPS   O22 9234   5.968   1.193   6.381 -0.6710  0.3769  0.5374
   94SAPS   C22 9235   5.954   1.430   6.310  0.1477 -0.3474 -0.1191
   94SAPS   H2R 9236   6.038   1.502   6.305 -0.9652  0.9287 -0.9226
   94SAPS   H2S 9237   5.892   1.436   6.218 -0.7316  0.1663  0.5001
   94SAPS    C3 9238   6.331   1.171   6.212 -0.3821  0.4632  0.0111
   94SAPS    HX 9239   6.350   1.259   6.146  2.5155  3.7215  4.5497
   94SAPS    HY 9240   6.383   1.086   6.164  0.9609  0.4385  1.4486
   94SAPS   O31 9241   6.379   1.210   6.345 -0.1320 -0.0624  0.2787
   94SAPS   C31 9242   6.426   1.111   6.424  0.4557  0.2055  0.1417
   94SAPS   O32 9243   6.426   0.994   6.402  0.2686  0.1171  0.1695
   94SAPS   C32 9244   6.472   1.177   6.546  0.3754 -0.7039 -0.4347
   94SAPS   H2X 9245   6.390   1.246   6.576  0.0604 -0.0860 -2.5111
   94SAPS   H2Y 9246   6.565   1.237   6.531  0.3117 -0.1344  1.2280
   94SAPS   C23 9247   5.851   1.455   6.425 -0.0109  0.5325  0.1790
   94SAPS   H3R 9248   5.903   1.427   6.519  0.7820 -0.5086 -0.5535
   94SAPS   H3S 9249   5.764   1.386   6.422  0.7809 -0.4725  0.0707
   94SAPS   C24 9250   5.812   1.599   6.439 -0.4833  0.3545  0.3405
   94SAPS   H4R 9251   5.724   1.580   6.505 -0.0645 -0.5493  0.6588
   94SAPS   H4S 9252   5.776   1.635   6.341 -0.4980  0.8700  0.5327
   94SAPS   C25 9253   5.924   1.680   6.509  0.4535 -0.4826 -0.3034
   94SAPS   H5R 9254   6.003   1.710   6.438 -0.1020  0.3749 -0.5861
   94SAPS   C26 9255   5.946   1.706   6.641  0.2238 -0.1128 -0.2187
   94SAPS   H6R 9256   6.040   1.753   6.673 -0.0232 -0.3472  0.8857
   94SAPS   C27 9257   5.863   1.654   6.747 -0.4375 -0.1880  0.2968
   94SAPS   H7R 9258   5.881   1.545   6.749 -0.6116 -0.2591 -1.1152
   94SAPS   H7S 9259   5.757   1.664   6.714 -0.7005 -1.8958  0.5357
   94SAPS   C28 9260   5.886   1.730   6.881  0.1640 -0.7075 -0.4745
   94SAPS   H8R 9261   5.986   1.771   6.905 -0.2042  0.1161 -0.3108
   94SAPS   C29 9262   5.801   1.721   6.988 -0.7024  0.1223  0.2593
   94SAPS   H9R 9263   5.830   1.756   7.088  1.4787  0.6619 -0.4959
   94SAPS  C210 9264   5.688   1.628   6.994 -0.4194  0.2216 -0.0574
   94SAPS  H10R 9265   5.727   1.535   7.040  4.1171  0.9907 -1.8452
   94SAPS  H10S 9266   5.651   1.599   6.893 -1.0911  1.3620 -0.1614
   94SAPS  C211 9267   5.568   1.675   7.079 -0.1500 -0.8783  0.3504
   94SAPS  H11R 9268   5.518   1.764   7.036 -0.7273 -1.0645  0.6322
   94SAPS  C212 9269   5.529   1.631   7.199 -0.1433  0.9462 -0.0908
   94SAPS  H12R 9270   5.453   1.698   7.242 -0.3148  0.4161  0.4385
   94SAPS  C213 9271   5.588   1.518   7.283 -0.1521 -0.9201  0.0782
   94SAPS  H13R 9272   5.657   1.460   7.217  1.4909  2.7064 -1.6612
   94SAPS  H13S 9273   5.499   1.454   7.303 -1.6579  0.6432 -1.2673
   94SAPS  C214 9274   5.660   1.556   7.397 -0.2637 -0.2456  0.2534
   94SAPS  H14R 9275   5.756   1.600   7.365 -1.6110  2.8555  0.1059
   94SAPS  C215 9276   5.631   1.548   7.528 -0.0240 -0.2638 -0.1831
   94SAPS  H15R 9277   5.706   1.589   7.597  1.2568  1.3587 -2.4090
   94SAPS  C216 9278   5.508   1.484   7.584  0.4140  0.1308 -0.1882
   94SAPS  H16R 9279   5.466   1.397   7.529  1.0514 -0.4771  0.2759
   94SAPS  H16S 9280   5.434   1.566   7.595  3.2104  2.7507  0.3629
   94SAPS  C217 9281   5.544   1.438   7.732 -0.3692  0.3790  0.1969
   94SAPS  H17R 9282   5.647   1.395   7.733 -0.4782  0.0676 -0.9888
   94SAPS  H17S 9283   5.467   1.360   7.751 -1.9041  1.5299 -1.0428
   94SAPS  C218 9284   5.540   1.540   7.834 -0.2985  0.3886 -0.0137
   94SAPS  H18R 9285   5.441   1.590   7.826 -1.1075 -1.4049 -2.0440
   94SAPS  H18S 9286   5.617   1.620   7.821  1.6900 -1.0611  1.9995
   94SAPS  C219 9287   5.548   1.485   7.976 -0.2600 -0.3780  0.3902
   94SAPS  H19R 9288   5.633   1.414   7.968  1.7024  1.8506  0.5254
   94SAPS  H19S 9289   5.452   1.431   7.993 -2.5296  3.7308  2.0628
   94SAPS  C220 9290   5.576   1.592   8.090 -0.3661  0.2439  0.3277
   94SAPS  H20R 9291   5.485   1.653   8.107 -0.1304  0.6679  0.0877
   94SAPS  H20S 9292   5.657   1.654   8.045  1.2954 -1.8996  0.1614
   94SAPS  H20T 9293   5.612   1.529   8.174  1.0655 -0.3949 -0.7091
   94SAPS   C33 9294   6.508   1.079   6.664  0.8218  0.7537  0.7969
   94SAPS   H3X 9295   6.577   1.127   6.736 -0.4530 -0.4472  2.9226
   94SAPS   H3Y 9296   6.557   0.988   6.622 -0.9727 -0.0988  0.4614
   94SAPS   C34 9297   6.382   1.038   6.745  0.5156 -0.3062  0.2090
   94SAPS   H4X 9298   6.303   0.997   6.679  0.5630  0.2509 -0.2013
   94SAPS   H4Y 9299   6.340   1.125   6.799  2.4485  0.8027  0.0201
   94SAPS   C35 9300   6.415   0.939   6.851  0.6640  0.1701  0.6345
   94SAPS   H5X 9301   6.482   0.992   6.922  0.6162 -0.5525  1.2323
   94SAPS   H5Y 9302   6.476   0.857   6.808  0.6335  1.1323 -1.3250
   94SAPS   C36 9303   6.291   0.884   6.916 -0.3405 -0.5858  0.3673
   94SAPS   H6X 9304   6.233   0.820   6.846 -0.7089 -1.5001  1.4586
   94SAPS   H6Y 9305   6.229   0.970   6.948 -0.3429 -0.5394  0.2369
   94SAPS   C37 9306   6.315   0.815   7.053 -0.1690 -0.0476 -0.0982
   94SAPS   H7X 9307   6.401   0.745   7.044  0.6786  1.1196 -1.3415
   94SAPS   H7Y 9308   6.224   0.755   7.077 -2.5883  1.9404 -3.3738
   94SAPS   C38 9309   6.340   0.914   7.168 -0.3125  0.1522 -0.9803
   94SAPS   H8X 9310   6.262   0.993   7.177  0.3240  0.5530  2.1619
   94SAPS   H8Y 9311   6.434   0.968   7.144 -0.1619  0.1161 -0.4821
   94SAPS   C39 9312   6.355   0.859   7.316 -0.0123 -0.1093  0.3505
   94SAPS   H9X 9313   6.444   0.792   7.319 -0.7508 -1.1481 -0.1961
   94SAPS   H9Y 9314   6.267   0.793   7.331 -2.2579  2.8181  1.0068
   94SAPS  C310 9315   6.365   0.965   7.418  0.3561  0.6612 -0.2568
   94SAPS  H10X 9316   6.271   1.024   7.422  0.6275  1.0323  1.6163
   94SAPS  H10Y 9317   6.449   1.034   7.393  0.7708  0.5332  0.7227
   94SAPS  C311 9318   6.386   0.895   7.554  0.0073 -0.6067 -0.4554
   94SAPS  H11X 9319   6.493   0.867   7.550  0.0681 -1.1437  2.4373
   94SAPS  H11Y 9320   6.320   0.805   7.559 -0.0581 -0.5004  0.7661
   94SAPS  C312 9321   6.366   0.986   7.676 -0.2994  0.0830  0.4846
   94SAPS  H12X 9322   6.262   1.024   7.675  0.3725  2.0598 -0.2709
   94SAPS  H12Y 9323   6.420   1.080   7.650 -0.8993  0.3429  0.1687
   94SAPS  C313 9324   6.395   0.938   7.814  0.2725  0.5648 -0.6939
   94SAPS  H13X 9325   6.505   0.928   7.814  0.1898 -0.3745 -0.5681
   94SAPS  H13Y 9326   6.353   0.840   7.844 -0.9029  1.3010  0.1501
   94SAPS  C314 9327   6.353   1.047   7.915  0.3298  0.6532 -0.1281
   94SAPS  H14X 9328   6.242   1.037   7.915  0.4329 -0.7025 -0.8437
   94SAPS  H14Y 9329   6.388   1.148   7.883 -0.6167  0.8831 -0.4680
   94SAPS  C315 9330   6.385   1.030   8.062 -0.2189 -0.2419 -0.2785
   94SAPS  H15X 9331   6.492   1.031   8.092 -0.3893 -0.8555  0.3790
   94SAPS  H15Y 9332   6.351   0.933   8.106  0.3857  0.8632  2.9220
   94SAPS  C316 9333   6.307   1.142   8.136  0.0070  0.5831 -0.7382
   94SAPS  H16X 9334   6.201   1.122   8.110  0.5808 -0.3499 -2.5197
   94SAPS  H16Y 9335   6.339   1.240   8.095  0.8418  0.3586 -0.6356
   94SAPS  C317 9336   6.333   1.131   8.290  0.2097  0.6273  0.8107
   94SAPS  H17X 9337   6.294   1.217   8.349  0.9587  0.6515  1.2913
   94SAPS  H17Y 9338   6.442   1.122   8.305  0.5203  1.1122 -0.9504
   94SAPS  C318 9339   6.266   1.002   8.341  0.3535  0.2414 -0.6023
   94SAPS  H18X 9340   6.246   1.002   8.450 -0.4024 -2.2600 -0.6873
   94SAPS  H18Y 9341   6.331   0.914   8.326  2.7945  1.6070  1.2853
   94SAPS  H18Z 9342   6.164   0.993   8.297 -0.5471  1.1321  1.2117
   95SAPS     N 9343   1.469   5.800   6.144 -0.1268  0.6199 -0.3710
   95SAPS   HN1 9344   1.448   5.902   6.136  0.8100  0.9752  1.3842
   95SAPS   HN2 9345   1.528   5.794   6.229 -1.2428  0.0152  0.3850
   95SAPS   HN3 9346   1.534   5.772   6.068  1.1404 -0.0042  0.9171
   95SAPS   C12 9347   1.352   5.707   6.149  0.6806  0.1594  0.6530
   95SAPS  H12A 9348   1.290   5.748   6.072  1.4413 -1.1282 -0.6978
   95SAPS   C13 9349   1.373   5.556   6.107  0.4678 -0.8337  0.4995
   95SAPS  O13A 9350   1.491   5.513   6.108 -0.2065 -0.2429  0.2423
   95SAPS  O13B 9351   1.275   5.478   6.123 -0.1626 -0.2424 -0.2897
   95SAPS   C11 9352   1.282   5.720   6.296 -0.8313  0.0286  0.4869
   95SAPS  H11A 9353   1.341   5.658   6.367 -2.5903 -2.0669  0.2352
   95SAPS  H11B 9354   1.178   5.681   6.293 -0.4885 -0.8972  0.3696
   95SAPS     P 9355   1.188   5.907   6.455 -0.3879  0.0043  0.1912
   95SAPS   O13 9356   1.237   6.045   6.494  0.3713  0.8165  0.1180
   95SAPS   O14 9357   1.048   5.891   6.413 -0.0534  0.0248  0.1395
   95SAPS   O12 9358   1.280   5.854   6.336  0.3431  0.5241  0.8846
   95SAPS   O11 9359   1.222   5.813   6.574 -0.3714  0.1080  0.1725
   95SAPS    C1 9360   1.349   5.767   6.604 -0.4394  0.4114 -0.0280
   95SAPS    HA 9361   1.349   5.657   6.589  1.0474  0.6526 -2.2737
   95SAPS    HB 9362   1.434   5.810   6.547  0.1013  2.2735  2.0573
   95SAPS    C2 9363   1.376   5.786   6.753  0.0788  0.3763  0.4362
   95SAPS    HS 9364   1.481   5.769   6.785  0.5112 -1.2873 -1.6112
   95SAPS   O21 9365   1.283   5.705   6.835 -0.1777 -0.6801  0.1483
   95SAPS   C21 9366   1.318   5.580   6.837  0.3786  0.3543  0.0194
   95SAPS   O22 9367   1.409   5.527   6.772 -0.1758 -0.3622 -0.0464
   95SAPS   C22 9368   1.242   5.503   6.944  0.1312 -0.2094  0.4521
   95SAPS   H2R 9369   1.225   5.570   7.031 -0.4187  0.0592  0.1398
   95SAPS   H2S 9370   1.141   5.481   6.904 -0.0139  1.9654 -0.5166
   95SAPS    C3 9371   1.363   5.933   6.792  0.5295 -0.3900  0.0292
   95SAPS    HX 9372   1.265   5.975   6.760  0.6502 -0.0486  0.0966
   95SAPS    HY 9373   1.429   5.994   6.726 -0.6601 -0.2133 -1.0352
   95SAPS   O31 9374   1.387   5.951   6.933  0.0738 -0.1096 -0.0924
   95SAPS   C31 9375   1.373   6.083   6.977  0.1704 -0.2898  0.8554
   95SAPS   O32 9376   1.322   6.168   6.900  0.2976 -0.1937 -0.1090
   95SAPS   C32 9377   1.454   6.111   7.096 -0.3988 -0.6039  0.3055
   95SAPS   H2X 9378   1.529   6.189   7.070 -1.8389  0.3909 -1.0790
   95SAPS   H2Y 9379   1.514   6.023   7.127 -0.4303 -1.3228 -1.5588
   95SAPS   C23 9380   1.311   5.378   6.997  0.8612 -0.1507  0.6540
   95SAPS   H3R 9381   1.413   5.411   7.025  0.4261  2.4493 -0.5252
   95SAPS   H3S 9382   1.321   5.304   6.914 -1.6434  0.3549 -0.1843
   95SAPS   C24 9383   1.238   5.313   7.121  0.4251  0.0396 -0.3826
   95SAPS   H4R 9384   1.233   5.392   7.199 -1.4911  1.0206 -1.4410
   95SAPS   H4S 9385   1.301   5.229   7.158 -2.1752 -1.3321  1.2199
   95SAPS   C25 9386   1.103   5.256   7.090  0.4951  0.0853  0.1821
   95SAPS   H5R 9387   1.098   5.160   7.036 -1.3133 -1.0261  2.2005
   95SAPS   C26 9388   0.986   5.299   7.144  0.4337  0.1410  0.0806
   95SAPS   H6R 9389   0.891   5.244   7.133  0.8396 -0.9684  1.8152
   95SAPS   C27 9390   0.963   5.419   7.236  0.9284  0.7249  0.7308
   95SAPS   H7R 9391   1.050   5.488   7.248 -0.1378  1.7895  2.7675
   95SAPS   H7S 9392   0.946   5.370   7.334  0.5190 -1.8807 -0.5563
   95SAPS   C28 9393   0.839   5.482   7.190  0.5353 -0.6940  0.2579
   95SAPS   H8R 9394   0.845   5.545   7.099 -2.3310  0.9782  1.0964
   95SAPS   C29 9395   0.723   5.496   7.256  0.3156  0.7454  0.9212
   95SAPS   H9R 9396   0.644   5.537   7.191 -0.4474  0.3415  1.5863
   95SAPS  C210 9397   0.682   5.437   7.385  0.3126 -0.4973 -0.0943
   95SAPS  H10R 9398   0.622   5.516   7.435  1.0114 -0.5740  0.8943
   95SAPS  H10S 9399   0.765   5.423   7.458  0.3863  1.4164  0.2336
   95SAPS  C211 9400   0.593   5.315   7.375  0.0892  0.6655 -0.2995
   95SAPS  H11R 9401   0.573   5.272   7.276  1.1575 -0.7874  0.0912
   95SAPS  C212 9402   0.545   5.254   7.489  0.1752  0.0604 -0.2289
   95SAPS  H12R 9403   0.484   5.164   7.471  0.6550 -0.1564 -0.7818
   95SAPS  C213 9404   0.571   5.293   7.632  0.4742 -0.0497 -0.1980
   95SAPS  H13R 9405   0.479   5.302   7.693 -0.7095  0.7729 -2.0184
   95SAPS  H13S 9406   0.610   5.397   7.631 -0.5522  0.3427 -2.0001
   95SAPS  C214 9407   0.670   5.202   7.702 -0.4117 -0.0865  0.6408
   95SAPS  H14R 9408   0.738   5.147   7.635  0.6959  0.3841  1.3591
   95SAPS  C215 9409   0.690   5.176   7.830 -0.9357 -0.2866  0.2980
   95SAPS  H15R 9410   0.770   5.105   7.857 -2.0233 -1.3120  0.9456
   95SAPS  C216 9411   0.617   5.232   7.953  0.7359  0.0483 -0.0746
   95SAPS  H16R 9412   0.636   5.174   8.046 -1.8827 -1.1158 -0.1783
   95SAPS  H16S 9413   0.508   5.234   7.930  0.8182 -1.5450 -0.7221
   95SAPS  C217 9414   0.662   5.380   7.989 -0.2769  0.6500  0.1562
   95SAPS  H17R 9415   0.598   5.427   8.066 -1.4762 -0.3900 -0.1669
   95SAPS  H17S 9416   0.664   5.448   7.901  0.9253  0.3341 -0.0718
   95SAPS  C218 9417   0.793   5.374   8.065 -0.2792 -0.3990  0.1238
   95SAPS  H18R 9418   0.870   5.328   7.999  0.8935  1.9742 -0.2469
   95SAPS  H18S 9419   0.778   5.306   8.152 -1.4790 -0.8168 -0.3743
   95SAPS  C219 9420   0.840   5.515   8.101  0.1921 -0.4118 -0.7426
   95SAPS  H19R 9421   0.760   5.570   8.154  1.0349 -0.0994  0.2227
   95SAPS  H19S 9422   0.849   5.566   8.003  0.1701 -2.9034 -2.1383
   95SAPS  C220 9423   0.965   5.515   8.187  0.2848 -0.2149 -0.2349
   95SAPS  H20R 9424   1.058   5.508   8.127 -0.1497  2.6502 -1.3858
   95SAPS  H20S 9425   0.964   5.436   8.265 -1.1560  0.4818  0.4939
   95SAPS  H20T 9426   0.963   5.602   8.256 -2.4776 -0.7683  0.5414
   95SAPS   C33 9427   1.369   6.162   7.219  0.3283 -0.3288  0.1035
   95SAPS   H3X 9428   1.319   6.075   7.265  2.1041 -0.8009  1.2465
   95SAPS   H3Y 9429   1.295   6.240   7.191  0.5150 -0.1884  0.0004
   95SAPS   C34 9430   1.452   6.243   7.313  0.0160 -0.6046  0.0896
   95SAPS   H4X 9431   1.466   6.349   7.283 -1.9207 -0.2900  0.2286
   95SAPS   H4Y 9432   1.550   6.189   7.311  0.1379 -0.3732 -1.6101
   95SAPS   C35 9433   1.389   6.237   7.454  0.0737  0.2133  0.5729
   95SAPS   H5X 9434   1.360   6.133   7.483  0.6042  0.4352  1.9879
   95SAPS   H5Y 9435   1.297   6.298   7.460 -0.9530 -1.4092  3.7802
   95SAPS   C36 9436   1.483   6.301   7.558  0.0112 -0.2786 -0.5200
   95SAPS   H6X 9437   1.480   6.408   7.531 -0.7975  0.3244  1.6857
   95SAPS   H6Y 9438   1.585   6.257   7.559 -0.3827 -1.2295 -0.2360
   95SAPS   C37 9439   1.423   6.287   7.700 -0.4182 -0.5974  0.5975
   95SAPS   H7X 9440   1.335   6.352   7.715  1.3543  2.2079 -0.4234
   95SAPS   H7Y 9441   1.489   6.341   7.771 -1.6806  1.8399  0.0259
   95SAPS   C38 9442   1.415   6.137   7.744 -0.6616  0.2212  0.0291
   95SAPS   H8X 9443   1.514   6.087   7.740 -0.3974  0.7323  0.1910
   95SAPS   H8Y 9444   1.351   6.086   7.669  1.5335 -0.4452 -1.4903
   95SAPS   C39 9445   1.369   6.129   7.889  0.1497 -0.7493  0.4428
   95SAPS   H9X 9446   1.276   6.186   7.910 -0.5599 -2.2209  1.4815
   95SAPS   H9Y 9447   1.445   6.174   7.956 -1.1510  0.7027  1.0017
   95SAPS  C310 9448   1.352   5.989   7.940 -0.2339 -0.4079 -0.1267
   95SAPS  H10X 9449   1.450   5.936   7.930 -0.2262 -0.1611 -1.5566
   95SAPS  H10Y 9450   1.276   5.937   7.878 -0.3547  1.1489 -1.3548
   95SAPS  C311 9451   1.294   5.984   8.084  0.6508  0.4316 -0.1399
   95SAPS  H11X 9452   1.186   6.010   8.079  0.7292  0.5566 -1.8385
   95SAPS  H11Y 9453   1.342   6.056   8.153  1.3228 -0.2752  0.1556
   95SAPS  C312 9454   1.316   5.852   8.150  0.2434  1.1661  0.9955
   95SAPS  H12X 9455   1.421   5.815   8.152 -1.1731 -3.3390  1.6583
   95SAPS  H12Y 9456   1.258   5.775   8.095  1.3171  1.4033 -0.5491
   95SAPS  C313 9457   1.270   5.852   8.299 -0.0907  0.6029 -0.2832
   95SAPS  H13X 9458   1.180   5.914   8.317 -1.5642 -1.3761 -0.5841
   95SAPS  H13Y 9459   1.352   5.895   8.361  0.9608 -0.9690 -0.5272
   95SAPS  C314 9460   1.239   5.708   8.347 -0.4458  1.0154 -0.1373
   95SAPS  H14X 9461   1.333   5.659   8.316 -0.6897  2.4161 -3.5639
   95SAPS  H14Y 9462   1.157   5.666   8.285 -0.1380 -0.5387  0.4784
   95SAPS  C315 9463   1.216   5.687   8.496 -0.2678  0.3518 -0.0196
   95SAPS  H15X 9464   1.310   5.713   8.548 -1.5365  0.9597  2.1268
   95SAPS  H15Y 9465   1.211   5.578   8.518 -2.1243  0.0946 -1.4175
   95SAPS  C316 9466   1.111   5.776   8.562 -0.4755 -0.1614 -0.0796
   95SAPS  H16X 9467   1.141   5.880   8.541 -0.5635 -0.3850 -1.4061
   95SAPS  H16Y 9468   1.126   5.772   8.672 -2.1337  1.1296  0.2302
   95SAPS  C317 9469   0.961   5.743   8.531  0.3013 -0.0704 -0.9290
   95SAPS  H17X 9470   0.947   5.771   8.424  1.4129 -2.6673 -1.8117
   95SAPS  H17Y 9471   0.887   5.812   8.578  0.5051  0.7544 -1.7882
   95SAPS  C318 9472   0.918   5.601   8.547 -0.2920 -0.1420  0.3581
   95SAPS  H18X 9473   0.817   5.574   8.510  0.9636 -1.0632 -2.7841
   95SAPS  H18Y 9474   0.941   5.569   8.651  1.6940 -3.4269 -0.9077
   95SAPS  H18Z 9475   0.982   5.530   8.490 -0.2291  0.1311  0.0900
   96SAPS     N 9476   2.173   0.600   6.034  0.9449  0.0767  0.5273
   96SAPS   HN1 9477   2.220   0.644   5.952 -1.1113  1.9580  0.2663
   96SAPS   HN2 9478   2.191   0.653   6.121  0.9433 -1.3304  1.4004
   96SAPS   HN3 9479   2.197   0.499   6.041  2.5268  0.4125  0.2268
   96SAPS   C12 9480   2.028   0.607   6.008 -0.4275  0.2318 -0.3167
   96SAPS  H12A 9481   1.997   0.709   6.024  0.0276  0.9930 -3.5805
   96SAPS   C13 9482   1.979   0.581   5.872 -0.6060 -0.2606 -0.2038
   96SAPS  O13A 9483   2.061   0.532   5.788 -0.1779 -0.1458  0.0043
   96SAPS  O13B 9484   1.855   0.566   5.858 -0.0420  0.3922 -0.0263
   96SAPS   C11 9485   1.946   0.529   6.115  0.2093 -0.5311 -0.5939
   96SAPS  H11A 9486   1.965   0.420   6.103  1.1140 -0.5567  0.8606
   96SAPS  H11B 9487   1.837   0.541   6.097  0.4626  1.7612 -0.9165
   96SAPS     P 9488   1.914   0.530   6.380  0.4580 -0.2868 -0.2483
   96SAPS   O13 9489   1.925   0.622   6.493  0.0872 -0.6669 -0.2265
   96SAPS   O14 9490   1.771   0.480   6.356  0.0410 -0.0058 -0.6346
   96SAPS   O12 9491   1.969   0.591   6.246 -0.2658  0.9489 -0.3177
   96SAPS   O11 9492   2.011   0.407   6.391 -0.5668  0.2615 -0.2788
   96SAPS    C1 9493   2.155   0.418   6.379  0.0325  0.0036 -0.1091
   96SAPS    HA 9494   2.192   0.349   6.300  1.9255 -0.6360  1.2801
   96SAPS    HB 9495   2.182   0.514   6.329  0.9935 -1.5817 -2.8879
   96SAPS    C2 9496   2.229   0.391   6.513 -0.6552 -0.0218 -0.3167
   96SAPS    HS 9497   2.189   0.297   6.558  0.0708 -0.0360  0.3281
   96SAPS   O21 9498   2.214   0.500   6.601  0.8335 -0.2117 -0.9706
   96SAPS   C21 9499   2.115   0.487   6.691  0.5942  0.7842 -0.6025
   96SAPS   O22 9500   2.029   0.397   6.698 -0.1971  0.1063  0.0005
   96SAPS   C22 9501   2.139   0.602   6.792  0.0107 -0.2107 -0.3759
   96SAPS   H2R 9502   2.245   0.587   6.822  0.4757  0.1586 -1.7615
   96SAPS   H2S 9503   2.139   0.698   6.737  0.5357 -0.3746 -0.6664
   96SAPS    C3 9504   2.380   0.356   6.492 -0.0657 -0.1704  0.3721
   96SAPS    HX 9505   2.425   0.437   6.430  0.1532 -0.6348 -0.0810
   96SAPS    HY 9506   2.399   0.266   6.429  0.8326  1.3853 -1.6926
   96SAPS   O31 9507   2.444   0.354   6.619  0.0280  0.3009 -0.3860
   96SAPS   C31 9508   2.433   0.243   6.691 -0.3857 -0.2049 -0.5300
   96SAPS   O32 9509   2.372   0.143   6.656  0.1510 -0.2652 -0.3022
   96SAPS   C32 9510   2.511   0.269   6.821  0.7366 -0.2470 -0.1144
   96SAPS   H2X 9511   2.502   0.376   6.851  0.7199  0.2270 -1.7167
   96SAPS   H2Y 9512   2.618   0.249   6.797  0.4205 -0.2853 -1.5674
   96SAPS   C23 9513   2.044   0.607   6.914 -0.0593  0.3972  0.3127
   96SAPS   H3R 9514   1.948   0.609   6.858 -0.0507 -1.4655  0.1464
   96SAPS   H3S 9515   2.066   0.703   6.965  0.0995  0.5405 -0.0198
   96SAPS   C24 9516   2.052   0.487   7.014  0.2487 -0.4126 -0.3517
   96SAPS   H4R 9517   2.006   0.394   6.973 -0.1226 -1.6554  2.6427
   96SAPS   H4S 9518   1.981   0.517   7.094 -1.2765  0.4953 -1.9732
   96SAPS   C25 9519   2.182   0.442   7.072  0.0846  0.6374 -0.6628
   96SAPS   H5R 9520   2.245   0.401   6.991 -1.9444 -1.4640 -1.2793
   96SAPS   C26 9521   2.225   0.432   7.195  0.0184  0.5091  0.2418
   96SAPS   H6R 9522   2.327   0.391   7.197 -0.6964 -1.3647  0.8946
   96SAPS   C27 9523   2.152   0.476   7.321  0.1571  0.2355 -0.8817
   96SAPS   H7R 9524   2.070   0.546   7.291 -0.1534  0.0292 -0.5264
   96SAPS   H7S 9525   2.216   0.546   7.378  0.7940 -1.0289 -0.0222
   96SAPS   C28 9526   2.106   0.347   7.400  0.5610 -0.2334 -0.4356
   96SAPS   H8R 9527   2.048   0.266   7.353 -2.2460  1.9466 -1.0137
   96SAPS   C29 9528   2.140   0.325   7.531  0.3269  0.5663  0.1929
   96SAPS   H9R 9529   2.098   0.234   7.576  0.7979  0.9170  1.3657
   96SAPS  C210 9530   2.212   0.407   7.636  0.1290  0.0107  0.5886
   96SAPS  H10R 9531   2.274   0.490   7.596  0.5259  0.2123  1.5865
   96SAPS  H10S 9532   2.284   0.334   7.679 -0.1317  0.0219  1.0569
   96SAPS  C211 9533   2.116   0.460   7.737  0.3712 -0.1873 -0.0564
   96SAPS  H11R 9534   2.073   0.560   7.725 -2.1008 -1.0914  0.6010
   96SAPS  C212 9535   2.074   0.395   7.842 -0.0228 -0.5341  0.0976
   96SAPS  H12R 9536   2.003   0.449   7.907 -1.3761 -1.1981 -0.8001
   96SAPS  C213 9537   2.100   0.259   7.893 -0.5532  0.4415 -0.1875
   96SAPS  H13R 9538   2.170   0.207   7.823  0.9085  0.2212  1.3663
   96SAPS  H13S 9539   1.999   0.217   7.876  0.3312 -1.9325  0.0486
   96SAPS  C214 9540   2.156   0.240   8.035 -0.0519 -0.4096 -0.7035
   96SAPS  H14R 9541   2.253   0.289   8.049 -0.0487 -0.6382  0.0965
   96SAPS  C215 9542   2.110   0.156   8.131  0.5107  0.3862  0.1363
   96SAPS  H15R 9543   2.170   0.141   8.222 -0.1064 -2.0700  0.1914
   96SAPS  C216 9544   1.977   0.083   8.115 -0.2406 -0.7010  0.4259
   96SAPS  H16R 9545   1.997  -0.001   8.045  0.8080 -0.5564  0.5376
   96SAPS  H16S 9546   1.898   0.151   8.076  1.5109  1.0349 -0.2473
   96SAPS  C217 9547   1.937   0.024   8.253  0.9436 -0.3565  0.3340
   96SAPS  H17R 9548   2.015  -0.050   8.282 -0.8057 -1.8709  1.4405
   96SAPS  H17S 9549   1.838  -0.026   8.248 -0.6988  2.6435  0.8129
   96SAPS  C218 9550   1.933   0.127   8.372 -0.4740  0.0851 -0.2446
   96SAPS  H18R 9551   1.837   0.183   8.372 -0.2985  0.3959 -0.6113
   96SAPS  H18S 9552   2.008   0.209   8.372 -1.2123  0.8024 -1.6326
   96SAPS  C219 9553   1.967   0.055   8.503 -0.3119  0.4249  0.3351
   96SAPS  H19R 9554   2.076   0.039   8.494  0.1831  3.7248 -0.6046
   96SAPS  H19S 9555   1.916  -0.044   8.494 -0.2773  0.4941 -0.7260
   96SAPS  C220 9556   1.921   0.121   8.630 -0.2447 -0.5832 -0.3705
   96SAPS  H20R 9557   1.810   0.122   8.635 -0.1986 -0.0049  0.7316
   96SAPS  H20S 9558   1.960   0.225   8.630 -1.9426  0.1940 -3.8290
   96SAPS  H20T 9559   1.951   0.074   8.726  0.9373 -1.2424 -1.0316
   96SAPS   C33 9560   2.457   0.190   6.941 -0.6803 -0.2018  0.1069
   96SAPS   H3X 9561   2.444   0.082   6.919 -1.0098 -0.0581 -0.4233
   96SAPS   H3Y 9562   2.361   0.237   6.972 -0.6695 -0.5113  0.6204
   96SAPS   C34 9563   2.559   0.212   7.061  0.0045  0.3525  0.5593
   96SAPS   H4X 9564   2.578   0.316   7.094  0.6991  0.7403 -0.9524
   96SAPS   H4Y 9565   2.658   0.175   7.024 -0.2612  1.1845 -1.0839
   96SAPS   C35 9566   2.519   0.130   7.192  0.4299  0.4419 -0.2762
   96SAPS   H5X 9567   2.519   0.020   7.176  0.1689  0.3913  0.0625
   96SAPS   H5Y 9568   2.413   0.160   7.209  0.6802  0.3757  1.5921
   96SAPS   C36 9569   2.623   0.149   7.300 -0.5756  0.2847  0.5106
   96SAPS   H6X 9570   2.643   0.257   7.316 -2.4254  0.4936  1.7015
   96SAPS   H6Y 9571   2.722   0.103   7.278 -2.2967 -3.3603 -0.3104
   96SAPS   C37 9572   2.589   0.098   7.446 -0.1362 -0.5862  0.0508
   96SAPS   H7X 9573   2.552  -0.007   7.444 -0.5967 -0.4293  0.3385
   96SAPS   H7Y 9574   2.499   0.152   7.482  0.1909 -1.2837  2.0493
   96SAPS   C38 9575   2.701   0.114   7.552  0.2252 -0.2883  1.1140
   96SAPS   H8X 9576   2.742   0.217   7.544 -0.5256 -0.1288 -4.8288
   96SAPS   H8Y 9577   2.781   0.045   7.518 -1.5610 -1.6847 -0.5028
   96SAPS   C39 9578   2.671   0.093   7.694  0.3162 -0.8038  0.0450
   96SAPS   H9X 9579   2.632  -0.008   7.717  2.2837 -1.9150 -1.1867
   96SAPS   H9Y 9580   2.579   0.154   7.708 -0.7288 -1.9762 -1.3626
   96SAPS  C310 9581   2.782   0.126   7.792 -1.0755  0.0031  0.0186
   96SAPS  H10X 9582   2.833   0.225   7.799  0.4541 -0.8656  2.4313
   96SAPS  H10Y 9583   2.856   0.046   7.773 -2.0998 -0.1022 -4.8094
   96SAPS  C311 9584   2.724   0.114   7.934 -0.1050 -0.7687  0.4663
   96SAPS  H11X 9585   2.686   0.010   7.935  1.5220 -1.5081 -2.6863
   96SAPS  H11Y 9586   2.639   0.186   7.936 -0.4731 -1.0856 -1.6242
   96SAPS  C312 9587   2.814   0.155   8.049 -0.2344 -1.3759  0.3625
   96SAPS  H12X 9588   2.837   0.263   8.033 -2.8001 -0.9176 -0.7169
   96SAPS  H12Y 9589   2.901   0.087   8.056  1.6165  0.9704  2.1260
   96SAPS  C313 9590   2.754   0.155   8.191  0.2569  0.6562  0.4098
   96SAPS  H13X 9591   2.744   0.047   8.213 -1.3081  0.6450 -0.2036
   96SAPS  H13Y 9592   2.656   0.206   8.193  0.2851  0.7142  0.3441
   96SAPS  C314 9593   2.839   0.220   8.300 -0.2766  0.3882  1.0729
   96SAPS  H14X 9594   2.872   0.317   8.256 -0.4731 -0.0762 -0.1480
   96SAPS  H14Y 9595   2.937   0.170   8.315  0.8575  2.5446  1.2509
   96SAPS  C315 9596   2.756   0.263   8.427  0.6858  0.2881  0.4306
   96SAPS  H15X 9597   2.719   0.173   8.482 -2.6159  0.7247 -0.8550
   96SAPS  H15Y 9598   2.667   0.318   8.390  0.9525  0.0159 -0.6492
   96SAPS  C316 9599   2.845   0.358   8.511 -0.1739  0.7868 -0.2163
   96SAPS  H16X 9600   2.888   0.440   8.450  0.1541 -0.4248 -1.6839
   96SAPS  H16Y 9601   2.929   0.293   8.543 -0.2208  1.3087  1.0226
   96SAPS  C317 9602   2.771   0.413   8.633 -0.0630  0.1895  0.1170
   96SAPS  H17X 9603   2.851   0.473   8.682  0.3144  0.0480 -0.3207
   96SAPS  H17Y 9604   2.723   0.337   8.698 -1.2517  1.4721  0.7991
   96SAPS  C318 9605   2.661   0.510   8.593 -0.1433  0.3803  0.4612
   96SAPS  H18X 9606   2.592   0.440   8.542  1.4460 -2.2577  1.7412
   96SAPS  H18Y 9607   2.695   0.593   8.527 -1.8347  0.4786 -0.3406
   96SAPS  H18Z 9608   2.601   0.558   8.674 -0.5185  1.2762 -0.3302
   97SAPS     N 9609   3.385   5.517   6.507  0.4444 -0.5643  0.3497
   97SAPS   HN1 9610   3.332   5.527   6.419 -1.1420 -0.7565  1.2529
   97SAPS   HN2 9611   3.481   5.483   6.485  0.9849  0.2375  1.3647
   97SAPS   HN3 9612   3.334   5.448   6.565 -0.3232  0.3464  0.7791
   97SAPS   C12 9613   3.391   5.636   6.595  0.0916  1.0835 -0.4169
   97SAPS  H12A 9614   3.431   5.593   6.685 -0.8860 -0.8065 -0.8140
   97SAPS   C13 9615   3.489   5.750   6.545  0.0869 -0.2269  0.5700
   97SAPS  O13A 9616   3.548   5.735   6.432  0.8439  0.0572 -0.2100
   97SAPS  O13B 9617   3.481   5.862   6.594  0.3962 -1.0351  0.0124
   97SAPS   C11 9618   3.243   5.676   6.618 -0.9500  0.3376 -0.5370
   97SAPS  H11A 9619   3.203   5.720   6.524 -1.1591 -0.0973 -0.6504
   97SAPS  H11B 9620   3.256   5.755   6.695  1.7485 -2.4801  2.1798
   97SAPS     P 9621   3.011   5.609   6.685 -0.2711  0.1863 -0.1496
   97SAPS   O13 9622   2.990   5.711   6.794 -0.5202  0.2477  0.2658
   97SAPS   O14 9623   2.965   5.647   6.547 -0.2029 -0.2865  0.2393
   97SAPS   O12 9624   3.166   5.571   6.679 -0.0449  0.3119  0.5161
   97SAPS   O11 9625   2.934   5.477   6.719  0.5051  0.7894 -0.3102
   97SAPS    C1 9626   2.985   5.352   6.752 -0.6379  0.5903 -0.4018
   97SAPS    HA 9627   2.986   5.284   6.664  3.7250 -0.7715  0.4860
   97SAPS    HB 9628   3.096   5.350   6.757 -0.5415  2.9625 -0.4873
   97SAPS    C2 9629   2.912   5.279   6.869  0.4981  0.3528  0.4917
   97SAPS    HS 9630   2.802   5.294   6.862  0.8555  2.6358 -1.6307
   97SAPS   O21 9631   2.966   5.334   6.992 -0.0366  0.3022 -0.1108
   97SAPS   C21 9632   2.878   5.342   7.094 -0.2859 -0.3623  0.4572
   97SAPS   O22 9633   2.761   5.304   7.089 -0.0239  0.2234 -0.8216
   97SAPS   C22 9634   2.956   5.382   7.214 -0.4207 -0.3989 -0.1750
   97SAPS   H2R 9635   3.066   5.369   7.200  0.0362  0.2909  2.2665
   97SAPS   H2S 9636   2.938   5.490   7.235 -1.4011 -1.2294  4.2962
   97SAPS    C3 9637   2.943   5.123   6.850 -0.0001  0.1112 -0.8678
   97SAPS    HX 9638   3.053   5.114   6.862 -0.0137  0.9242  0.0679
   97SAPS    HY 9639   2.905   5.069   6.761 -0.1901 -2.3569  0.6222
   97SAPS   O31 9640   2.893   5.056   6.971 -0.5004  0.6645  0.3485
   97SAPS   C31 9641   2.769   4.996   6.966 -0.0907 -0.2115 -0.5023
   97SAPS   O32 9642   2.709   4.962   6.869  0.2365 -0.1113 -0.3029
   97SAPS   C32 9643   2.722   4.972   7.105  0.3660  0.2122 -0.3970
   97SAPS   H2X 9644   2.726   5.065   7.165 -2.5197  0.0454  0.1995
   97SAPS   H2Y 9645   2.792   4.904   7.158  0.2353  1.1531  1.0154
   97SAPS   C23 9646   2.900   5.326   7.342  0.2927  0.0641  0.0981
   97SAPS   H3R 9647   2.965   5.239   7.366 -0.8103 -1.3457 -1.7068
   97SAPS   H3S 9648   2.803   5.273   7.329  0.7937 -0.3855 -2.2610
   97SAPS   C24 9649   2.888   5.417   7.466  0.0374  0.4502  0.2169
   97SAPS   H4R 9650   2.839   5.374   7.556  0.6925  2.1243  1.4224
   97SAPS   H4S 9651   2.830   5.509   7.446  0.1718  1.0194  2.2680
   97SAPS   C25 9652   3.036   5.455   7.501  0.7868 -0.1492  0.4155
   97SAPS   H5R 9653   3.107   5.478   7.420 -1.1338 -1.8457 -1.9256
   97SAPS   C26 9654   3.079   5.460   7.625 -0.0974 -0.0738  0.5506
   97SAPS   H6R 9655   3.187   5.480   7.640 -0.4187  2.2897  0.1284
   97SAPS   C27 9656   2.996   5.431   7.752  0.3316 -0.2704  0.2679
   97SAPS   H7R 9657   2.920   5.350   7.748  0.7606 -0.7646  1.5670
   97SAPS   H7S 9658   2.940   5.526   7.763 -0.6644 -0.9779  1.6650
   97SAPS   C28 9659   3.079   5.407   7.869  0.0763 -0.1920 -0.2869
   97SAPS   H8R 9660   3.186   5.384   7.851  0.2501  1.8449 -2.2885
   97SAPS   C29 9661   3.038   5.418   7.992  0.5001  0.0189 -0.4688
   97SAPS   H9R 9662   3.109   5.391   8.071  0.7553  0.8321 -0.4114
   97SAPS  C210 9663   2.904   5.454   8.037 -0.0467  0.0965 -0.3099
   97SAPS  H10R 9664   2.842   5.485   7.950  0.8777  0.0810 -0.9989
   97SAPS  H10S 9665   2.916   5.550   8.093 -0.7355  0.0474 -0.0668
   97SAPS  C211 9666   2.829   5.349   8.118  0.0219 -0.2007 -0.3281
   97SAPS  H11R 9667   2.830   5.251   8.068 -2.3107  0.1639 -1.2145
   97SAPS  C212 9668   2.769   5.372   8.232  0.3610  0.1540  0.3888
   97SAPS  H12R 9669   2.723   5.286   8.283 -0.8936 -1.4694 -3.1480
   97SAPS  C213 9670   2.765   5.503   8.314  0.0734  0.2438  0.4596
   97SAPS  H13R 9671   2.666   5.540   8.348 -0.5914 -0.2790 -0.8301
   97SAPS  H13S 9672   2.790   5.583   8.241 -2.6940  1.4844  0.7537
   97SAPS  C214 9673   2.869   5.498   8.419  0.3091  0.3997 -0.2061
   97SAPS  H14R 9674   2.874   5.413   8.488 -1.5061 -0.1846 -0.7450
   97SAPS  C215 9675   2.965   5.584   8.433  0.1994 -0.1562  0.1707
   97SAPS  H15R 9676   3.033   5.573   8.520  0.0508  1.5613  0.5397
   97SAPS  C216 9677   2.993   5.721   8.362 -0.5051  0.0834 -0.4153
   97SAPS  H16R 9678   2.984   5.806   8.433 -0.3256  0.6980 -1.1195
   97SAPS  H16S 9679   2.920   5.731   8.279 -1.7123 -0.9315  0.4696
   97SAPS  C217 9680   3.128   5.717   8.295 -0.2570 -0.1792 -0.2699
   97SAPS  H17R 9681   3.151   5.817   8.251 -1.9478  0.2473 -0.2846
   97SAPS  H17S 9682   3.115   5.641   8.215 -0.2030  0.1091 -0.5564
   97SAPS  C218 9683   3.244   5.684   8.392  0.0626 -0.2581  0.3100
   97SAPS  H18R 9684   3.338   5.703   8.336  0.1097 -0.8602  0.1769
   97SAPS  H18S 9685   3.242   5.576   8.420  0.3749 -0.4666 -0.4266
   97SAPS  C219 9686   3.246   5.760   8.527  0.1613 -0.2803  0.5441
   97SAPS  H19R 9687   3.159   5.740   8.592 -1.4727  0.8237 -1.1776
   97SAPS  H19S 9688   3.236   5.867   8.498  1.3648 -0.6017 -1.2442
   97SAPS  C220 9689   3.378   5.745   8.601  0.0873  0.0603  0.1488
   97SAPS  H20R 9690   3.464   5.783   8.541  0.9878 -0.5729  1.0076
   97SAPS  H20S 9691   3.394   5.641   8.637 -0.1267 -0.5757 -1.4847
   97SAPS  H20T 9692   3.375   5.810   8.691 -0.8586 -2.3448  1.9674
   97SAPS   C33 9693   2.574   4.913   7.118 -0.3273  0.5421  0.5407
   97SAPS   H3X 9694   2.558   4.834   7.041  0.5946 -1.1490  2.0274
   97SAPS   H3Y 9695   2.491   4.987   7.111 -1.5680 -0.7579  0.9001
   97SAPS   C34 9696   2.571   4.845   7.256 -0.5254 -0.8210  0.4443
   97SAPS   H4X 9697   2.645   4.763   7.248 -0.5741 -0.7503 -0.8774
   97SAPS   H4Y 9698   2.482   4.779   7.269 -0.0855 -2.2985 -3.0573
   97SAPS   C35 9699   2.599   4.940   7.376  0.3291 -0.6300 -0.3099
   97SAPS   H5X 9700   2.527   5.024   7.378  1.9284  0.8120 -0.8980
   97SAPS   H5Y 9701   2.701   4.984   7.386 -0.1718  0.2456  1.0849
   97SAPS   C36 9702   2.573   4.868   7.511 -0.5469 -0.3091 -0.0445
   97SAPS   H6X 9703   2.633   4.776   7.498  0.2772  0.0486  1.0503
   97SAPS   H6Y 9704   2.468   4.833   7.507 -0.4550 -0.5820 -0.1225
   97SAPS   C37 9705   2.602   4.949   7.644 -0.3929  0.7691 -0.2254
   97SAPS   H7X 9706   2.553   5.048   7.639 -0.9021  0.5376  0.1685
   97SAPS   H7Y 9707   2.711   4.969   7.654 -0.0216 -1.5458  1.3289
   97SAPS   C38 9708   2.562   4.880   7.777 -0.7089  0.2683  0.1064
   97SAPS   H8X 9709   2.595   4.773   7.775  0.0962  0.5173 -0.5259
   97SAPS   H8Y 9710   2.451   4.875   7.784 -0.8221  2.2621  0.0781
   97SAPS   C39 9711   2.619   4.963   7.893 -0.0368  0.5615 -1.1159
   97SAPS   H9X 9712   2.602   5.072   7.878  0.1362  0.7716  0.1205
   97SAPS   H9Y 9713   2.728   4.944   7.891  0.2021  1.4784  0.8613
   97SAPS  C310 9714   2.553   4.917   8.030 -0.0670 -0.5167  0.5382
   97SAPS  H10X 9715   2.577   4.812   8.055 -2.3277 -1.2588 -0.2535
   97SAPS  H10Y 9716   2.446   4.939   8.014  0.3858  3.1322  1.6128
   97SAPS  C311 9717   2.610   5.004   8.143 -0.9339  0.6000  0.0471
   97SAPS  H11X 9718   2.608   5.110   8.111 -0.8931 -0.0932 -2.4344
   97SAPS  H11Y 9719   2.718   4.985   8.165 -0.1790  2.5332 -1.6426
   97SAPS  C312 9720   2.514   4.984   8.262 -0.7092  0.7850  0.1570
   97SAPS  H12X 9721   2.513   4.880   8.298 -0.6059  0.8580  0.3697
   97SAPS  H12Y 9722   2.410   5.009   8.231 -1.5568  2.2924  3.6913
   97SAPS  C313 9723   2.555   5.077   8.383  0.1668  0.6467  0.5578
   97SAPS  H13X 9724   2.471   5.068   8.454 -1.0761 -0.8279 -1.0145
   97SAPS  H13Y 9725   2.565   5.180   8.342  1.7093 -0.5756 -2.4695
   97SAPS  C314 9726   2.689   5.045   8.448  0.1905  0.1281 -0.0591
   97SAPS  H14X 9727   2.709   5.109   8.536  0.6921  0.2097 -0.2282
   97SAPS  H14Y 9728   2.765   5.062   8.369 -0.9231 -0.3668 -1.2816
   97SAPS  C315 9729   2.700   4.897   8.503 -0.4693  0.1593  0.4474
   97SAPS  H15X 9730   2.683   4.839   8.409  0.3759  0.8716 -0.1638
   97SAPS  H15Y 9731   2.610   4.867   8.560 -0.6096 -0.1886  0.0519
   97SAPS  C316 9732   2.830   4.851   8.571 -0.8596 -0.1258  0.2501
   97SAPS  H16X 9733   2.832   4.842   8.682  2.3563  3.0873  0.6756
   97SAPS  H16Y 9734   2.912   4.926   8.569 -0.2292 -0.7818  0.8267
   97SAPS  C317 9735   2.881   4.722   8.503 -0.0336  0.2534 -0.3178
   97SAPS  H17X 9736   2.897   4.756   8.399 -0.5001  0.4935 -0.3152
   97SAPS  H17Y 9737   2.807   4.639   8.500 -0.2039  0.4462 -1.9613
   97SAPS  C318 9738   3.011   4.675   8.559  0.8032 -0.2530  0.1147
   97SAPS  H18X 9739   3.015   4.681   8.670  2.7309  1.0051  0.0318
   97SAPS  H18Y 9740   3.099   4.716   8.504  0.9814  1.9076  1.8710
   97SAPS  H18Z 9741   3.007   4.566   8.542 -2.9650 -0.1700 -0.4038
   98SAPS     N 9742   1.805   5.535   6.516  0.4395  0.6399  0.0044
   98SAPS   HN1 9743   1.849   5.607   6.577 -0.3560  0.1941  1.1292
   98SAPS   HN2 9744   1.723   5.493   6.564  1.0713 -1.3766 -0.5779
   98SAPS   HN3 9745   1.870   5.459   6.487 -1.0750 -0.7803  0.2124
   98SAPS   C12 9746   1.750   5.609   6.403 -0.0555  0.0449  0.9288
   98SAPS  H12A 9747   1.661   5.557   6.371  0.3715 -1.1985  1.6640
   98SAPS   C13 9748   1.700   5.750   6.427 -0.2698  0.2855 -0.1316
   98SAPS  O13A 9749   1.686   5.793   6.547 -0.2669  0.2095  0.0587
   98SAPS  O13B 9750   1.656   5.817   6.328  0.1003  0.9541  0.5781
   98SAPS   C11 9751   1.858   5.600   6.292  0.2918  0.0482 -0.5689
   98SAPS  H11A 9752   1.959   5.643   6.312 -0.5277  1.3118  1.2014
   98SAPS  H11B 9753   1.812   5.638   6.198 -0.1552 -1.0467 -0.8013
   98SAPS     P 9754   2.019   5.385   6.273 -0.5544  0.5096 -0.1683
   98SAPS   O13 9755   2.005   5.240   6.232 -0.3303  0.2381  0.3192
   98SAPS   O14 9756   2.132   5.461   6.218 -0.5609 -0.2732  0.5568
   98SAPS   O12 9757   1.880   5.458   6.253 -0.1776  0.1183  0.1363
   98SAPS   O11 9758   2.028   5.400   6.427  0.6525 -0.4961 -0.2128
   98SAPS    C1 9759   2.129   5.347   6.508 -0.0834  0.0299  0.6857
   98SAPS    HA 9760   2.195   5.280   6.447 -1.1064  0.4169 -0.9084
   98SAPS    HB 9761   2.193   5.433   6.534  0.0885  0.5455 -1.2645
   98SAPS    C2 9762   2.077   5.267   6.628  0.8929  0.3319  0.1929
   98SAPS    HS 9763   2.034   5.173   6.586  2.2105 -0.6249  0.8859
   98SAPS   O21 9764   1.979   5.353   6.697  0.2705  0.1860  0.0409
   98SAPS   C21 9765   1.907   5.287   6.796 -0.6649 -0.1653  0.4415
   98SAPS   O22 9766   1.892   5.165   6.790 -0.2270  0.2715  0.5446
   98SAPS   C22 9767   1.855   5.376   6.898 -0.5295  0.2874  0.0229
   98SAPS   H2R 9768   1.932   5.412   6.968 -1.9250  2.0518  0.7288
   98SAPS   H2S 9769   1.805   5.464   6.852  0.7929  0.4304 -1.2063
   98SAPS    C3 9770   2.195   5.227   6.722 -0.6623  0.1964 -0.0026
   98SAPS    HX 9771   2.238   5.328   6.739  1.0161 -0.5391  0.2723
   98SAPS    HY 9772   2.270   5.169   6.664  0.6653 -0.6929  2.4836
   98SAPS   O31 9773   2.157   5.170   6.845 -0.1205 -0.2247 -0.5248
   98SAPS   C31 9774   2.159   5.036   6.844  0.4204 -1.1232  1.0815
   98SAPS   O32 9775   2.176   4.971   6.742 -0.6136  0.2258 -0.1160
   98SAPS   C32 9776   2.153   4.993   6.989 -0.2917  0.1142  0.2145
   98SAPS   H2X 9777   2.068   5.045   7.038  0.1990 -0.8936  2.2674
   98SAPS   H2Y 9778   2.242   5.021   7.049 -2.2557 -2.1106  4.7183
   98SAPS   C23 9779   1.747   5.292   6.984  0.1509  0.4085 -0.3167
   98SAPS   H3R 9780   1.808   5.203   7.009  2.0122  1.2402 -1.6674
   98SAPS   H3S 9781   1.658   5.263   6.925 -0.9409  0.3869  1.2808
   98SAPS   C24 9782   1.678   5.370   7.100  0.3128 -0.3296 -0.1231
   98SAPS   H4R 9783   1.734   5.375   7.196  1.5508  2.6894 -0.8892
   98SAPS   H4S 9784   1.581   5.321   7.124 -0.0882  0.3370 -0.3671
   98SAPS   C25 9785   1.661   5.516   7.060  0.6270 -0.5656  0.1783
   98SAPS   H5R 9786   1.626   5.540   6.958  2.5660 -0.6326 -0.5456
   98SAPS   C26 9787   1.716   5.622   7.133 -0.2041 -0.2183  1.0194
   98SAPS   H6R 9788   1.697   5.724   7.097 -0.4566  0.0445  1.8879
   98SAPS   C27 9789   1.795   5.622   7.255  0.3459 -0.4946 -0.6045
   98SAPS   H7R 9790   1.878   5.548   7.244  0.0891 -0.9764  0.5315
   98SAPS   H7S 9791   1.734   5.582   7.339  0.1194  2.9744  1.0180
   98SAPS   C28 9792   1.848   5.759   7.306  0.3915 -0.5470 -0.0353
   98SAPS   H8R 9793   1.776   5.838   7.280  0.7732 -0.2718 -0.2668
   98SAPS   C29 9794   1.961   5.778   7.374 -0.0731  0.7184  0.1453
   98SAPS   H9R 9795   1.985   5.882   7.401 -0.2813  0.4159  1.5889
   98SAPS  C210 9796   2.060   5.662   7.406 -0.7552  0.0529 -0.2150
   98SAPS  H10R 9797   2.112   5.621   7.317  1.3731 -0.4905  1.1974
   98SAPS  H10S 9798   1.996   5.587   7.456 -1.3452  0.6796 -0.0176
   98SAPS  C211 9799   2.172   5.714   7.497  0.1886  0.4310  0.6325
   98SAPS  H11R 9800   2.254   5.763   7.442 -1.0201 -0.9160 -2.5666
   98SAPS  C212 9801   2.168   5.730   7.631 -0.2384  0.3572  0.3040
   98SAPS  H12R 9802   2.252   5.782   7.679 -0.4647 -1.1941  2.5785
   98SAPS  C213 9803   2.060   5.686   7.728 -0.9784  0.2823  0.1664
   98SAPS  H13R 9804   2.041   5.579   7.704 -4.0824  0.7515  0.1238
   98SAPS  H13S 9805   1.966   5.737   7.698  0.3822  1.1738 -3.0824
   98SAPS  C214 9806   2.100   5.711   7.872 -0.1742  0.1666 -0.5180
   98SAPS  H14R 9807   2.208   5.703   7.890  0.1375  0.0607 -2.2882
   98SAPS  C215 9808   2.003   5.734   7.966 -0.6303 -0.0685  0.5990
   98SAPS  H15R 9809   2.039   5.741   8.070 -0.3753  0.2103  0.4928
   98SAPS  C216 9810   1.853   5.734   7.950  0.1693 -0.1590 -0.6452
   98SAPS  H16R 9811   1.811   5.678   7.864 -0.6793  0.3524 -0.5728
   98SAPS  H16S 9812   1.818   5.839   7.947  0.8043  0.0375 -1.6054
   98SAPS  C217 9813   1.792   5.651   8.066  0.8504  0.7426  0.1609
   98SAPS  H17R 9814   1.799   5.711   8.160  0.0039 -1.3286  1.6193
   98SAPS  H17S 9815   1.844   5.554   8.077 -1.8154 -0.7841  0.1788
   98SAPS  C218 9816   1.647   5.608   8.037  0.5960  0.0915  0.1430
   98SAPS  H18R 9817   1.614   5.556   7.945  1.5534 -0.5926  0.1807
   98SAPS  H18S 9818   1.578   5.695   8.031 -1.3743 -1.1505  2.5381
   98SAPS  C219 9819   1.595   5.526   8.151 -0.0294 -0.0289  0.7656
   98SAPS  H19R 9820   1.627   5.421   8.137 -0.7850 -0.6364  3.0899
   98SAPS  H19S 9821   1.486   5.518   8.136 -0.0927  0.0248  1.1789
   98SAPS  C220 9822   1.626   5.554   8.299 -0.2576  0.2538  0.5092
   98SAPS  H20R 9823   1.557   5.497   8.366 -0.5451  0.5674  0.4794
   98SAPS  H20S 9824   1.628   5.663   8.320 -1.7058  0.3460  0.2225
   98SAPS  H20T 9825   1.724   5.509   8.328 -1.2686 -1.7925  0.9428
   98SAPS   C33 9826   2.153   4.841   7.009  0.2219  0.4677 -0.3866
   98SAPS   H3X 9827   2.238   4.795   6.954  2.9922 -1.6659  4.9719
   98SAPS   H3Y 9828   2.061   4.807   6.956 -1.9991  4.7036  0.2712
   98SAPS   C34 9829   2.170   4.794   7.153 -0.5084 -0.2890  0.1621
   98SAPS   H4X 9830   2.107   4.858   7.219 -1.3972  0.0845 -1.0106
   98SAPS   H4Y 9831   2.277   4.806   7.180 -0.2721  0.5298 -1.0260
   98SAPS   C35 9832   2.121   4.649   7.167  0.1087  0.0336 -0.8779
   98SAPS   H5X 9833   2.184   4.589   7.098  1.3832 -1.5151  1.5240
   98SAPS   H5Y 9834   2.021   4.660   7.119 -0.4339 -1.8230 -0.2479
   98SAPS   C36 9835   2.129   4.591   7.311 -0.1513  0.3247  0.1441
   98SAPS   H6X 9836   2.083   4.491   7.324 -1.6222  1.2105  2.5643
   98SAPS   H6Y 9837   2.078   4.659   7.383 -1.1111  0.7196 -0.8890
   98SAPS   C37 9838   2.274   4.561   7.359  0.2230 -0.0653  0.2928
   98SAPS   H7X 9839   2.328   4.658   7.354 -0.8357  0.4554 -3.3993
   98SAPS   H7Y 9840   2.321   4.492   7.285  1.1542  1.0807 -0.2131
   98SAPS   C38 9841   2.289   4.483   7.490 -0.3016 -0.3740 -0.0018
   98SAPS   H8X 9842   2.257   4.377   7.488 -1.6264 -0.1209  2.9151
   98SAPS   H8Y 9843   2.234   4.536   7.571 -1.2091  0.5172 -1.1569
   98SAPS   C39 9844   2.431   4.484   7.526 -0.7713  0.0970 -0.0342
   98SAPS   H9X 9845   2.472   4.587   7.521 -0.4661 -0.0949 -1.9525
   98SAPS   H9Y 9846   2.479   4.422   7.447 -0.8728  0.0090 -0.0279
   98SAPS  C310 9847   2.466   4.442   7.669  0.2880 -0.2575 -0.4358
   98SAPS  H10X 9848   2.576   4.450   7.683  0.2449  0.0615 -0.2595
   98SAPS  H10Y 9849   2.431   4.338   7.681 -0.4031 -0.1676 -1.5715
   98SAPS  C311 9850   2.391   4.510   7.776  0.0434  0.2850  0.2008
   98SAPS  H11X 9851   2.281   4.498   7.769  0.2209 -0.8613 -0.9307
   98SAPS  H11Y 9852   2.416   4.618   7.772 -0.1765  0.3097 -0.5111
   98SAPS  C312 9853   2.438   4.477   7.920 -0.4319  0.0736  0.2207
   98SAPS  H12X 9854   2.542   4.514   7.932 -1.1723  1.6829  2.2365
   98SAPS  H12Y 9855   2.449   4.366   7.922 -2.3496 -0.1802  2.9514
   98SAPS  C313 9856   2.359   4.530   8.040  0.2983 -0.6116 -0.7396
   98SAPS  H13X 9857   2.252   4.499   8.041  0.5254 -1.4287 -0.6949
   98SAPS  H13Y 9858   2.366   4.641   8.037  0.6829 -0.4708  2.4096
   98SAPS  C314 9859   2.423   4.489   8.175 -0.7891  0.0690  0.2653
   98SAPS  H14X 9860   2.525   4.533   8.181 -0.0704 -1.4290 -0.3725
   98SAPS  H14Y 9861   2.444   4.380   8.164  0.7897  0.3563  0.1808
   98SAPS  C315 9862   2.343   4.529   8.299 -0.7312 -0.0149  0.4510
   98SAPS  H15X 9863   2.242   4.491   8.275  0.2715 -2.1365 -0.7332
   98SAPS  H15Y 9864   2.337   4.640   8.301  0.8922  0.1338 -0.5715
   98SAPS  C316 9865   2.401   4.475   8.429 -0.5275  0.0914 -0.0649
   98SAPS  H16X 9866   2.426   4.367   8.432 -0.5825  0.1066  1.6600
   98SAPS  H16Y 9867   2.325   4.490   8.508 -0.0838 -0.7109  0.5293
   98SAPS  C317 9868   2.528   4.550   8.471 -0.5281 -0.0581  0.3503
   98SAPS  H17X 9869   2.525   4.662   8.469 -1.7924 -0.0656  0.6740
   98SAPS  H17Y 9870   2.607   4.512   8.403 -0.4219 -2.2602  1.6114
   98SAPS  C318 9871   2.566   4.506   8.615 -0.1052  0.0708 -0.0167
   98SAPS  H18X 9872   2.489   4.549   8.683  1.1738  0.2693  1.3818
   98SAPS  H18Y 9873   2.668   4.541   8.643  0.6092 -1.6088 -0.4410
   98SAPS  H18Z 9874   2.574   4.396   8.626  1.5870  0.3128  1.7947
   99SAPS     N 9875   2.309   3.352   6.130  0.0712  0.3117  0.1613
   99SAPS   HN1 9876   2.298   3.375   6.029  3.2915 -1.1156 -0.6444
   99SAPS   HN2 9877   2.284   3.426   6.199 -0.1413 -0.6020  1.0912
   99SAPS   HN3 9878   2.406   3.318   6.145 -0.4468 -1.2466  0.2143
   99SAPS   C12 9879   2.214   3.239   6.144  0.2557 -0.2113 -0.8376
   99SAPS  H12A 9880   2.125   3.268   6.091 -0.8081  0.8084  1.3829
   99SAPS   C13 9881   2.259   3.104   6.077 -0.0372  0.1393 -0.1142
   99SAPS  O13A 9882   2.348   3.097   5.989  0.0061  0.2279 -0.3867
   99SAPS  O13B 9883   2.184   3.005   6.098 -0.3199  0.5948 -0.2449
   99SAPS   C11 9884   2.182   3.211   6.291 -0.2086 -0.2908 -0.2061
   99SAPS  H11A 9885   2.284   3.199   6.335 -0.1585 -0.1390 -0.2816
   99SAPS  H11B 9886   2.125   3.116   6.301  1.9723 -1.6942 -0.2146
   99SAPS     P 9887   1.964   3.304   6.425 -0.0093 -0.0050 -0.1304
   99SAPS   O13 9888   1.908   3.436   6.416  0.3827  0.2385  0.4742
   99SAPS   O14 9889   1.897   3.183   6.379  0.1390  0.0482  0.2674
   99SAPS   O12 9890   2.110   3.320   6.359  0.4896  0.6921  0.0963
   99SAPS   O11 9891   1.993   3.288   6.578 -0.7402  0.2812 -0.2546
   99SAPS    C1 9892   2.116   3.233   6.617  0.0135  0.3332 -0.2918
   99SAPS    HA 9893   2.172   3.155   6.562  0.6556 -0.3898  1.3280
   99SAPS    HB 9894   2.181   3.323   6.624 -1.8148  1.8563 -1.7442
   99SAPS    C2 9895   2.107   3.177   6.760  0.0436 -0.3210 -0.5402
   99SAPS    HS 9896   2.196   3.113   6.779 -0.1765 -0.4243  0.1800
   99SAPS   O21 9897   1.991   3.097   6.783  0.2858 -0.6306  0.0941
   99SAPS   C21 9898   1.986   2.982   6.734 -0.5119 -0.2058 -1.0774
   99SAPS   O22 9899   2.073   2.929   6.662  0.3462 -0.6655 -0.0151
   99SAPS   C22 9900   1.866   2.909   6.782  0.1294  0.3383  0.3767
   99SAPS   H2R 9901   1.779   2.977   6.793  0.0132  0.0254  1.6145
   99SAPS   H2S 9902   1.832   2.848   6.696 -1.2373  1.8749 -0.2107
   99SAPS    C3 9903   2.089   3.298   6.866  0.2865 -0.2058 -0.4990
   99SAPS    HX 9904   1.997   3.349   6.831  0.2596  0.9856  1.1975
   99SAPS    HY 9905   2.172   3.371   6.848 -1.3445  1.6369 -0.8925
   99SAPS   O31 9906   2.082   3.263   7.003 -0.6818 -0.1954 -0.2720
   99SAPS   C31 9907   2.186   3.195   7.058 -0.3467 -0.4656  0.1923
   99SAPS   O32 9908   2.292   3.174   7.006  0.2730  0.1232  0.8958
   99SAPS   C32 9909   2.149   3.155   7.196 -0.2955  0.4909 -0.0883
   99SAPS   H2X 9910   2.187   3.054   7.222  0.5936  1.3905  2.4170
   99SAPS   H2Y 9911   2.039   3.149   7.209 -0.5644 -0.6317 -2.4158
   99SAPS   C23 9912   1.885   2.815   6.906  0.0631 -0.5136 -0.6067
   99SAPS   H3R 9913   1.962   2.740   6.879 -0.1887 -1.2400  0.6256
   99SAPS   H3S 9914   1.784   2.771   6.922 -1.1800  2.6038  0.9544
   99SAPS   C24 9915   1.925   2.873   7.037 -0.3362  0.3021  0.4636
   99SAPS   H4R 9916   2.027   2.918   7.044  0.7074 -1.9919  0.7823
   99SAPS   H4S 9917   1.936   2.789   7.109 -3.1993 -0.4015  0.2065
   99SAPS   C25 9918   1.836   2.986   7.089 -0.2365 -0.0953 -0.4814
   99SAPS   H5R 9919   1.787   3.049   7.013  0.4202  0.1013 -0.7500
   99SAPS   C26 9920   1.789   2.991   7.213 -0.1698 -0.1695  0.6939
   99SAPS   H6R 9921   1.728   3.077   7.241 -1.4277  0.0747 -2.3426
   99SAPS   C27 9922   1.821   2.890   7.319 -0.3501 -0.1177 -0.1075
   99SAPS   H7R 9923   1.884   2.941   7.395  0.2526 -2.0931  0.7735
   99SAPS   H7S 9924   1.883   2.805   7.285 -1.5776  0.0781 -3.1499
   99SAPS   C28 9925   1.680   2.854   7.372  1.0754 -0.1708 -0.4086
   99SAPS   H8R 9926   1.608   2.807   7.303 -1.7064  1.1151  1.4302
   99SAPS   C29 9927   1.632   2.838   7.500 -0.2946  0.0614 -0.5204
   99SAPS   H9R 9928   1.526   2.809   7.508 -0.6372  1.6536  1.7754
   99SAPS  C210 9929   1.697   2.859   7.641 -0.1634 -0.3696  0.5753
   99SAPS  H10R 9930   1.635   2.808   7.718  0.6830 -1.9123  0.2678
   99SAPS  H10S 9931   1.697   2.969   7.655  4.0704  0.0972 -1.5879
   99SAPS  C211 9932   1.836   2.808   7.654  0.3315  0.0957  0.6469
   99SAPS  H11R 9933   1.865   2.749   7.566  0.3952  0.8435  0.1623
   99SAPS  C212 9934   1.921   2.849   7.749  0.1555  0.2420  0.5974
   99SAPS  H12R 9935   2.015   2.792   7.753  0.3406  0.4848 -0.1515
   99SAPS  C213 9936   1.894   2.948   7.859  0.1379  0.0691 -0.3211
   99SAPS  H13R 9937   1.844   2.886   7.937  0.8951  1.4393  1.3074
   99SAPS  H13S 9938   1.819   3.027   7.838  0.8105  0.2114 -2.3521
   99SAPS  C214 9939   2.014   3.020   7.917  0.7315  0.6305 -0.0285
   99SAPS  H14R 9940   2.047   3.098   7.848  0.2714  0.8687  0.0126
   99SAPS  C215 9941   2.068   2.999   8.041  0.1201  0.3305 -0.3729
   99SAPS  H15R 9942   2.145   3.069   8.077 -0.8779  1.0282  0.4872
   99SAPS  C216 9943   2.034   2.908   8.153  0.8164 -0.6535 -0.3331
   99SAPS  H16R 9944   2.121   2.840   8.162  0.9028 -0.4533  0.4657
   99SAPS  H16S 9945   1.946   2.845   8.129  1.5174 -0.7865 -2.7572
   99SAPS  C217 9946   2.023   2.988   8.290  0.8770  0.6490  0.0409
   99SAPS  H17R 9947   2.112   3.049   8.315  0.2173  1.3103  0.8365
   99SAPS  H17S 9948   1.992   2.906   8.359 -1.5340  1.6399  0.2418
   99SAPS  C218 9949   1.893   3.072   8.290 -0.3254  0.4342  0.5933
   99SAPS  H18R 9950   1.802   3.014   8.264  0.4453 -0.1577 -0.9045
   99SAPS  H18S 9951   1.901   3.146   8.208 -1.7542  0.5608  0.5488
   99SAPS  C219 9952   1.866   3.146   8.422 -0.3117  0.4836  0.7798
   99SAPS  H19R 9953   1.954   3.214   8.427 -1.2055  1.7970 -0.6562
   99SAPS  H19S 9954   1.858   3.071   8.504 -2.1230  1.1404  1.2575
   99SAPS  C220 9955   1.752   3.244   8.421 -0.0846  0.0700 -0.4819
   99SAPS  H20R 9956   1.727   3.288   8.520 -0.4346  2.0132 -1.3918
   99SAPS  H20S 9957   1.654   3.200   8.393 -1.0119  1.8463 -0.1771
   99SAPS  H20T 9958   1.771   3.330   8.354  1.3899  1.1208  1.1925
   99SAPS   C33 9959   2.206   3.260   7.298 -0.5371  0.2027  0.4337
   99SAPS   H3X 9960   2.137   3.347   7.306 -1.3582 -0.2663 -1.0463
   99SAPS   H3Y 9961   2.301   3.307   7.267 -0.1992  0.0748  1.2755
   99SAPS   C34 9962   2.227   3.192   7.431 -0.2319  0.1483 -0.3014
   99SAPS   H4X 9963   2.308   3.117   7.432 -0.9509 -0.6820  2.1537
   99SAPS   H4Y 9964   2.132   3.141   7.457 -0.0523  0.3876  0.8789
   99SAPS   C35 9965   2.249   3.302   7.537 -0.1181  0.1835  0.3076
   99SAPS   H5X 9966   2.152   3.356   7.538 -1.8815 -2.6602 -1.7284
   99SAPS   H5Y 9967   2.326   3.378   7.511  0.9019 -0.6758  0.7278
   99SAPS   C36 9968   2.283   3.241   7.672 -0.6812 -0.3800 -0.2680
   99SAPS   H6X 9969   2.380   3.186   7.669  0.0012  0.6601  1.1872
   99SAPS   H6Y 9970   2.207   3.161   7.674 -2.7419  1.4927 -0.3500
   99SAPS   C37 9971   2.270   3.345   7.787  0.0608 -0.0161  0.4335
   99SAPS   H7X 9972   2.296   3.294   7.882 -1.3079  0.4870  1.1135
   99SAPS   H7Y 9973   2.170   3.393   7.782 -0.7108 -1.4920  1.2210
   99SAPS   C38 9974   2.371   3.456   7.756  0.6673 -0.4021 -0.0788
   99SAPS   H8X 9975   2.351   3.505   7.658  0.7758 -0.8919 -0.3480
   99SAPS   H8Y 9976   2.473   3.413   7.751  0.5672 -0.7783  0.8298
   99SAPS   C39 9977   2.373   3.566   7.865 -0.2477 -0.1643 -0.3896
   99SAPS   H9X 9978   2.390   3.512   7.961 -0.3649  0.3834 -0.0541
   99SAPS   H9Y 9979   2.277   3.621   7.876 -1.5581 -2.1265 -1.3387
   99SAPS  C310 9980   2.483   3.670   7.851  0.0880  0.9442 -0.5563
   99SAPS  H10X 9981   2.487   3.696   7.743 -0.2607  0.3323 -0.7249
   99SAPS  H10Y 9982   2.579   3.619   7.873 -0.0060  0.3869 -1.3773
   99SAPS  C311 9983   2.466   3.793   7.940 -0.2888 -0.3079 -0.2821
   99SAPS  H11X 9984   2.474   3.764   8.047  2.1432 -1.6466 -0.7630
   99SAPS  H11Y 9985   2.367   3.843   7.934 -0.0612  0.4191  1.2461
   99SAPS  C312 9986   2.563   3.908   7.906 -0.1551 -0.2069 -0.1576
   99SAPS  H12X 9987   2.509   4.005   7.916 -0.3668 -0.4381  1.2322
   99SAPS  H12Y 9988   2.590   3.904   7.799  0.0312 -0.6135 -0.0972
   99SAPS  C313 9989   2.694   3.908   7.988  0.6390  0.2225 -0.0145
   99SAPS  H13X 9990   2.729   3.804   7.973 -1.0599 -0.6910  1.7888
   99SAPS  H13Y 9991   2.683   3.907   8.098 -1.3335 -0.3053 -0.1728
   99SAPS  C314 9992   2.802   4.009   7.957 -0.0272 -0.7558  0.2417
   99SAPS  H14X 9993   2.840   4.003   7.853 -0.8003  2.1163 -0.3083
   99SAPS  H14Y 9994   2.889   3.995   8.024  0.2604  0.7267  0.2048
   99SAPS  C315 9995   2.758   4.163   7.971  0.1743 -0.6465  0.4599
   99SAPS  H15X 9996   2.691   4.180   7.885  1.2988  1.5537 -0.0410
   99SAPS  H15Y 9997   2.852   4.219   7.950  1.3027 -1.8578  1.9409
   99SAPS  C316 9998   2.695   4.195   8.110 -0.4115 -0.1056  0.3926
   99SAPS  H16X 9999   2.605   4.130   8.122 -1.6207  1.6922  1.5406
   99SAPS  H16Y10000   2.659   4.298   8.091 -2.8622 -1.4548 -3.3994
   99SAPS  C31710001   2.779   4.161   8.234  0.6848 -0.0405  0.7755
   99SAPS  H17X10002   2.867   4.230   8.243  1.9795 -1.1058 -2.3452
   99SAPS  H17Y10003   2.814   4.057   8.215 -1.6630 -0.6850 -0.2660
   99SAPS  C31810004   2.701   4.130   8.360 -0.2423 -0.1157 -0.3231
   99SAPS  H18X10005   2.666   4.221   8.414  2.4192  1.3503 -0.8793
   99SAPS  H18Y10006   2.765   4.068   8.427  0.0010 -0.5359 -0.9441
   99SAPS  H18Z10007   2.618   4.060   8.335  1.0523 -2.4563  1.4037
  100SAPS     N10008   3.609   4.916   6.033 -0.0741  0.1736 -0.5123
  100SAPS   HN110009   3.518   4.867   6.035  1.0803 -2.1554  1.6207
  100SAPS   HN210010   3.642   4.901   6.131  0.7240 -1.2925 -0.9815
  100SAPS   HN310011   3.608   5.018   6.015  0.2267  0.5536  1.3287
  100SAPS   C1210012   3.721   4.853   5.948 -0.1741 -0.1150 -0.3474
  100SAPS  H12A10013   3.678   4.808   5.860 -1.6598 -0.4089  0.4809
  100SAPS   C1310014   3.839   4.953   5.910 -0.2396  1.0507 -0.1860
  100SAPS  O13A10015   3.817   5.074   5.924  0.3230 -0.1039 -0.3839
  100SAPS  O13B10016   3.914   4.911   5.815 -0.1130  0.1608 -0.7999
  100SAPS   C1110017   3.791   4.733   6.024 -0.0561 -0.6616 -1.0871
  100SAPS  H11A10018   3.884   4.697   5.974  1.6836 -0.3373  1.7129
  100SAPS  H11B10019   3.714   4.653   6.023  0.0898 -0.8738  0.9947
  100SAPS     P10020   3.894   4.693   6.257  0.2322 -0.1155 -0.0446
  100SAPS   O1310021   3.833   4.562   6.272  0.4765 -0.0182 -0.3220
  100SAPS   O1410022   4.033   4.698   6.213 -0.0900  0.5860 -0.0978
  100SAPS   O1210023   3.818   4.784   6.155 -0.3408 -0.3957 -0.3159
  100SAPS   O1110024   3.874   4.774   6.383  0.1899 -0.2118 -0.7508
  100SAPS    C110025   3.942   4.738   6.502  0.3622 -0.4383 -0.6684
  100SAPS    HA10026   4.011   4.654   6.476  0.5492 -0.0509 -1.4439
  100SAPS    HB10027   4.002   4.826   6.532  2.2412 -1.2833 -1.7146
  100SAPS    C210028   3.842   4.706   6.613  0.5684  0.0406  0.3016
  100SAPS    HS10029   3.759   4.654   6.561  0.3119  1.0947 -0.3631
  100SAPS   O2110030   3.799   4.834   6.665 -0.2380 -0.5439 -0.0547
  100SAPS   C2110031   3.697   4.824   6.745  0.2848 -0.1030 -0.0309
  100SAPS   O2210032   3.637   4.717   6.767 -0.2332 -0.3190  0.2684
  100SAPS   C2210033   3.649   4.971   6.761  0.2429 -0.2228 -0.0259
  100SAPS   H2R10034   3.709   5.029   6.834  1.8734 -0.4250 -1.1532
  100SAPS   H2S10035   3.664   5.012   6.659 -1.0966  0.2302 -0.0574
  100SAPS    C310036   3.904   4.611   6.722 -0.6419 -0.3695 -0.6956
  100SAPS    HX10037   3.918   4.520   6.659 -2.0913 -0.3526 -1.0864
  100SAPS    HY10038   3.829   4.595   6.803  0.9674 -0.4753  0.8186
  100SAPS   O3110039   4.035   4.658   6.749 -0.3821  0.0639 -0.2276
  100SAPS   C3110040   4.043   4.744   6.855 -0.0608 -0.1780  0.2710
  100SAPS   O3210041   3.947   4.770   6.924 -0.1089  0.5308 -0.3337
  100SAPS   C3210042   4.188   4.793   6.874 -0.5549  1.1653  0.6710
  100SAPS   H2X10043   4.191   4.876   6.801 -2.9335  0.5629 -0.2112
  100SAPS   H2Y10044   4.259   4.708   6.865 -1.4333  0.3429  1.3162
  100SAPS   C2310045   3.498   4.979   6.793 -0.8390 -0.0393 -0.2590
  100SAPS   H3R10046   3.446   4.892   6.747  0.5760 -0.9510 -0.1658
  100SAPS   H3S10047   3.463   5.079   6.760  0.7945  1.1471  1.4077
  100SAPS   C2410048   3.481   4.963   6.945 -0.1710  0.7275  0.2466
  100SAPS   H4R10049   3.566   5.015   6.994 -0.2822  1.4658 -0.3299
  100SAPS   H4S10050   3.493   4.856   6.974  0.7384  0.7622  0.0337
  100SAPS   C2510051   3.353   5.023   6.995 -0.3264 -0.3976 -0.2906
  100SAPS   H5R10052   3.270   5.020   6.922  1.3910  0.7497 -2.4017
  100SAPS   C2610053   3.337   5.092   7.110  0.1021 -0.6771  0.1592
  100SAPS   H6R10054   3.235   5.133   7.121 -0.4744  0.0679 -5.2853
  100SAPS   C2710055   3.434   5.124   7.221 -0.0955 -1.2331 -0.0492
  100SAPS   H7R10056   3.537   5.100   7.187  0.9501  0.3145  1.7935
  100SAPS   H7S10057   3.407   5.059   7.307 -0.3759 -2.5375 -1.0912
  100SAPS   C2810058   3.434   5.264   7.262  0.5198 -0.4234 -0.1470
  100SAPS   H8R10059   3.427   5.338   7.180  2.2446 -0.6241 -0.5158
  100SAPS   C2910060   3.459   5.296   7.394 -0.2190 -0.3141  0.3666
  100SAPS   H9R10061   3.462   5.405   7.413 -1.9001 -0.0728 -0.5367
  100SAPS  C21010062   3.489   5.201   7.510  0.2521 -0.2366  1.1192
  100SAPS  H10R10063   3.585   5.230   7.556  0.5985 -1.0520  0.9316
  100SAPS  H10S10064   3.514   5.098   7.475  1.0676 -0.0380  1.1069
  100SAPS  C21110065   3.364   5.196   7.604  0.2380 -0.5346 -0.4895
  100SAPS  H11R10066   3.266   5.169   7.561 -0.3108  1.2435 -0.4379
  100SAPS  C21210067   3.363   5.227   7.734 -0.3956 -0.0882 -0.4381
  100SAPS  H12R10068   3.272   5.230   7.796  0.5566  1.5713  0.9444
  100SAPS  C21310069   3.486   5.256   7.826 -0.0118  0.3294 -0.2641
  100SAPS  H13R10070   3.560   5.295   7.752 -1.0354 -0.0429 -1.5298
  100SAPS  H13S10071   3.518   5.163   7.877 -1.2782  0.9276  1.7194
  100SAPS  C21410072   3.468   5.355   7.939 -0.2597  0.3678  0.0003
  100SAPS  H14R10073   3.428   5.450   7.899  0.3184 -0.4727 -2.7952
  100SAPS  C21510074   3.476   5.340   8.077 -0.8343 -0.4007  0.4638
  100SAPS  H15R10075   3.449   5.432   8.131  0.3499  1.1271 -1.4101
  100SAPS  C21610076   3.514   5.221   8.162 -0.4707  0.7615  0.5846
  100SAPS  H16R10077   3.524   5.130   8.100  2.3191  1.7085 -0.5291
  100SAPS  H16S10078   3.433   5.197   8.234 -0.0712 -0.1605  0.7385
  100SAPS  C21710079   3.635   5.257   8.247 -0.4121 -0.4525  0.1833
  100SAPS  H17R10080   3.708   5.308   8.180 -0.1818 -1.2685 -0.1965
  100SAPS  H17S10081   3.686   5.169   8.292 -0.8798 -0.4643  0.7045
  100SAPS  C21810082   3.610   5.356   8.368 -0.4128  0.2795  0.2727
  100SAPS  H18R10083   3.537   5.438   8.352  0.9151  1.2357 -1.1957
  100SAPS  H18S10084   3.705   5.410   8.387 -1.6721  1.3824  4.6899
  100SAPS  C21910085   3.558   5.287   8.496  0.6184 -0.4018 -0.0833
  100SAPS  H19R10086   3.625   5.207   8.534  0.1249 -1.2736 -0.9909
  100SAPS  H19S10087   3.473   5.222   8.465 -1.3239  0.7001  2.5257
  100SAPS  C22010088   3.482   5.378   8.597 -0.2663  0.6647 -0.3958
  100SAPS  H20R10089   3.390   5.331   8.639 -0.5538 -2.1123 -3.6913
  100SAPS  H20S10090   3.461   5.475   8.547  1.7907  0.9628 -0.7609
  100SAPS  H20T10091   3.545   5.397   8.686 -2.5948  0.0106  1.5123
  100SAPS   C3310092   4.206   4.855   7.015 -0.5670  0.6629 -1.1552
  100SAPS   H3X10093   4.128   4.928   7.047 -0.2063  0.3950  0.4157
  100SAPS   H3Y10094   4.300   4.914   7.016  0.6463 -1.1008  2.0783
  100SAPS   C3410095   4.204   4.757   7.131 -0.2993  0.0476 -0.5079
  100SAPS   H4X10096   4.289   4.689   7.109  0.3452  1.2457 -1.8937
  100SAPS   H4Y10097   4.110   4.696   7.129 -0.4918  0.1466  1.9768
  100SAPS   C3510098   4.228   4.804   7.269 -0.3268  0.0193  0.4177
  100SAPS   H5X10099   4.159   4.891   7.280  1.3917  1.4443  0.4484
  100SAPS   H5Y10100   4.326   4.855   7.279 -1.2723  1.8328  1.0001
  100SAPS   C3610101   4.197   4.703   7.379 -0.4041 -0.6646 -0.0596
  100SAPS   H6X10102   4.266   4.616   7.381 -0.2869 -0.5916 -0.7064
  100SAPS   H6Y10103   4.093   4.668   7.363 -1.0893  2.1101 -2.6066
  100SAPS   C3710104   4.222   4.774   7.508 -0.8505  0.2712  0.2334
  100SAPS   H7X10105   4.190   4.880   7.505  2.9658  1.6213  1.3053
  100SAPS   H7Y10106   4.329   4.781   7.535 -1.1237  2.9312  0.8429
  100SAPS   C3810107   4.160   4.700   7.626  0.4961 -0.3207  0.7038
  100SAPS   H8X10108   4.200   4.596   7.623  2.9561  0.4674  2.7108
  100SAPS   H8Y10109   4.049   4.697   7.625  0.5059 -1.5242  1.4108
  100SAPS   C3910110   4.199   4.761   7.766 -0.1957  0.0983  0.2553
  100SAPS   H9X10111   4.142   4.856   7.765 -1.4332 -0.6044 -1.1745
  100SAPS   H9Y10112   4.307   4.787   7.772  0.8716 -3.4468 -0.8307
  100SAPS  C31010113   4.168   4.662   7.878  0.2653 -0.0466 -0.5185
  100SAPS  H10X10114   4.221   4.565   7.870  1.9926  0.8261 -0.0902
  100SAPS  H10Y10115   4.059   4.638   7.875  0.1777  0.4182 -1.8945
  100SAPS  C31110116   4.194   4.727   8.013  0.3939  0.2032  0.0254
  100SAPS  H11X10117   4.305   4.726   8.016  0.4886 -0.7347 -2.2009
  100SAPS  H11Y10118   4.143   4.674   8.097 -0.6091 -1.0343 -1.3233
  100SAPS  C31210119   4.154   4.873   8.027  0.0558 -0.9306  0.0754
  100SAPS  H12X10120   4.045   4.889   8.014  0.1578 -0.1746  0.1455
  100SAPS  H12Y10121   4.209   4.938   7.956  0.0658  1.0404  1.7827
  100SAPS  C31310122   4.188   4.915   8.178 -0.1251 -0.1991  0.0342
  100SAPS  H13X10123   4.123   4.863   8.251 -2.7152  3.1656  0.3726
  100SAPS  H13Y10124   4.153   5.019   8.194 -0.1163  0.0214 -1.2526
  100SAPS  C31410125   4.333   4.902   8.226 -0.0399 -0.3462  0.5624
  100SAPS  H14X10126   4.397   4.939   8.143 -0.1697  0.2488  0.7207
  100SAPS  H14Y10127   4.363   4.796   8.236  2.1682 -0.1151 -2.3030
  100SAPS  C31510128   4.364   4.992   8.348  0.4125 -0.0486  0.8722
  100SAPS  H15X10129   4.284   5.069   8.355 -0.2445 -0.7346  0.9568
  100SAPS  H15Y10130   4.459   5.049   8.340 -0.4986  1.6803  1.8263
  100SAPS  C31610131   4.357   4.915   8.478 -0.2650 -0.0011 -0.8372
  100SAPS  H16X10132   4.423   4.827   8.472 -0.9021 -0.6373  1.0303
  100SAPS  H16Y10133   4.252   4.884   8.498  0.1599 -0.4085  0.9206
  100SAPS  C31710134   4.410   5.006   8.592 -0.1335 -0.4701  0.5869
  100SAPS  H17X10135   4.390   5.111   8.560 -1.0239 -1.4071 -2.1684
  100SAPS  H17Y10136   4.519   4.987   8.590 -0.4256 -2.5368  1.3854
  100SAPS  C31810137   4.355   4.969   8.732 -0.0087  0.0340  1.3699
  100SAPS  H18X10138   4.249   4.999   8.747  0.1504  1.2043  0.3390
  100SAPS  H18Y10139   4.419   5.020   8.808  1.2394  0.5629  0.0097
  100SAPS  H18Z10140   4.368   4.859   8.742  0.5277  0.1917  2.7362
  101OSM      N10141   1.833   5.224  10.901  0.7279 -0.0866 -0.2605
  101OSM    C1510142   1.712   5.175  10.822  0.2096 -0.2758 -0.2417
  101OSM   H15A10143   1.709   5.069  10.804 -1.1946 -0.2878 -0.0095
  101OSM   H15B10144   1.712   5.231  10.730  1.1787  0.5039  0.2070
  101OSM   H15C10145   1.622   5.205  10.873 -0.3035 -1.1401 -0.6190
  101OSM    C1410146   1.826   5.378  10.894  0.5636 -0.0143 -0.2559
  101OSM   H14A10147   1.920   5.420  10.927 -0.0093  0.6186  0.6169
  101OSM   H14B10148   1.745   5.418  10.954 -0.0852 -1.3557 -0.2092
  101OSM   H14C10149   1.813   5.409  10.792 -1.3860  1.6051  0.4267
  101OSM    C1310150   1.827   5.182  11.047 -0.4292 -0.2868  0.0134
  101OSM   H13A10151   1.746   5.223  11.105 -0.7568 -1.2307  0.2339
  101OSM   H13B10152   1.919   5.217  11.091 -1.6209  0.6319  1.8870
  101OSM   H13C10153   1.830   5.076  11.065 -1.6868 -0.2467  0.5267
  101OSM    C1210154   1.961   5.167  10.844  0.2965  0.4327 -0.3487
  101OSM   H12A10155   1.953   5.059  10.839 -1.1023  0.4983  0.0462
  101OSM   H12B10156   2.044   5.186  10.910 -0.6397  0.3016  0.8780
  101OSM    C1110157   2.002   5.205  10.701 -0.0181 -0.1274 -0.0181
  101OSM   H11A10158   1.915   5.202  10.632 -0.0523  0.4594 -0.0036
  101OSM   H11B10159   2.068   5.118  10.679 -0.8036 -0.5130 -0.8888
  101OSM      P10160   2.225   5.336  10.746  0.0113  0.3194 -0.3077
  101OSM    O1310161   2.292   5.461  10.696  0.1905 -0.1226 -0.0580
  101OSM    O1410162   2.250   5.299  10.887  0.0930 -0.0590 -0.2361
  101OSM    O1110163   2.283   5.222  10.658 -0.7307 -0.3703  0.1596
  101OSM    O1210164   2.070   5.334  10.703  0.1172  0.0338 -0.0062
  101OSM    C1S10165   2.258   5.203  10.522  0.4530 -0.2005  0.8478
  101OSM    H1S10166   2.162   5.250  10.490  1.5090  1.4095 -0.1102
  101OSM    H1T10167   2.254   5.097  10.491  1.3298  0.5781 -2.3177
  101OSM     NF10168   2.309   5.253  10.287  0.4710 -0.5255  0.3404
  101OSM    HNF10169   2.335   5.172  10.234 -0.0323  0.1752 -1.0218
  101OSM    C2S10170   2.365   5.262  10.424  0.7659  0.3266  0.1400
  101OSM    H2S10171   2.398   5.367  10.443  2.6740 -0.0646 -0.7150
  101OSM    C3S10172   2.499   5.182  10.452  0.8786 -0.0244 -0.1344
  101OSM    H3S10173   2.476   5.076  10.429  2.5897 -1.1771  2.8656
  101OSM     O310174   2.526   5.192  10.590 -0.3098 -0.1160  0.3482
  101OSM    HO310175   2.438   5.186  10.629 -1.8384 -1.9051 -2.9925
  101OSM    C4S10176   2.611   5.224  10.370 -0.1413 -0.0474 -0.7841
  101OSM    H4S10177   2.633   5.332  10.375  0.4370 -0.2197  1.0434
  101OSM    C5S10178   2.700   5.136  10.321  0.6094 -0.3224 -0.0541
  101OSM    H5S10179   2.679   5.028  10.321  0.2888 -0.2764 -1.2501
  101OSM    C6S10180   2.829   5.172  10.247 -0.5605 -0.4976  0.1369
  101OSM    H6S10181   2.907   5.123  10.310 -1.2671 -0.9421  0.7020
  101OSM    H6T10182   2.838   5.281  10.229 -1.7636 -0.7016 -2.0617
  101OSM    C7S10183   2.828   5.116  10.108 -0.6710  0.3211 -0.7323
  101OSM    H7S10184   2.810   5.007  10.123 -0.1578  0.3288 -0.0212
  101OSM    H7T10185   2.931   5.134  10.070 -0.4079 -2.6057 -1.7113
  101OSM    C8S10186   2.730   5.176  10.010  0.1875 -0.4174 -0.2488
  101OSM    H8S10187   2.760   5.282   9.996 -0.3825  0.2650  2.9805
  101OSM    H8T10188   2.634   5.177  10.066  2.0784  1.1154  3.3181
  101OSM    C9S10189   2.715   5.086   9.885 -0.3106  0.2591 -0.2159
  101OSM    H9S10190   2.685   4.982   9.909  0.6845 -0.4281 -1.8525
  101OSM    H9T10191   2.817   5.069   9.845  0.0239 -2.0198  1.4016
  101OSM   C10S10192   2.634   5.154   9.778 -0.2348  0.4791  0.2364
  101OSM   H10S10193   2.694   5.245   9.760 -1.6776  1.3449 -0.3031
  101OSM   H10T10194   2.537   5.175   9.828 -1.5381 -2.0745 -1.0168
  101OSM   C11S10195   2.626   5.063   9.650  0.6500 -0.0086  0.1837
  101OSM   H11S10196   2.571   4.968   9.667  0.5635  0.1009  0.5245
  101OSM   H11T10197   2.727   5.033   9.618  0.3116 -1.3299  0.3106
  101OSM   C12S10198   2.543   5.136   9.539 -0.4138  0.0235  0.0663
  101OSM   H12S10199   2.592   5.228   9.501 -1.1727 -0.1497 -1.4005
  101OSM   H12T10200   2.444   5.153   9.586 -1.2142 -0.1725 -1.4762
  101OSM   C13S10201   2.521   5.047   9.415  0.1003  0.9222 -0.1896
  101OSM   H13S10202   2.459   4.959   9.442 -0.3776  1.1795 -0.4464
  101OSM   H13T10203   2.613   5.007   9.366  1.0230 -0.0915  2.2128
  101OSM   C14S10204   2.445   5.122   9.307  0.3779  1.1969  0.1718
  101OSM   H14S10205   2.507   5.183   9.238  0.8322  2.0347  1.2927
  101OSM   H14T10206   2.380   5.198   9.356 -2.0793  0.0747 -1.1873
  101OSM   C15S10207   2.365   5.020   9.226  0.5489  0.2402 -0.7790
  101OSM   H15S10208   2.300   5.077   9.156 -0.4332 -1.4820 -1.3123
  101OSM   H15T10209   2.308   4.956   9.296 -0.2099  3.5168  1.8460
  101OSM   C16S10210   2.467   4.953   9.131  0.4733  0.2456 -0.1428
  101OSM   H16S10211   2.536   4.889   9.189 -1.3977 -0.9542  0.8779
  101OSM   H16T10212   2.519   5.036   9.077 -0.1211 -0.0874 -1.2681
  101OSM   C17S10213   2.402   4.874   9.010 -0.5598 -0.2723 -0.0333
  101OSM   H17S10214   2.311   4.931   8.981  0.1384  0.4074 -0.9289
  101OSM   H17T10215   2.355   4.784   9.054  0.7916  0.3107  2.8700
  101OSM   C18S10216   2.490   4.842   8.891  0.1016 -0.2325 -0.3979
  101OSM   H18S10217   2.588   4.803   8.926  1.0298  2.8161  0.7429
  101OSM   H18T10218   2.523   4.936   8.844  3.1424 -1.2008 -0.4260
  101OSM   H18U10219   2.440   4.782   8.812 -0.5853  0.8615 -0.8072
  101OSM    C1F10220   2.226   5.340  10.237  0.2590  0.4528  0.2157
  101OSM     OF10221   2.188   5.439  10.299 -0.1224 -0.1548  0.6412
  101OSM    C2F10222   2.170   5.324  10.092  0.2688 -0.0990 -0.9096
  101OSM    H2F10223   2.133   5.422  10.057  0.0075  0.0620 -0.1897
  101OSM    H2G10224   2.081   5.265  10.123  1.6575 -0.7479  2.2005
  101OSM    C3F10225   2.254   5.241   9.999  0.2200  0.2169 -0.4292
  101OSM    H3F10226   2.282   5.142  10.040 -1.2375  0.3259  0.9631
  101OSM    H3G10227   2.346   5.302   9.985 -0.3093  0.3873 -4.2114
  101OSM    C4F10228   2.196   5.209   9.859  0.1649 -0.4881  0.7053
  101OSM    H4F10229   2.099   5.155   9.867 -1.1758  1.8451  1.1404
  101OSM    H4G10230   2.262   5.145   9.796 -1.1226  0.0321 -1.2579
  101OSM    C5F10231   2.182   5.338   9.784 -0.2688 -0.1655 -0.2357
  101OSM    H5F10232   2.281   5.386   9.774 -0.2598 -0.6480 -3.4123
  101OSM    H5G10233   2.111   5.409   9.831  0.6920  0.7966 -0.2220
  101OSM    C6F10234   2.134   5.315   9.640  0.5333  0.0453 -0.8520
  101OSM    H6F10235   2.040   5.256   9.642  1.9192 -2.2599 -0.0005
  101OSM    H6G10236   2.196   5.242   9.583 -0.2798  1.7486 -4.1607
  101OSM    C7F10237   2.127   5.439   9.552 -0.2987  0.6839 -0.0954
  101OSM    H7F10238   2.229   5.469   9.518  0.2247 -0.1794  0.6837
  101OSM    H7G10239   2.082   5.519   9.615 -1.8644 -1.5314  1.7803
  101OSM    C8F10240   2.038   5.420   9.428  0.7781  0.4893  0.6233
  101OSM    H8F10241   2.018   5.520   9.385 -0.5157  0.3853  0.9371
  101OSM    H8G10242   1.936   5.386   9.458  1.0174  0.5471  1.5558
  101OSM    C9F10243   2.088   5.334   9.324 -0.2611  0.2377 -0.4358
  101OSM    H9F10244   2.109   5.231   9.355 -2.8210 -0.3068 -0.2410
  101OSM   C10F10245   2.101   5.368   9.191  0.0220 -0.4790 -0.1791
  101OSM   H10F10246   2.138   5.289   9.125  0.4394 -0.2722 -0.1973
  101OSM   C11F10247   2.052   5.496   9.123  0.0631 -0.2296  0.3277
  101OSM   H11F10248   2.128   5.577   9.127 -0.3179  0.0823  1.3136
  101OSM   H11G10249   1.968   5.548   9.173  1.0328 -0.3408  2.1230
  101OSM   C12F10250   2.015   5.465   8.975 -0.1322  0.2500 -0.0286
  101OSM   H12F10251   1.941   5.384   8.957 -0.4772  1.0286 -2.4510
  101OSM   H12G10252   2.112   5.437   8.929  0.5394  1.2125  0.7427
  101OSM   C13F10253   1.946   5.574   8.901 -0.1132 -0.2660  0.0449
  101OSM   H13F10254   2.011   5.664   8.903  2.4572 -2.0545  1.4765
  101OSM   H13G10255   1.849   5.602   8.947 -0.4430 -0.3771 -0.5728
  101OSM   C14F10256   1.908   5.550   8.761  0.8709  0.0121  0.1439
  101OSM   H14F10257   1.827   5.474   8.762 -1.6049  2.4947  0.7229
  101OSM   H14G10258   1.998   5.510   8.708  1.3021 -0.0087  0.8774
  101OSM   C15F10259   1.870   5.684   8.692 -0.4093  0.1401  0.1071
  101OSM   H15F10260   1.950   5.760   8.708  2.3778 -2.1357 -1.9132
  101OSM   H15G10261   1.785   5.730   8.747  0.0639  1.2175 -0.0293
  101OSM   C16F10262   1.825   5.687   8.542 -0.4507  0.0788  0.2051
  101OSM   H16F10263   1.765   5.779   8.525 -0.8912  0.0232  1.3476
  101OSM   H16G10264   1.761   5.599   8.523  1.7364 -1.4089 -0.6272
  101OSM   C17F10265   1.946   5.677   8.447 -0.1517  0.8215 -0.4435
  101OSM   H17F10266   1.918   5.644   8.344 -0.8104  0.4522 -0.1528
  101OSM   H17G10267   2.004   5.586   8.474 -1.2672 -0.5170 -2.2516
  101OSM   C18F10268   2.020   5.813   8.441 -0.3096  0.3491  0.4278
  101OSM   H18F10269   2.079   5.825   8.347 -0.5919 -1.7712 -0.0656
  101OSM   H18G10270   2.087   5.818   8.529 -0.1514 -0.7345  0.3760
  101OSM   H18H10271   1.946   5.896   8.450 -0.2687  0.6416 -1.3994
  102OSM      N10272   1.370   6.329  10.909  0.0310  0.4172  0.3127
  102OSM    C1510273   1.225   6.303  10.895 -0.5753 -0.4985 -0.5220
  102OSM   H15A10274   1.174   6.354  10.975 -0.8082 -2.1439  0.4364
  102OSM   H15B10275   1.200   6.198  10.896 -0.0438 -0.6279 -0.6681
  102OSM   H15C10276   1.188   6.340  10.800 -0.0561  2.4387  0.3370
  102OSM    C1410277   1.401   6.474  10.913 -0.0537 -0.6277  0.3180
  102OSM   H14A10278   1.507   6.486  10.900 -0.1246  0.8210  0.9092
  102OSM   H14B10279   1.376   6.512  11.011 -2.1093 -0.4113 -0.2421
  102OSM   H14C10280   1.340   6.537  10.850  1.0995  3.8259  3.1767
  102OSM    C1310281   1.410   6.255  11.029 -0.3931 -0.2208 -0.5657
  102OSM   H13A10282   1.406   6.148  11.016  1.9054 -0.3722 -0.3657
  102OSM   H13B10283   1.357   6.291  11.115  1.1545  0.2854  0.2050
  102OSM   H13C10284   1.513   6.276  11.053 -0.5828  0.3533 -0.2474
  102OSM    C1210285   1.442   6.271  10.785 -0.0657  0.3626  0.0832
  102OSM   H12A10286   1.545   6.268  10.817  0.2911 -1.2766 -1.0964
  102OSM   H12B10287   1.415   6.334  10.701 -1.6075 -0.1187  0.1905
  102OSM    C1110288   1.407   6.132  10.736 -0.4724 -0.1502 -0.4080
  102OSM   H11A10289   1.476   6.117  10.650  0.3183  2.6081 -0.3440
  102OSM   H11B10290   1.301   6.132  10.705 -0.9349  1.8205  0.9834
  102OSM      P10291   1.322   5.926  10.885 -0.2370  0.0481  0.1433
  102OSM    O1310292   1.341   5.901  11.031  0.0973 -0.3966 -0.1061
  102OSM    O1410293   1.185   5.975  10.848  0.2571 -0.0085  0.0210
  102OSM    O1110294   1.363   5.805  10.801  1.0014 -0.0414  0.1285
  102OSM    O1210295   1.434   6.029  10.834  0.5738 -0.3907 -0.4773
  102OSM    C1S10296   1.311   5.774  10.669 -0.4250 -0.3230 -0.2793
  102OSM    H1S10297   1.219   5.827  10.638 -1.6957 -2.4023 -0.2715
  102OSM    H1T10298   1.273   5.670  10.680  1.2405 -0.7702  2.1151
  102OSM     NF10299   1.342   5.777  10.418 -0.2445  0.0040  0.2837
  102OSM    HNF10300   1.353   5.708  10.348 -0.8922  0.5274 -0.3423
  102OSM    C2S10301   1.410   5.789  10.550 -0.1090  0.6499  0.2579
  102OSM    H2S10302   1.457   5.889  10.565  1.5236  0.1878 -1.3467
  102OSM    C3S10303   1.526   5.688  10.553 -0.1586  0.2579  0.3360
  102OSM    H3S10304   1.476   5.590  10.539  0.5467 -0.0873  0.1847
  102OSM     O310305   1.584   5.692  10.683 -0.6715  0.3218 -0.0180
  102OSM    HO310306   1.529   5.745  10.742  1.5103  0.6613  1.8404
  102OSM    C4S10307   1.638   5.718  10.464  0.2371 -0.3177 -0.1505
  102OSM    H4S10308   1.683   5.816  10.483 -0.7502  0.5178 -1.8635
  102OSM    C5S10309   1.663   5.660  10.350 -0.1582  0.1398 -0.2634
  102OSM    H5S10310   1.606   5.569  10.323 -1.3638  0.7968 -0.0070
  102OSM    C6S10311   1.765   5.700  10.253 -0.4973  0.4089 -0.1601
  102OSM    H6S10312   1.858   5.639  10.254 -0.1700  0.8528 -1.3334
  102OSM    H6T10313   1.797   5.805  10.265  0.5207  0.3345 -1.8945
  102OSM    C7S10314   1.706   5.691  10.107 -0.3153 -0.4707  0.0710
  102OSM    H7S10315   1.625   5.767  10.108  0.2821  0.2930  3.3592
  102OSM    H7T10316   1.660   5.597  10.071  1.5536 -1.1625 -0.6541
  102OSM    C8S10317   1.814   5.718  10.005  0.0867 -0.3990 -0.1057
  102OSM    H8S10318   1.892   5.640  10.001  0.3608 -0.1122 -0.3802
  102OSM    H8T10319   1.859   5.810  10.047  2.7788 -2.4812  1.8902
  102OSM    C9S10320   1.768   5.732   9.854  0.1565 -1.1408 -0.8030
  102OSM    H9S10321   1.696   5.816   9.845  0.8244 -0.4332  0.1738
  102OSM    H9T10322   1.717   5.642   9.815 -2.5216 -0.2670  0.4713
  102OSM   C10S10323   1.898   5.761   9.773  0.7784 -0.1398 -0.1719
  102OSM   H10S10324   1.969   5.681   9.805  1.6984 -0.0394 -1.8700
  102OSM   H10T10325   1.945   5.860   9.789  0.4362  0.0516 -0.3394
  102OSM   C11S10326   1.847   5.745   9.629 -0.3368 -0.6711 -0.4362
  102OSM   H11S10327   1.753   5.804   9.619  1.1586  1.9172 -0.2468
  102OSM   H11T10328   1.822   5.640   9.601 -2.2254 -0.8508  1.5957
  102OSM   C12S10329   1.937   5.797   9.522 -0.1622 -0.1430 -0.1088
  102OSM   H12S10330   2.024   5.729   9.510  1.0933  1.2321  0.8785
  102OSM   H12T10331   1.990   5.886   9.560 -2.1576  0.8900  0.3891
  102OSM   C13S10332   1.878   5.829   9.386  0.2831  0.7687  0.9597
  102OSM   H13S10333   1.797   5.903   9.402  1.3309  2.4452 -0.9578
  102OSM   H13T10334   1.831   5.735   9.349 -1.3730  0.0069  4.5900
  102OSM   C14S10335   1.978   5.865   9.283 -0.5948 -0.4553  1.0008
  102OSM   H14S10336   2.057   5.789   9.269 -0.4606 -0.4941  1.9161
  102OSM   H14T10337   2.029   5.959   9.315 -0.1162  0.2678 -1.6668
  102OSM   C15S10338   1.909   5.890   9.145  0.3598  0.1327 -0.5163
  102OSM   H15S10339   1.828   5.966   9.148 -0.1482 -0.2541 -2.6382
  102OSM   H15T10340   1.862   5.798   9.103 -1.1166  1.6650 -2.4212
  102OSM   C16S10341   2.023   5.921   9.048 -0.1635  0.0678  1.0315
  102OSM   H16S10342   2.092   5.838   9.023 -1.4048 -1.0426  1.2197
  102OSM   H16T10343   2.091   6.004   9.078 -0.1297  1.3889 -2.1891
  102OSM   C17S10344   1.958   5.964   8.921  0.5130 -0.0410  0.1230
  102OSM   H17S10345   1.897   6.055   8.938  0.2510 -0.0286 -0.8004
  102OSM   H17T10346   1.882   5.893   8.882  1.7727 -1.3744  0.0296
  102OSM   C18S10347   2.066   5.986   8.815  0.3640  0.1917  0.5017
  102OSM   H18S10348   2.147   6.046   8.862  0.8026 -0.4010  0.5303
  102OSM   H18T10349   2.025   6.044   8.730  1.0920 -0.8570 -0.6032
  102OSM   H18U10350   2.107   5.892   8.772 -2.1787 -0.0377 -1.6900
  102OSM    C1F10351   1.248   5.858  10.382  0.0035 -0.3334 -0.4846
  102OSM     OF10352   1.213   5.954  10.451 -0.2336  0.1360 -0.1240
  102OSM    C2F10353   1.197   5.844  10.240  0.3393  0.3919 -0.0384
  102OSM    H2F10354   1.095   5.801  10.248  1.5533 -2.5469  0.8570
  102OSM    H2G10355   1.262   5.778  10.180  0.8033 -0.5665  1.4725
  102OSM    C3F10356   1.190   5.979  10.157  0.1657  0.8165  0.3909
  102OSM    H3F10357   1.292   6.024  10.149  0.3902  0.1045 -0.8874
  102OSM    H3G10358   1.114   6.050  10.197 -0.4829  1.1673 -1.3690
  102OSM    C4F10359   1.136   5.952  10.014  0.2441  0.6223  0.0581
  102OSM    H4F10360   1.030   5.919  10.013  0.7211 -1.0712  1.4086
  102OSM    H4G10361   1.195   5.868   9.973 -0.2608  0.3884 -0.2075
  102OSM    C5F10362   1.145   6.074   9.921 -0.2011 -0.8340 -0.0862
  102OSM    H5F10363   1.255   6.090   9.914  0.0696  0.2657  4.1097
  102OSM    H5G10364   1.105   6.163   9.974 -3.1328 -2.7677  1.2193
  102OSM    C6F10365   1.073   6.054   9.786  0.0858 -0.1014  0.3738
  102OSM    H6F10366   0.964   6.045   9.806 -0.2570 -2.3016 -1.9059
  102OSM    H6G10367   1.103   5.959   9.737  3.1044  1.8944 -2.0477
  102OSM    C7F10368   1.108   6.171   9.690  0.3317 -0.1034 -0.4248
  102OSM    H7F10369   1.218   6.162   9.684  0.4540  0.5610  0.5778
  102OSM    H7G10370   1.068   6.268   9.728 -0.9308 -0.1109 -1.6128
  102OSM    C8F10371   1.054   6.162   9.552  0.0676 -0.0624 -0.4820
  102OSM    H8F10372   1.107   6.089   9.489  0.7760  0.0872 -0.0689
  102OSM    H8G10373   1.081   6.262   9.511 -1.9299  1.3156  1.2802
  102OSM    C9F10374   0.899   6.137   9.558 -0.5647  0.2158 -0.1218
  102OSM    H9F10375   0.872   6.031   9.570 -1.5161  0.7065  2.8901
  102OSM   C10F10376   0.804   6.228   9.545 -0.1352  0.1168  0.2174
  102OSM   H10F10377   0.701   6.189   9.538  0.4236 -1.3414 -0.3957
  102OSM   C11F10378   0.827   6.379   9.534 -0.6936  0.0146  0.7503
  102OSM   H11F10379   0.762   6.425   9.457 -0.9418  1.0070  1.5387
  102OSM   H11G10380   0.926   6.407   9.495 -0.5637 -2.0844 -0.6004
  102OSM   C12F10381   0.797   6.446   9.665  0.2638  0.2756  0.0388
  102OSM   H12F10382   0.817   6.555   9.655 -1.9614  0.5352 -2.8151
  102OSM   H12G10383   0.852   6.411   9.756 -0.5368  0.8154  0.7504
  102OSM   C13F10384   0.648   6.416   9.703 -0.0560 -0.5103  0.0383
  102OSM   H13F10385   0.628   6.307   9.699  0.6423 -0.6720  0.7774
  102OSM   H13G10386   0.574   6.446   9.625 -1.2932  0.7016  1.5914
  102OSM   C14F10387   0.603   6.479   9.831  0.6826  0.4262  0.1362
  102OSM   H14F10388   0.615   6.589   9.839 -3.0546  0.8211  3.8884
  102OSM   H14G10389   0.677   6.455   9.910 -0.8802 -1.7427  1.0330
  102OSM   C15F10390   0.462   6.438   9.875  0.0832  0.3631  0.1570
  102OSM   H15F10391   0.466   6.327   9.873  1.2348  0.3582 -2.6255
  102OSM   H15G10392   0.390   6.468   9.796  0.5811 -0.6598 -0.7148
  102OSM   C16F10393   0.428   6.502  10.010  0.1431  0.0324 -0.1351
  102OSM   H16F10394   0.406   6.609   9.991 -2.7223 -0.2053  1.3011
  102OSM   H16G10395   0.516   6.495  10.076  0.7050  1.2817 -0.7127
  102OSM   C17F10396   0.303   6.444  10.067  0.7175  0.4315 -0.0589
  102OSM   H17F10397   0.297   6.334  10.085  0.8288  0.6492  1.4118
  102OSM   H17G10398   0.220   6.451   9.993 -1.0093 -1.2059  1.5848
  102OSM   C18F10399   0.259   6.512  10.198  0.2641 -0.1940  0.0539
  102OSM   H18F10400   0.216   6.612  10.177 -0.0615 -0.0343  1.3529
  102OSM   H18G10401   0.350   6.538  10.256  1.1707  0.6603 -1.6900
  102OSM   H18H10402   0.188   6.448  10.256  1.0610 -4.2547 -2.9762
  103OSM      N10403   2.608   1.011  11.160  1.0671  0.0983 -0.2711
  103OSM    C1510404   2.507   1.039  11.272 -0.2610  0.3344 -0.3166
  103OSM   H15A10405   2.556   1.083  11.358  0.3327 -0.2802 -0.3306
  103OSM   H15B10406   2.449   0.952  11.298 -2.2254  2.3796  2.7406
  103OSM   H15C10407   2.433   1.108  11.236  0.0053  1.0545  0.4861
  103OSM    C1410408   2.519   1.024  11.034 -0.0422  0.6000  0.8298
  103OSM   H14A10409   2.462   1.116  11.030  0.0435  0.6187 -1.3514
  103OSM   H14B10410   2.446   0.944  11.034  1.5343 -0.9066  0.1683
  103OSM   H14C10411   2.581   1.024  10.946  1.1915 -1.9146  1.6136
  103OSM    C1310412   2.720   1.112  11.157 -0.2787 -0.4111 -0.3839
  103OSM   H13A10413   2.684   1.212  11.138 -0.2562  0.4398  3.3388
  103OSM   H13B10414   2.780   1.107  11.067  0.4755 -0.3456  0.1085
  103OSM   H13C10415   2.779   1.117  11.247 -0.7041  2.6610 -0.1647
  103OSM    C1210416   2.672   0.874  11.156 -0.4508 -0.2528 -0.1479
  103OSM   H12A10417   2.749   0.873  11.232  1.0783  0.6852 -1.6034
  103OSM   H12B10418   2.730   0.869  11.066  1.7391  4.5156  0.6880
  103OSM    C1110419   2.575   0.751  11.189 -0.0923 -0.5608  0.3866
  103OSM   H11A10420   2.524   0.766  11.287  2.7723  1.0489  1.7695
  103OSM   H11B10421   2.645   0.665  11.195  2.0262  1.0059 -0.5073
  103OSM      P10422   2.346   0.644  11.115 -0.1132 -0.3173 -0.2387
  103OSM    O1310423   2.376   0.513  11.173  0.1311 -0.2469  0.6270
  103OSM    O1410424   2.250   0.723  11.188  0.3675  0.1091 -0.3189
  103OSM    O1110425   2.292   0.626  10.965  0.8187  0.1745 -0.1473
  103OSM    O1210426   2.477   0.733  11.087 -0.5956 -0.2540  0.0371
  103OSM    C1S10427   2.316   0.720  10.860 -0.3140 -1.0330 -0.3567
  103OSM    H1S10428   2.425   0.744  10.855 -0.8856  1.6328 -2.3627
  103OSM    H1T10429   2.283   0.824  10.879 -1.9950 -1.4549 -0.8278
  103OSM     NF10430   2.344   0.748  10.614 -0.0964 -0.4636 -0.3438
  103OSM    HNF10431   2.277   0.776  10.546 -2.0304 -0.3329  1.5224
  103OSM    C2S10432   2.281   0.672  10.718 -0.3618  0.3672 -0.4990
  103OSM    H2S10433   2.317   0.568  10.706 -0.1597  0.2722  0.7840
  103OSM    C3S10434   2.126   0.660  10.707 -0.1709 -0.3327 -0.0092
  103OSM    H3S10435   2.076   0.757  10.727 -1.4895 -1.1262  0.7303
  103OSM     O310436   2.067   0.566  10.809  0.0449 -0.0675  0.1020
  103OSM    HO310437   2.139   0.549  10.869 -0.7969  1.0758  1.5047
  103OSM    C4S10438   2.092   0.620  10.563  0.0698  0.0971  0.1069
  103OSM    H4S10439   2.096   0.707  10.495  0.5558 -0.8900 -1.1588
  103OSM    C5S10440   2.079   0.500  10.501  0.3938 -0.1812  0.4241
  103OSM    H5S10441   2.092   0.418  10.573 -2.0133  0.8084  2.1189
  103OSM    C6S10442   2.052   0.471  10.349  0.1349  0.6261 -0.1675
  103OSM    H6S10443   1.959   0.410  10.343 -0.8304  2.0160  0.1986
  103OSM    H6T10444   2.133   0.413  10.300  2.3581  0.2145  3.5701
  103OSM    C7S10445   2.020   0.582  10.255  0.3399  0.0136 -0.1951
  103OSM    H7S10446   2.106   0.653  10.258 -1.7954  2.7321  2.1241
  103OSM    H7T10447   1.922   0.624  10.283 -0.0961 -1.5594  0.8300
  103OSM    C8S10448   2.009   0.531  10.110 -0.8039  0.5254 -0.1641
  103OSM    H8S10449   1.914   0.474  10.097  0.2956 -1.1903 -0.9526
  103OSM    H8T10450   2.085   0.456  10.080 -2.2625 -0.1269 -2.5813
  103OSM    C9S10451   2.004   0.643  10.004 -0.6739  1.3986 -0.3182
  103OSM    H9S10452   2.093   0.709  10.011  1.9036 -1.7431 -1.4416
  103OSM    H9T10453   1.914   0.702  10.031  0.5541  2.7143  1.0854
  103OSM   C10S10454   1.981   0.586   9.858  0.4147  0.2965  0.1121
  103OSM   H10S10455   1.979   0.666   9.782 -2.6749 -0.1774 -0.4586
  103OSM   H10T10456   1.880   0.541   9.850  1.1077 -1.2935 -0.0827
  103OSM   C11S10457   2.077   0.472   9.817 -0.0497  0.6206  0.7058
  103OSM   H11S10458   2.056   0.392   9.891 -1.4589 -0.2868 -0.6282
  103OSM   H11T10459   2.185   0.493   9.835  0.3906  0.2283 -1.2503
  103OSM   C12S10460   2.047   0.416   9.677 -0.9391 -0.1526 -0.9240
  103OSM   H12S10461   1.941   0.440   9.652 -0.3723  1.4419 -1.9724
  103OSM   H12T10462   2.060   0.306   9.671  2.2470  0.2163 -2.9757
  103OSM   C13S10463   2.136   0.491   9.571 -0.5432 -0.6333  0.1262
  103OSM   H13S10464   2.243   0.471   9.595 -0.5835 -0.7207  0.2337
  103OSM   H13T10465   2.113   0.598   9.589  1.5740 -0.4184  2.0580
  103OSM   C14S10466   2.096   0.454   9.430 -0.2407  0.4795  0.6058
  103OSM   H14S10467   1.993   0.475   9.396  0.0068 -1.1745 -1.4314
  103OSM   H14T10468   2.110   0.345   9.411  1.0579  0.1374  3.1262
  103OSM   C15S10469   2.185   0.528   9.334  0.1682  0.6349  0.3097
  103OSM   H15S10470   2.291   0.495   9.344  0.6901  1.4459 -1.8738
  103OSM   H15T10471   2.180   0.636   9.356 -0.6559  0.2409  2.2417
  103OSM   C16S10472   2.151   0.501   9.188 -0.0378  0.0243  0.3321
  103OSM   H16S10473   2.053   0.546   9.163 -1.5213 -2.3048  1.5348
  103OSM   H16T10474   2.150   0.391   9.173  1.2457 -0.7537  4.5281
  103OSM   C17S10475   2.261   0.560   9.096  0.0874 -0.5864  0.3072
  103OSM   H17S10476   2.352   0.521   9.146  0.8783  2.2951  1.2949
  103OSM   H17T10477   2.262   0.671   9.097 -1.3685 -0.5481  1.3181
  103OSM   C18S10478   2.262   0.509   8.948  0.3960  0.1065 -0.5812
  103OSM   H18S10479   2.344   0.549   8.885  0.4659 -0.4087 -0.8265
  103OSM   H18T10480   2.163   0.519   8.898  0.1066 -0.1532 -0.0671
  103OSM   H18U10481   2.284   0.400   8.943  0.7654  0.1603 -0.2472
  103OSM    C1F10482   2.477   0.775  10.596 -0.4104 -0.7643  0.2022
  103OSM     OF10483   2.569   0.721  10.664 -0.4956 -0.1625 -0.0711
  103OSM    C2F10484   2.513   0.865  10.481  0.6925 -0.2720 -0.1149
  103OSM    H2F10485   2.608   0.917  10.506 -0.5312  1.3065  1.5795
  103OSM    H2G10486   2.429   0.936  10.469 -0.0138 -1.1107 -0.2215
  103OSM    C3F10487   2.518   0.791  10.352 -0.5936  0.2833 -0.1364
  103OSM    H3F10488   2.600   0.717  10.350  1.4136  2.4063 -1.4554
  103OSM    H3G10489   2.541   0.858  10.266  2.9505 -0.9973 -0.3543
  103OSM    C4F10490   2.391   0.715  10.313 -0.0354  0.0142  0.1039
  103OSM    H4F10491   2.306   0.785  10.332 -1.2073 -1.0692 -0.9384
  103OSM    H4G10492   2.393   0.626  10.380 -0.7856  0.2291  0.4307
  103OSM    C5F10493   2.398   0.670  10.162 -0.1407  0.0606  0.8962
  103OSM    H5F10494   2.316   0.598  10.141 -1.1578  1.6289 -0.7535
  103OSM    H5G10495   2.494   0.622  10.131 -0.3676 -1.2763  2.1402
  103OSM    C6F10496   2.378   0.780  10.057 -0.7251  0.5158 -0.3041
  103OSM    H6F10497   2.373   0.873  10.116  0.7349  0.0432  0.6399
  103OSM    H6G10498   2.283   0.762  10.003  0.3456  0.0593 -2.1214
  103OSM    C7F10499   2.499   0.788   9.960 -0.9921 -0.0224 -0.5250
  103OSM    H7F10500   2.523   0.684   9.929  0.8403 -0.6031  2.4788
  103OSM    H7G10501   2.585   0.836  10.013 -1.1319  3.0807 -2.7971
  103OSM    C8F10502   2.483   0.886   9.839 -0.0127  0.0740  0.5269
  103OSM    H8F10503   2.445   0.980   9.886  1.5321  1.1708 -0.3446
  103OSM    H8G10504   2.399   0.843   9.780  1.0844 -2.8118  0.9114
  103OSM    C9F10505   2.601   0.916   9.760 -0.2268 -0.1890 -0.2206
  103OSM    H9F10506   2.644   1.013   9.788 -1.7447  0.6645 -0.7211
  103OSM   C10F10507   2.646   0.849   9.652 -0.0668 -0.8884 -0.5042
  103OSM   H10F10508   2.731   0.888   9.593 -1.6655 -0.3391 -2.5673
  103OSM   C11F10509   2.578   0.723   9.590  0.5766  0.2257  0.1048
  103OSM   H11F10510   2.478   0.704   9.635 -1.1371  2.9151 -2.2342
  103OSM   H11G10511   2.635   0.632   9.618  0.0652  0.7327  3.1934
  103OSM   C12F10512   2.551   0.742   9.440  0.1038  0.5711  0.0402
  103OSM   H12F10513   2.529   0.644   9.393 -0.8762  0.0664  1.5049
  103OSM   H12G10514   2.649   0.757   9.390 -0.1715 -3.0258 -1.9327
  103OSM   C13F10515   2.464   0.858   9.409 -0.3546 -0.0088 -0.3669
  103OSM   H13F10516   2.371   0.850   9.471  1.5597 -1.3913  2.5652
  103OSM   H13G10517   2.499   0.954   9.452 -4.2702  1.6133 -0.3161
  103OSM   C14F10518   2.424   0.871   9.262 -0.3190  0.6255  0.1979
  103OSM   H14F10519   2.368   0.965   9.245 -2.9548 -1.1421 -1.6728
  103OSM   H14G10520   2.357   0.787   9.234 -2.5209  0.8926  3.9855
  103OSM   C15F10521   2.541   0.880   9.164  0.8386 -0.2868  0.9139
  103OSM   H15F10522   2.600   0.787   9.173  0.6829 -0.5641 -0.6079
  103OSM   H15G10523   2.609   0.965   9.186  0.3297  0.4022 -0.0568
  103OSM   C16F10524   2.507   0.896   9.018 -0.1353  0.0699 -0.2070
  103OSM   H16F10525   2.469   0.997   8.992  1.3855  1.1189  1.4301
  103OSM   H16G10526   2.431   0.823   8.981 -0.0832 -0.5362  0.8412
  103OSM   C17F10527   2.631   0.857   8.940 -0.2436 -0.2530  0.0326
  103OSM   H17F10528   2.658   0.753   8.965 -2.1958 -0.3122  2.2599
  103OSM   H17G10529   2.709   0.924   8.983 -1.0036 -0.5381  1.9956
  103OSM   C18F10530   2.608   0.872   8.792  0.4915  1.1119 -0.0020
  103OSM   H18F10531   2.706   0.864   8.741 -0.0383  1.2990 -1.0642
  103OSM   H18G10532   2.573   0.975   8.770  1.1390  1.4864  0.6516
  103OSM   H18H10533   2.533   0.803   8.750  1.2432  0.3518 -0.1289
  104OSM      N10534   0.921   1.613  10.979 -0.1102  0.2895 -0.0989
  104OSM    C1510535   0.829   1.720  11.038 -0.1415  0.4844 -0.3189
  104OSM   H15A10536   0.856   1.738  11.140  1.3415 -0.2358 -0.5522
  104OSM   H15B10537   0.731   1.676  11.029  0.5312 -1.1183 -0.2355
  104OSM   H15C10538   0.834   1.812  10.982  1.8899  0.0948 -0.8577
  104OSM    C1410539   1.053   1.679  10.956 -0.2392 -0.1827  0.0917
  104OSM   H14A10540   1.044   1.771  10.900  0.1248  0.9894  1.8705
  104OSM   H14B10541   1.125   1.622  10.899 -1.5286  0.1022 -1.9231
  104OSM   H14C10542   1.106   1.704  11.046  0.3841 -0.4154 -0.2061
  104OSM    C1310543   0.923   1.504  11.080  0.0021 -0.7474  0.3254
  104OSM   H13A10544   0.820   1.475  11.092  0.3895 -1.1091  3.4285
  104OSM   H13B10545   0.965   1.530  11.176 -1.5147  1.4467  0.4867
  104OSM   H13C10546   0.973   1.420  11.035  0.5513 -0.1285 -0.2420
  104OSM    C1210547   0.883   1.565  10.839 -0.2063 -0.2618 -0.3086
  104OSM   H12A10548   0.967   1.525  10.784  0.0431 -1.2623  0.7632
  104OSM   H12B10549   0.860   1.659  10.791 -0.1919  1.2982  2.5543
  104OSM    C1110550   0.771   1.467  10.828  0.5505  0.2942 -0.3760
  104OSM   H11A10551   0.805   1.375  10.881 -2.5668 -0.8100 -0.0521
  104OSM   H11B10552   0.746   1.428  10.727  1.2529  0.1738 -0.5068
  104OSM      P10553   0.544   1.602  10.816  0.2352 -0.4437 -0.3069
  104OSM    O1310554   0.437   1.509  10.762  0.4263 -0.1260  0.1387
  104OSM    O1410555   0.508   1.714  10.912 -0.5618 -0.0274  0.3543
  104OSM    O1110556   0.629   1.669  10.701 -0.1470  0.3497 -0.3591
  104OSM    O1210557   0.647   1.507  10.891 -0.3549 -0.1828 -0.0824
  104OSM    C1S10558   0.581   1.791  10.649 -0.1849 -0.9155  0.1957
  104OSM    H1S10559   0.630   1.878  10.699 -0.1914  0.6915 -2.3847
  104OSM    H1T10560   0.471   1.797  10.655 -0.1266 -0.8934  1.7077
  104OSM     NF10561   0.596   1.952  10.471  0.6170 -0.2199 -0.1119
  104OSM    HNF10562   0.502   1.981  10.454  0.8224  1.1028  0.8984
  104OSM    C2S10563   0.615   1.811  10.495 -0.0053 -0.2577 -0.0312
  104OSM    H2S10564   0.719   1.775  10.480  0.1596  0.5997 -1.0784
  104OSM    C3S10565   0.510   1.725  10.409 -0.2581 -0.1215  0.4536
  104OSM    H3S10566   0.410   1.766  10.432 -0.3147 -0.9273  1.7650
  104OSM     O310567   0.514   1.585  10.440  0.2939  0.0138  0.0572
  104OSM    HO310568   0.567   1.581  10.520  0.8702 -1.1086 -0.3605
  104OSM    C4S10569   0.541   1.749  10.261 -0.0268 -0.5344 -0.4801
  104OSM    H4S10570   0.645   1.726  10.235  0.6164 -3.2115  3.4528
  104OSM    C5S10571   0.456   1.798  10.164 -0.0707 -0.3571 -0.3452
  104OSM    H5S10572   0.347   1.791  10.176 -0.0726 -1.6274 -0.9095
  104OSM    C6S10573   0.501   1.818  10.028 -0.4294  0.4252 -0.4952
  104OSM    H6S10574   0.596   1.765  10.004 -1.4320 -1.0368 -1.4362
  104OSM    H6T10575   0.518   1.926  10.010  2.3477 -0.1048 -1.5679
  104OSM    C7S10576   0.400   1.776   9.922  0.5016 -0.4295  0.2426
  104OSM    H7S10577   0.305   1.833   9.929  0.7620 -0.1262  1.4695
  104OSM    H7T10578   0.385   1.666   9.913 -0.5021 -0.1911 -1.5214
  104OSM    C8S10579   0.454   1.805   9.779 -0.6320 -0.2027 -0.6541
  104OSM    H8S10580   0.477   1.914   9.780 -0.8291 -0.1282 -2.0596
  104OSM    H8T10581   0.372   1.795   9.705  0.1540 -0.7784 -1.4695
  104OSM    C9S10582   0.580   1.740   9.737  0.2453  0.1555  0.1878
  104OSM    H9S10583   0.544   1.635   9.726 -1.0139  0.5111  0.7197
  104OSM    H9T10584   0.666   1.749   9.807  0.6604  0.6761 -0.3770
  104OSM   C10S10585   0.630   1.778   9.595 -0.1467  0.1988  0.0560
  104OSM   H10S10586   0.732   1.738   9.576  0.9133  2.9678 -0.5867
  104OSM   H10T10587   0.627   1.885   9.565  1.3994 -0.2600 -2.0193
  104OSM   C11S10588   0.553   1.700   9.486  0.7275 -0.1614 -0.0001
  104OSM   H11S10589   0.446   1.716   9.511  1.1459  0.4446  1.5151
  104OSM   H11T10590   0.578   1.592   9.487 -2.2519 -1.1759 -4.5914
  104OSM   C12S10591   0.573   1.755   9.343  0.2050 -0.1061  0.6497
  104OSM   H12S10592   0.682   1.771   9.324  0.0225  0.8507  0.3895
  104OSM   H12T10593   0.539   1.860   9.331 -0.7642 -0.5119 -0.2770
  104OSM   C13S10594   0.506   1.663   9.238  0.0234  0.3553 -0.0214
  104OSM   H13S10595   0.396   1.653   9.254  0.2295  0.4806  1.7358
  104OSM   H13T10596   0.538   1.557   9.249  0.6717  0.3534 -1.6862
  104OSM   C14S10597   0.526   1.713   9.097 -0.5527  0.0680  0.6278
  104OSM   H14S10598   0.562   1.625   9.040 -0.6097  0.8757 -0.7104
  104OSM   H14T10599   0.606   1.791   9.095 -1.7093  1.2831 -0.6577
  104OSM   C15S10600   0.405   1.770   9.024 -0.4519 -0.9105 -0.0079
  104OSM   H15S10601   0.354   1.841   9.093  0.6630  0.6450 -0.7129
  104OSM   H15T10602   0.343   1.685   8.989 -0.1734 -0.6155 -1.2728
  104OSM   C16S10603   0.429   1.847   8.889 -0.7283 -0.0672  0.2435
  104OSM   H16S10604   0.474   1.777   8.815  1.1902  1.5384 -0.1923
  104OSM   H16T10605   0.501   1.927   8.916  1.0683 -0.6962 -2.2672
  104OSM   C17S10606   0.297   1.897   8.833 -0.5491  0.2235  0.0685
  104OSM   H17S10607   0.259   1.975   8.903  1.2707  0.4933  0.8148
  104OSM   H17T10608   0.229   1.809   8.838  1.7399 -1.7195 -0.9277
  104OSM   C18S10609   0.321   1.963   8.697 -0.3721 -0.0548  0.1744
  104OSM   H18S10610   0.350   1.886   8.622  0.0580 -0.7856  1.0599
  104OSM   H18T10611   0.407   2.033   8.704 -0.2459 -0.3073  1.4003
  104OSM   H18U10612   0.234   2.028   8.676 -0.6204 -0.1318  0.9284
  104OSM    C1F10613   0.691   2.047  10.496  0.6039 -0.4457 -0.0042
  104OSM     OF10614   0.809   2.016  10.511  0.5757  0.2108  0.0971
  104OSM    C2F10615   0.646   2.193  10.508  0.1488 -0.5526 -0.2635
  104OSM    H2F10616   0.692   2.237  10.599 -1.7738 -0.0190  0.4856
  104OSM    H2G10617   0.536   2.208  10.511  0.3313  2.2268 -2.6436
  104OSM    C3F10618   0.695   2.270  10.384 -0.0595 -0.3099  0.0858
  104OSM    H3F10619   0.672   2.223  10.287 -2.3891 -1.1174  0.9595
  104OSM    H3G10620   0.803   2.295  10.383 -0.5029  2.2394  2.4551
  104OSM    C4F10621   0.626   2.407  10.363  0.5836  0.3724  0.4254
  104OSM    H4F10622   0.580   2.456  10.452 -2.5302  0.6538 -1.2031
  104OSM    H4G10623   0.535   2.402  10.299  0.2132 -1.1529  1.0317
  104OSM    C5F10624   0.726   2.511  10.300  0.0277  0.0202  0.1990
  104OSM    H5F10625   0.812   2.522  10.370  0.4946 -0.0826 -0.3542
  104OSM    H5G10626   0.678   2.610  10.289 -1.6702 -0.7101  0.6204
  104OSM    C6F10627   0.774   2.468  10.158 -0.7393 -0.0178 -0.1544
  104OSM    H6F10628   0.687   2.426  10.104 -1.9717  0.2841  1.5253
  104OSM    H6G10629   0.839   2.378  10.170 -0.5031  0.0738 -0.7191
  104OSM    C7F10630   0.847   2.575  10.066 -0.1121 -0.0135  0.3334
  104OSM    H7F10631   0.952   2.588  10.098  0.8612 -0.8519 -2.2396
  104OSM    H7G10632   0.794   2.671  10.084 -0.5135 -0.1659 -0.0171
  104OSM    C8F10633   0.855   2.524   9.916  0.4036  0.4178 -0.2753
  104OSM    H8F10634   0.900   2.424   9.931 -2.4625 -0.8750  0.1709
  104OSM    H8G10635   0.927   2.582   9.853  0.4628 -3.0327 -3.7192
  104OSM    C9F10636   0.732   2.504   9.831 -0.0087 -0.1906 -0.4078
  104OSM    H9F10637   0.674   2.594   9.805 -0.6736 -0.9977 -1.8481
  104OSM   C10F10638   0.692   2.389   9.777 -0.1545  0.4590 -0.5238
  104OSM   H10F10639   0.610   2.389   9.704 -1.8985 -1.0422  1.3286
  104OSM   C11F10640   0.763   2.255   9.789 -0.1837 -0.3891 -0.2335
  104OSM   H11F10641   0.716   2.198   9.871 -0.3895 -2.2505 -1.5893
  104OSM   H11G10642   0.872   2.272   9.798 -0.4020  1.1577 -0.1285
  104OSM   C12F10643   0.750   2.183   9.654  0.4480 -0.3266 -0.0208
  104OSM   H12F10644   0.642   2.184   9.627 -0.0053  1.5543  1.6014
  104OSM   H12G10645   0.778   2.077   9.671 -0.6566 -1.5969 -4.6888
  104OSM   C13F10646   0.831   2.254   9.539 -0.1253 -0.0685 -0.3760
  104OSM   H13F10647   0.936   2.273   9.569 -0.5087  0.5223  0.6095
  104OSM   H13G10648   0.776   2.342   9.499  1.0255  0.9097  0.1512
  104OSM   C14F10649   0.839   2.149   9.422 -0.5973 -0.5964  0.1043
  104OSM   H14F10650   0.742   2.156   9.369 -0.2904 -0.6936 -0.4815
  104OSM   H14G10651   0.834   2.045   9.461 -1.2562 -1.0188 -1.0684
  104OSM   C15F10652   0.935   2.183   9.303 -0.1206  0.5206 -0.1555
  104OSM   H15F10653   1.035   2.197   9.349 -0.4053 -1.7271  1.3108
  104OSM   H15G10654   0.909   2.284   9.265  1.2811  1.4206  1.1505
  104OSM   C16F10655   0.949   2.064   9.208  0.2673 -0.2342  0.0540
  104OSM   H16F10656   0.855   2.035   9.156 -0.0657 -0.6079  0.8489
  104OSM   H16G10657   0.978   1.970   9.259 -2.2039 -1.0287  0.1305
  104OSM   C17F10658   1.042   2.085   9.089 -0.2095 -0.4682 -0.2082
  104OSM   H17F10659   0.998   2.173   9.036 -0.9533 -0.5571  0.2499
  104OSM   H17G10660   1.046   2.011   9.007  3.6369 -1.2059  0.4854
  104OSM   C18F10661   1.191   2.108   9.121 -0.0764 -0.5042 -0.1008
  104OSM   H18F10662   1.209   2.166   9.214  1.0268 -0.8104 -0.1158
  104OSM   H18G10663   1.248   2.165   9.046 -0.6465 -0.1253 -0.2555
  104OSM   H18H10664   1.234   2.007   9.140  0.8216 -0.5487 -2.1993
  105OSM      N10665   0.644   0.789  11.076 -0.2207 -0.1478 -0.4803
  105OSM    C1510666   0.583   0.663  11.034  0.0621  0.1372 -0.9067
  105OSM   H15A10667   0.630   0.579  11.083 -0.7984  0.1177 -0.0649
  105OSM   H15B10668   0.590   0.629  10.932 -0.1741  1.0410 -1.2312
  105OSM   H15C10669   0.478   0.656  11.061  0.1944 -2.0346 -0.8155
  105OSM    C1410670   0.568   0.902  11.018  0.0211 -0.1192  0.0349
  105OSM   H14A10671   0.484   0.942  11.072  0.8803  2.6781 -0.4857
  105OSM   H14B10672   0.533   0.880  10.918 -1.8108  2.3395  0.0292
  105OSM   H14C10673   0.630   0.989  11.004  0.9250 -0.9692 -1.5978
  105OSM    C1310674   0.621   0.801  11.224  0.2168 -0.3048 -0.1203
  105OSM   H13A10675   0.662   0.721  11.283  0.5923  0.1972  0.3113
  105OSM   H13B10676   0.513   0.809  11.235 -0.1280 -2.2432 -1.6403
  105OSM   H13C10677   0.669   0.888  11.267  0.9451 -0.6910 -0.1531
  105OSM    C1210678   0.785   0.797  11.054  0.0818 -0.1779  0.9090
  105OSM   H12A10679   0.840   0.717  11.101 -1.7312 -1.6017  0.7036
  105OSM   H12B10680   0.831   0.887  11.093 -1.8646  1.5535 -0.5604
  105OSM    C1110681   0.830   0.799  10.901 -0.4948  0.1725 -0.5169
  105OSM   H11A10682   0.768   0.877  10.851 -1.7704 -0.6639 -0.2944
  105OSM   H11B10683   0.807   0.705  10.846  1.2586  0.1406 -1.2676
  105OSM      P10684   1.035   0.927  10.799  0.2175 -0.1167  0.4785
  105OSM    O1310685   0.944   1.039  10.782  0.1596 -0.2961 -0.4331
  105OSM    O1410686   1.164   0.966  10.861  0.8622  0.1859 -0.3034
  105OSM    O1110687   1.062   0.848  10.666 -0.3836 -0.0430  0.3510
  105OSM    O1210688   0.973   0.823  10.890 -0.1430  0.1248  0.3301
  105OSM    C1S10689   0.979   0.771  10.580  0.2160 -0.1626 -0.2875
  105OSM    H1S10690   0.887   0.742  10.635  1.4152 -3.0751  0.3538
  105OSM    H1T10691   1.029   0.674  10.560  0.2853 -0.0743 -0.5579
  105OSM     NF10692   0.859   0.753  10.362  0.5117  0.4473 -0.1657
  105OSM    HNF10693   0.906   0.707  10.287 -0.4298  1.4964 -1.4410
  105OSM    C2S10694   0.929   0.843  10.448  0.0204  0.3760 -0.1279
  105OSM    H2S10695   0.864   0.929  10.475  1.0700  1.2538 -0.3005
  105OSM    C3S10696   1.056   0.910  10.381  0.3218 -0.1766 -0.3787
  105OSM    H3S10697   1.134   0.831  10.367  0.9427  0.2786  0.3790
  105OSM     O310698   1.104   1.016  10.457  0.2053 -0.0920  0.4000
  105OSM    HO310699   1.067   0.991  10.542 -0.7879  1.2348  0.3911
  105OSM    C4S10700   1.023   0.971  10.250  0.6883  0.1665 -0.9369
  105OSM    H4S10701   0.964   1.064  10.249 -0.2970 -0.3992  0.9160
  105OSM    C5S10702   1.072   0.926  10.135 -0.1568  0.4935  0.1506
  105OSM    H5S10703   1.136   0.837  10.138 -1.1781 -0.2352  1.2796
  105OSM    C6S10704   1.040   0.974   9.992 -0.8801  0.3861 -0.0925
  105OSM    H6S10705   1.130   1.031   9.961  0.3324 -0.6939  1.2862
  105OSM    H6T10706   0.948   1.036   9.995 -2.0775 -1.3357 -0.1140
  105OSM    C7S10707   0.997   0.855   9.892 -0.3109 -0.1545 -0.2620
  105OSM    H7S10708   0.897   0.822   9.925  0.4392 -2.8653 -0.5019
  105OSM    H7T10709   1.061   0.765   9.901  0.4417  0.2668 -1.2087
  105OSM    C8S10710   1.000   0.902   9.749 -0.6852 -0.3471 -0.3005
  105OSM    H8S10711   1.106   0.908   9.716 -0.8745  1.3288 -0.6788
  105OSM    H8T10712   0.944   0.998   9.749 -1.1723 -0.6260 -0.4294
  105OSM    C9S10713   0.912   0.812   9.657 -0.3310 -0.2571  0.2249
  105OSM    H9S10714   0.803   0.817   9.676 -0.1256  0.8390  1.2044
  105OSM    H9T10715   0.953   0.712   9.682  1.3890  0.7030  1.4413
  105OSM   C10S10716   0.953   0.845   9.509 -0.4391  0.7605 -0.0556
  105OSM   H10S10717   1.064   0.841   9.509 -0.3832 -1.3720  3.4574
  105OSM   H10T10718   0.917   0.946   9.478 -1.0521  0.0789 -1.6961
  105OSM   C11S10719   0.892   0.740   9.416 -0.0165  0.2608 -0.1520
  105OSM   H11S10720   0.791   0.722   9.457  0.9829 -0.4805  2.0972
  105OSM   H11T10721   0.940   0.643   9.436 -2.4589 -0.7974  1.0150
  105OSM   C12S10722   0.886   0.777   9.271 -0.4604 -0.1838  0.4666
  105OSM   H12S10723   0.843   0.879   9.261 -1.5698 -0.7357 -0.5488
  105OSM   H12T10724   0.820   0.706   9.217  0.1789  1.0003 -2.0047
  105OSM   C13S10725   1.022   0.778   9.196 -0.0498  0.3244 -0.0871
  105OSM   H13S10726   1.083   0.690   9.227 -2.0556 -0.8731  0.6320
  105OSM   H13T10727   1.076   0.869   9.229 -1.0970  1.1509 -0.5657
  105OSM   C14S10728   0.999   0.778   9.041  0.4154 -0.5629  0.4368
  105OSM   H14S10729   0.949   0.689   8.998  1.3450 -0.3333 -1.1940
  105OSM   H14T10730   1.101   0.772   8.997 -0.3086 -1.2841 -1.1991
  105OSM   C15S10731   0.921   0.903   8.988  0.1989  0.2180  0.3468
  105OSM   H15S10732   0.988   0.990   8.979  0.4176  0.0180  0.0187
  105OSM   H15T10733   0.835   0.937   9.050  0.0585 -1.8592  1.3907
  105OSM   C16S10734   0.869   0.883   8.845 -0.0199  0.3028 -0.1792
  105OSM   H16S10735   0.956   0.840   8.791 -0.1887 -1.0146  0.5639
  105OSM   H16T10736   0.851   0.979   8.790 -1.5770 -0.6038 -1.3460
  105OSM   C17S10737   0.744   0.799   8.834  0.2677  0.1888  1.0256
  105OSM   H17S10738   0.650   0.852   8.860  0.0442  0.1098  0.3830
  105OSM   H17T10739   0.758   0.721   8.912  0.6752 -1.2659 -0.4467
  105OSM   C18S10740   0.739   0.723   8.704 -0.4127 -0.0505  0.3692
  105OSM   H18S10741   0.837   0.673   8.690 -0.3060 -0.3023  1.8701
  105OSM   H18T10742   0.715   0.785   8.615  0.9330 -0.7518 -0.5222
  105OSM   H18U10743   0.665   0.641   8.717 -1.6239  1.0413  0.6194
  105OSM    C1F10744   0.736   0.707  10.378  0.2362  0.1506 -0.8376
  105OSM     OF10745   0.673   0.730  10.483  0.3586  0.3914 -0.6990
  105OSM    C2F10746   0.669   0.637  10.261  0.1145  0.0683  0.4277
  105OSM    H2F10747   0.582   0.692  10.219  1.7868  0.2262 -3.1818
  105OSM    H2G10748   0.629   0.540  10.298 -1.3500  1.2989  2.3203
  105OSM    C3F10749   0.760   0.623  10.137 -0.7961 -0.0228  0.6485
  105OSM    H3F10750   0.851   0.564  10.161 -0.7460  0.5553  1.9448
  105OSM    H3G10751   0.805   0.716  10.096  0.8827 -1.5337 -1.1787
  105OSM    C4F10752   0.693   0.562  10.015 -0.9370  0.5782 -0.0332
  105OSM    H4F10753   0.633   0.479  10.058  0.3304  0.9283  2.6161
  105OSM    H4G10754   0.770   0.521   9.947 -1.2025 -0.0387  0.0347
  105OSM    C5F10755   0.613   0.667   9.939 -0.3840 -0.3360 -0.0348
  105OSM    H5F10756   0.683   0.738   9.891 -2.3481  1.1137 -0.9052
  105OSM    H5G10757   0.547   0.722  10.009 -1.2348  1.8091 -2.3453
  105OSM    C6F10758   0.525   0.598   9.834  0.2117  0.5380 -0.6102
  105OSM    H6F10759   0.426   0.580   9.881 -0.2138  0.5626 -1.4891
  105OSM    H6G10760   0.575   0.505   9.800 -0.1921  0.0089  0.2042
  105OSM    C7F10761   0.487   0.686   9.717  0.3254  0.0687  0.1973
  105OSM    H7F10762   0.563   0.762   9.690 -1.4897  1.2592 -1.9055
  105OSM    H7G10763   0.406   0.752   9.755  1.4972  1.4497  0.3571
  105OSM    C8F10764   0.420   0.617   9.597 -0.2107  0.0046 -0.2666
  105OSM    H8F10765   0.355   0.675   9.527 -0.0286 -0.5672 -0.9183
  105OSM    H8G10766   0.357   0.539   9.644 -0.8665 -0.2165 -1.4718
  105OSM    C9F10767   0.517   0.561   9.500 -0.0785 -0.1938 -0.3747
  105OSM    H9F10768   0.583   0.485   9.544  0.2318 -0.6066 -1.5279
  105OSM   C10F10769   0.557   0.603   9.375 -0.2694 -0.0565 -0.8122
  105OSM   H10F10770   0.632   0.559   9.308  0.5929  1.4947 -0.9091
  105OSM   C11F10771   0.500   0.725   9.311 -0.0955  0.0818  0.3013
  105OSM   H11F10772   0.586   0.792   9.291  0.6983 -1.2439 -0.9295
  105OSM   H11G10773   0.431   0.777   9.380 -0.9560  0.2156 -0.6301
  105OSM   C12F10774   0.427   0.682   9.182 -0.4106 -0.6482 -0.3525
  105OSM   H12F10775   0.375   0.774   9.147 -2.2064 -1.1786  0.7736
  105OSM   H12G10776   0.344   0.608   9.195 -0.3949 -0.6039  0.0061
  105OSM   C13F10777   0.516   0.634   9.072  0.1730  0.2244  0.0141
  105OSM   H13F10778   0.556   0.535   9.104  1.7850  0.9611  0.3477
  105OSM   H13G10779   0.602   0.703   9.056 -0.9444  1.2338 -1.9658
  105OSM   C14F10780   0.449   0.608   8.937  0.6170  0.3338 -0.1276
  105OSM   H14F10781   0.370   0.534   8.960 -2.7719  3.1571 -1.6624
  105OSM   H14G10782   0.509   0.550   8.865 -0.5154 -1.2450  0.1501
  105OSM   C15F10783   0.378   0.722   8.872  0.7217  0.0984  0.5484
  105OSM   H15F10784   0.443   0.811   8.856  0.3447  0.0309 -1.6563
  105OSM   H15G10785   0.289   0.753   8.931 -0.3673 -0.9961 -0.4573
  105OSM   C16F10786   0.323   0.685   8.734 -0.3329  0.4670  0.4645
  105OSM   H16F10787   0.254   0.599   8.747  0.5620 -0.4385 -0.5324
  105OSM   H16G10788   0.409   0.649   8.674 -0.2326  0.2820  0.7173
  105OSM   C17F10789   0.252   0.795   8.653 -0.0700 -0.7249  0.0792
  105OSM   H17F10790   0.147   0.779   8.688 -1.4114 -1.2744 -3.7920
  105OSM   H17G10791   0.250   0.773   8.545  0.9630  1.5638 -0.4571
  105OSM   C18F10792   0.289   0.940   8.672 -0.5413 -0.3389  0.8030
  105OSM   H18F10793   0.224   0.989   8.747 -1.4201  1.4010 -1.0024
  105OSM   H18G10794   0.268   1.001   8.582  0.1218 -0.8421  0.2940
  105OSM   H18H10795   0.400   0.951   8.679 -0.2197  0.3754 -3.0855
  106OSM      N10796   1.006   5.545  11.060  0.7000  0.5071  0.0664
  106OSM    C1510797   1.063   5.483  11.178  0.3444 -0.0352  0.7678
  106OSM   H15A10798   1.125   5.396  11.161  1.1401  0.4117  1.2669
  106OSM   H15B10799   0.994   5.449  11.254 -1.2774  0.6324 -0.3564
  106OSM   H15C10800   1.149   5.538  11.214 -0.3084 -0.3566  2.9727
  106OSM    C1410801   0.893   5.459  11.000 -0.2273  0.0661 -0.0091
  106OSM   H14A10802   0.826   5.428  11.079  1.8838  0.5734  2.0998
  106OSM   H14B10803   0.935   5.372  10.952  0.0372  1.1667 -1.8700
  106OSM   H14C10804   0.846   5.521  10.924 -1.4533 -0.2943  0.4340
  106OSM    C1310805   0.937   5.675  11.100 -0.0885  0.8987  0.4040
  106OSM   H13A10806   0.855   5.656  11.167  0.9147 -0.8741  1.1989
  106OSM   H13B10807   0.906   5.729  11.011  1.4342  0.7888 -0.2195
  106OSM   H13C10808   1.012   5.738  11.144 -0.2899  2.7408 -1.6713
  106OSM    C1210809   1.118   5.566  10.959  0.1951 -0.7192  0.0971
  106OSM   H12A10810   1.180   5.645  10.998 -0.7524  0.7349 -1.2075
  106OSM   H12B10811   1.072   5.604  10.868  1.1604 -2.1335 -1.0208
  106OSM    C1110812   1.197   5.440  10.919  0.0568 -0.7915  0.0173
  106OSM   H11A10813   1.251   5.404  11.009  1.8685  1.5633 -0.0430
  106OSM   H11B10814   1.283   5.472  10.856 -0.2117 -0.3363 -0.1218
  106OSM      P10815   1.089   5.337  10.705 -0.5428 -0.3905  0.2643
  106OSM    O1310816   1.036   5.208  10.665 -0.4560 -0.2169 -0.2902
  106OSM    O1410817   1.012   5.462  10.672  0.3663  0.0255  0.0107
  106OSM    O1110818   1.241   5.350  10.648 -0.3896 -0.8583  0.0378
  106OSM    O1210819   1.117   5.336  10.863  0.3622  0.8533 -0.2170
  106OSM    C1S10820   1.263   5.390  10.517  0.7674 -0.0227  0.8176
  106OSM    H1S10821   1.262   5.500  10.504  1.8890  0.0225  1.0229
  106OSM    H1T10822   1.180   5.356  10.452  1.5577 -0.4464  0.0193
  106OSM     NF10823   1.370   5.314  10.306 -0.0522  0.0739  0.4257
  106OSM    HNF10824   1.386   5.229  10.257  0.2882  0.3858 -0.0183
  106OSM    C2S10825   1.382   5.316  10.451 -0.0348 -1.0598  0.4291
  106OSM    H2S10826   1.478   5.367  10.477 -0.5665 -0.3485  1.0575
  106OSM    C3S10827   1.407   5.180  10.505 -0.4096  0.8950 -1.2088
  106OSM    H3S10828   1.322   5.109  10.490  1.3989 -2.1140  1.5861
  106OSM     O310829   1.440   5.162  10.645  0.5123  0.1497 -0.1070
  106OSM    HO310830   1.419   5.248  10.682  0.1015  0.2323 -0.5151
  106OSM    C4S10831   1.530   5.126  10.428 -0.0236  0.7198  0.3027
  106OSM    H4S10832   1.500   5.049  10.355 -0.9491 -1.1176  2.5143
  106OSM    C5S10833   1.666   5.146  10.459  0.0119 -0.4873  0.6818
  106OSM    H5S10834   1.694   5.201  10.550  1.4739  1.1674 -0.6973
  106OSM    C6S10835   1.779   5.085  10.376 -0.5941  0.4658  0.2879
  106OSM    H6S10836   1.755   5.019  10.290  0.5877 -0.2248  0.4637
  106OSM    H6T10837   1.846   5.028  10.443  2.1443  0.3796 -2.2909
  106OSM    C7S10838   1.869   5.194  10.316  0.4877 -0.2095 -0.1102
  106OSM    H7S10839   1.959   5.153  10.266  2.1012  2.0465  0.8294
  106OSM    H7T10840   1.898   5.259  10.401  1.2097 -2.4777  1.4878
  106OSM    C8S10841   1.801   5.281  10.213 -0.4170  0.4246 -0.4103
  106OSM    H8S10842   1.879   5.357  10.193  1.0953 -0.5779  1.3063
  106OSM    H8T10843   1.711   5.335  10.251 -0.1479 -0.1619  1.1482
  106OSM    C9S10844   1.755   5.206  10.087  0.5245  0.2079 -0.2888
  106OSM    H9S10845   1.661   5.154  10.114 -0.2917  0.8510 -1.7560
  106OSM    H9T10846   1.827   5.132  10.045  0.6952  0.1634  0.0777
  106OSM   C10S10847   1.725   5.301   9.971 -0.2605 -0.7981 -0.4801
  106OSM   H10S10848   1.813   5.368   9.961 -1.0512  0.4322  0.5959
  106OSM   H10T10849   1.637   5.365   9.993 -0.5969 -0.0171 -3.6067
  106OSM   C11S10850   1.692   5.232   9.835 -0.1438  0.0110  0.1832
  106OSM   H11S10851   1.600   5.171   9.847  0.8723 -1.6012 -0.0088
  106OSM   H11T10852   1.768   5.155   9.811  0.7683  0.6504  0.9418
  106OSM   C12S10853   1.664   5.321   9.715  0.1471 -0.0203 -0.2861
  106OSM   H12S10854   1.729   5.411   9.716  0.5207 -0.2864 -0.5965
  106OSM   H12T10855   1.558   5.354   9.715 -0.3556 -1.5002 -1.5709
  106OSM   C13S10856   1.692   5.252   9.588  0.2306 -0.3177  0.6059
  106OSM   H13S10857   1.650   5.149   9.588  0.9493 -0.6195  1.5281
  106OSM   H13T10858   1.803   5.254   9.581  0.2065  1.5856  0.2048
  106OSM   C14S10859   1.655   5.342   9.472  0.2887 -0.6523  0.5493
  106OSM   H14S10860   1.708   5.439   9.477 -1.1767  0.1711  0.6777
  106OSM   H14T10861   1.544   5.343   9.466  0.2654 -0.1684  1.0353
  106OSM   C15S10862   1.691   5.275   9.340 -0.0791 -0.3557 -0.4962
  106OSM   H15S10863   1.645   5.174   9.345  0.4163 -0.5224  0.9039
  106OSM   H15T10864   1.799   5.250   9.337 -0.2962 -1.4910  0.5348
  106OSM   C16S10865   1.641   5.344   9.214  0.0456  0.2908 -0.2106
  106OSM   H16S10866   1.691   5.442   9.201  0.0039  0.1448 -1.5380
  106OSM   H16T10867   1.533   5.368   9.221 -0.0519 -0.0084 -0.6604
  106OSM   C17S10868   1.679   5.266   9.090 -0.0142  0.5482 -0.0154
  106OSM   H17S10869   1.642   5.161   9.097  1.7619 -0.5216 -3.9373
  106OSM   H17T10870   1.789   5.253   9.088 -0.1234 -0.3526 -0.8932
  106OSM   C18S10871   1.650   5.332   8.959  0.0563  0.1090  0.2700
  106OSM   H18S10872   1.543   5.334   8.929 -0.7155  1.6074  2.8444
  106OSM   H18T10873   1.718   5.297   8.879 -1.8788 -0.4247 -1.2319
  106OSM   H18U10874   1.683   5.438   8.952 -0.0759  0.0597 -1.5872
  106OSM    C1F10875   1.355   5.426  10.232  0.2672  0.2639  0.2592
  106OSM     OF10876   1.348   5.540  10.277  0.0478  0.1912 -0.2307
  106OSM    C2F10877   1.339   5.406  10.083  0.0787 -0.6911 -0.0094
  106OSM    H2F10878   1.265   5.324  10.074 -0.5094 -0.2489  0.6800
  106OSM    H2G10879   1.435   5.383  10.032 -0.8132 -0.8495 -1.6738
  106OSM    C3F10880   1.279   5.537  10.019 -0.1335 -0.3165 -0.3068
  106OSM    H3F10881   1.343   5.624  10.044 -0.0144 -0.6293  0.5233
  106OSM    H3G10882   1.179   5.563  10.060 -1.5863 -3.2620 -1.6690
  106OSM    C4F10883   1.236   5.510   9.873  0.3761 -0.2457 -0.7112
  106OSM    H4F10884   1.131   5.476   9.869  0.2724  0.1204 -1.4253
  106OSM    H4G10885   1.312   5.442   9.828  0.7944  0.2834 -0.8143
  106OSM    C5F10886   1.233   5.635   9.781  0.0808  0.4725  0.1383
  106OSM    H5F10887   1.154   5.708   9.809  1.0503  1.1201  1.2646
  106OSM    H5G10888   1.204   5.603   9.679 -0.2309  1.4260 -0.0784
  106OSM    C6F10889   1.375   5.692   9.769 -0.4754 -0.6309  0.2038
  106OSM    H6F10890   1.437   5.603   9.746 -1.1729 -1.3014  0.8729
  106OSM    H6G10891   1.415   5.730   9.866 -2.6883 -2.2879  1.8742
  106OSM    C7F10892   1.391   5.803   9.663  0.0093 -0.1858  0.2751
  106OSM    H7F10893   1.494   5.846   9.665 -0.6285  1.4156 -0.5003
  106OSM    H7G10894   1.328   5.888   9.694  0.5696  0.7725 -1.1179
  106OSM    C8F10895   1.364   5.770   9.513 -0.5560  0.4071 -0.1939
  106OSM    H8F10896   1.352   5.863   9.453 -0.0538 -0.8568 -2.3374
  106OSM    H8G10897   1.258   5.735   9.514 -0.6917  0.6981 -1.6036
  106OSM    C9F10898   1.446   5.660   9.472 -0.5071 -0.5049  0.3711
  106OSM    H9F10899   1.442   5.570   9.536 -0.9346 -0.9437 -0.2605
  106OSM   C10F10900   1.516   5.653   9.359 -0.8399 -0.0033 -0.0794
  106OSM   H10F10901   1.587   5.570   9.341  3.2962  3.1863 -0.0078
  106OSM   C11F10902   1.524   5.764   9.258  0.8751 -0.3173 -0.2204
  106OSM   H11F10903   1.625   5.809   9.251  0.4028  0.5633 -1.9802
  106OSM   H11G10904   1.450   5.845   9.275 -0.5232 -1.3696 -1.0535
  106OSM   C12F10905   1.506   5.720   9.115  0.0365 -0.1674  0.0582
  106OSM   H12F10906   1.410   5.665   9.107  0.7694 -2.0591  2.7576
  106OSM   H12G10907   1.592   5.660   9.079  0.4273  0.2663  0.2600
  106OSM   C13F10908   1.493   5.839   9.019 -0.1713 -0.9076  0.1444
  106OSM   H13F10909   1.584   5.899   9.041 -0.6852 -0.3634  0.8405
  106OSM   H13G10910   1.411   5.906   9.051  1.1642  0.6800  0.3980
  106OSM   C14F10911   1.492   5.813   8.869 -0.2251  0.5941 -0.4324
  106OSM   H14F10912   1.410   5.739   8.853  0.3674  0.0626 -1.0490
  106OSM   H14G10913   1.585   5.758   8.845  1.4461  2.6193  1.1022
  106OSM   C15F10914   1.475   5.936   8.776  0.1599 -0.6603 -0.3689
  106OSM   H15F10915   1.529   6.018   8.828  1.0999 -0.0002 -2.2858
  106OSM   H15G10916   1.371   5.976   8.776 -0.0223 -1.1170  0.7021
  106OSM   C16F10917   1.548   5.919   8.642 -0.0202  0.4141  0.2560
  106OSM   H16F10918   1.521   5.826   8.587 -0.4110  0.1006  0.9749
  106OSM   H16G10919   1.655   5.904   8.667 -0.4416 -1.0793  1.2715
  106OSM   C17F10920   1.529   6.040   8.543 -0.8591 -0.0430  0.2549
  106OSM   H17F10921   1.555   6.130   8.604  0.5804  0.6377 -1.2987
  106OSM   H17G10922   1.427   6.067   8.508  0.1471  0.9801 -2.0478
  106OSM   C18F10923   1.618   6.020   8.420 -0.0168 -0.1743 -0.2662
  106OSM   H18F10924   1.602   6.105   8.350  0.2091 -0.3558 -0.5398
  106OSM   H18G10925   1.601   5.926   8.363 -1.8289  0.9159 -1.6433
  106OSM   H18H10926   1.727   6.032   8.441 -0.1253 -1.3658  1.1318
  107OSM      N10927   3.131   2.917  11.029  0.0616  0.3383  0.4205
  107OSM    C1510928   3.191   2.792  11.088  0.5128 -0.0237  0.3011
  107OSM   H15A10929   3.268   2.757  11.020  1.0451  1.4323  0.1167
  107OSM   H15B10930   3.114   2.716  11.094 -1.9704  2.3370 -0.0312
  107OSM   H15C10931   3.229   2.809  11.188 -0.8162 -3.2587  1.5300
  107OSM    C1410932   3.034   2.970  11.123  0.1240  0.4895 -0.7786
  107OSM   H14A10933   3.085   3.009  11.210  0.6483  0.0480 -0.8762
  107OSM   H14B10934   2.964   2.890  11.142  0.7713  0.5131  2.4248
  107OSM   H14C10935   2.984   3.059  11.089 -3.1752 -1.3188 -1.1339
  107OSM    C1310936   3.240   3.018  11.006  0.5833  0.2507  0.7237
  107OSM   H13A10937   3.316   2.984  10.936 -2.2177 -2.2634 -1.4097
  107OSM   H13B10938   3.290   3.041  11.099 -0.1234  0.9900  0.9287
  107OSM   H13C10939   3.191   3.108  10.972 -0.3556 -0.4161  0.2656
  107OSM    C1210940   3.063   2.879  10.896  0.1848 -0.3237  0.2740
  107OSM   H12A10941   3.140   2.844  10.829  1.7370  1.3240  1.1215
  107OSM   H12B10942   3.031   2.975  10.858 -0.7552 -1.4112 -1.8325
  107OSM    C1110943   2.946   2.779  10.895 -0.1785  0.1934 -0.7244
  107OSM   H11A10944   2.906   2.757  10.793  0.2289  0.0511 -0.8532
  107OSM   H11B10945   2.862   2.833  10.944 -0.7344  1.0983 -2.5678
  107OSM      P10946   2.982   2.517  10.905 -0.2870  0.1457 -0.5624
  107OSM    O1310947   3.120   2.480  10.884 -0.2319  0.0964 -0.0635
  107OSM    O1410948   2.908   2.416  10.982  0.2341 -0.4653  1.2435
  107OSM    O1110949   2.923   2.534  10.764 -0.1240 -0.6311 -0.9894
  107OSM    O1210950   2.972   2.658  10.974  0.1168 -0.5069  0.5026
  107OSM    C1S10951   2.885   2.408  10.702  0.2352  0.0184 -0.6722
  107OSM    H1S10952   2.791   2.366  10.745  0.6406 -0.1231  0.0777
  107OSM    H1T10953   2.973   2.341  10.705  0.8482  0.8480  1.9185
  107OSM     NF10954   2.859   2.307  10.494  0.5761 -0.3066 -0.1072
  107OSM    HNF10955   2.939   2.294  10.436  2.0669 -1.4017  2.0212
  107OSM    C2S10956   2.867   2.439  10.555 -0.3780 -0.6475  0.4488
  107OSM    H2S10957   2.772   2.496  10.543  0.7375  1.1672 -0.2537
  107OSM    C3S10958   2.990   2.526  10.497 -0.9049  0.0617 -0.0149
  107OSM    H3S10959   3.089   2.483  10.522 -0.2608  1.4674 -0.0143
  107OSM     O310960   2.991   2.660  10.553 -0.8385 -0.0553  0.1388
  107OSM    HO310961   2.970   2.629  10.641 -1.2562 -0.5920 -0.1472
  107OSM    C4S10962   2.983   2.530  10.340  0.4645 -0.1915 -0.1653
  107OSM    H4S10963   3.034   2.449  10.285  1.6128  0.6619 -0.3823
  107OSM    C5S10964   2.916   2.613  10.260 -0.7365 -0.4099 -0.5710
  107OSM    H5S10965   2.861   2.693  10.311 -0.8388  0.2798 -1.7060
  107OSM    C6S10966   2.903   2.612  10.106 -0.0836 -0.4630  0.2182
  107OSM    H6S10967   2.982   2.676  10.060  0.7604 -0.8279  1.1221
  107OSM    H6T10968   2.808   2.666  10.084 -1.0259 -1.4509  1.6464
  107OSM    C7S10969   2.914   2.479  10.033 -0.9314  0.0621  0.2742
  107OSM    H7S10970   2.828   2.424  10.077 -2.5358  0.0373 -2.6064
  107OSM    H7T10971   3.007   2.422  10.052 -0.3437  0.3406 -1.5577
  107OSM    C8S10972   2.895   2.496   9.877  0.1124  0.2710 -0.2401
  107OSM    H8S10973   2.814   2.570   9.867 -0.4330 -0.5016 -2.1053
  107OSM    H8T10974   2.874   2.403   9.820  0.6467  0.6182 -1.0200
  107OSM    C9S10975   3.022   2.544   9.807 -0.9666 -0.2064 -0.4427
  107OSM    H9S10976   3.101   2.468   9.820 -0.9978 -0.3517 -1.0761
  107OSM    H9T10977   3.064   2.636   9.854  0.6582 -0.7246 -0.8425
  107OSM   C10S10978   3.008   2.579   9.657 -0.0890  0.0188  0.4793
  107OSM   H10S10979   2.929   2.657   9.659  0.0247  0.1315  2.0741
  107OSM   H10T10980   2.977   2.496   9.590  1.9953  0.2233 -0.8094
  107OSM   C11S10981   3.143   2.643   9.601  0.4429  0.2813  0.2371
  107OSM   H11S10982   3.173   2.722   9.673 -0.0335  1.5087 -0.8754
  107OSM   H11T10983   3.107   2.693   9.509 -1.0177 -1.4490 -0.1941
  107OSM   C12S10984   3.252   2.536   9.552 -0.1578  0.7823 -0.0083
  107OSM   H12S10985   3.193   2.444   9.535 -0.6144  0.9473  0.6219
  107OSM   H12T10986   3.322   2.526   9.638  1.6325  2.4979 -1.1699
  107OSM   C13S10987   3.331   2.577   9.424 -0.2890  0.3183  0.3710
  107OSM   H13S10988   3.422   2.515   9.406  0.8195  1.7308  0.8935
  107OSM   H13T10989   3.376   2.678   9.432  1.1958 -0.2572 -0.3322
  107OSM   C14S10990   3.250   2.581   9.293 -0.1294  0.1547  0.0884
  107OSM   H14S10991   3.152   2.632   9.307 -0.1607  0.6901 -1.8085
  107OSM   H14T10992   3.215   2.482   9.256 -0.3103 -0.0400  0.7693
  107OSM   C15S10993   3.317   2.672   9.181  0.4908 -0.2360 -0.3750
  107OSM   H15S10994   3.426   2.659   9.167  0.7364  2.5680 -1.8161
  107OSM   H15T10995   3.308   2.782   9.195 -1.0278 -0.4980  0.9573
  107OSM   C16S10996   3.249   2.651   9.046  0.8858  0.6025  0.4447
  107OSM   H16S10997   3.141   2.671   9.064  0.7634 -0.3833  0.9014
  107OSM   H16T10998   3.251   2.543   9.022  0.4126  0.3271  1.5626
  107OSM   C17S10999   3.284   2.748   8.936 -0.1316  0.1905 -0.0658
  107OSM   H17S11000   3.388   2.738   8.898 -0.6730  0.5754 -1.7554
  107OSM   H17T11001   3.285   2.852   8.976 -0.2543 -0.2398  1.0744
  107OSM   C18S11002   3.191   2.750   8.810  0.5465 -1.2393 -0.4629
  107OSM   H18S11003   3.222   2.834   8.744 -0.6534  0.3725  0.9308
  107OSM   H18T11004   3.088   2.770   8.846  0.6641 -0.7270 -0.3909
  107OSM   H18U11005   3.184   2.652   8.759 -0.9153 -0.5641 -1.6434
  107OSM    C1F11006   2.770   2.206  10.513 -0.1051 -0.6448  0.7149
  107OSM     OF11007   2.683   2.195  10.597  0.5751 -0.4221  0.4820
  107OSM    C2F11008   2.790   2.092  10.417 -0.2022  0.1586  0.0237
  107OSM    H2F11009   2.896   2.060  10.421 -0.4401 -0.5885  0.5105
  107OSM    H2G11010   2.762   2.127  10.315  0.9380  0.0206 -0.3487
  107OSM    C3F11011   2.705   1.966  10.443  0.9320  0.1446  0.1663
  107OSM    H3F11012   2.598   1.994  10.457  0.5214 -0.3149 -1.7838
  107OSM    H3G11013   2.737   1.925  10.541 -3.4979 -2.2143  0.8637
  107OSM    C4F11014   2.714   1.848  10.335 -0.1586 -0.6223 -0.5844
  107OSM    H4F11015   2.669   1.761  10.388  0.5009 -0.7486 -0.2274
  107OSM    H4G11016   2.820   1.822  10.319  0.0850 -0.5364  0.7612
  107OSM    C5F11017   2.653   1.881  10.204 -0.3051  0.6230  0.2740
  107OSM    H5F11018   2.697   1.972  10.157 -1.1448  0.4039 -0.9746
  107OSM    H5G11019   2.543   1.893  10.220  0.1021  0.6510  4.0164
  107OSM    C6F11020   2.686   1.775  10.100  0.2207  0.7016  0.2375
  107OSM    H6F11021   2.796   1.769  10.087  0.3227 -2.1847  1.6904
  107OSM    H6G11022   2.632   1.802  10.007  0.6764 -0.0434 -0.2540
  107OSM    C7F11023   2.644   1.627  10.133 -0.1450  0.1455  0.3297
  107OSM    H7F11024   2.535   1.631  10.112 -0.0497  4.0533 -0.2270
  107OSM    H7G11025   2.660   1.606  10.241 -0.5466 -1.5677  0.0763
  107OSM    C8F11026   2.708   1.525  10.038  0.7583 -0.7499 -0.2348
  107OSM    H8F11027   2.671   1.557   9.938 -1.0250  0.8440  0.8566
  107OSM    H8G11028   2.667   1.423  10.052 -0.9040  0.0106  0.9269
  107OSM    C9F11029   2.860   1.521  10.043 -1.3678  0.3463 -0.2450
  107OSM    H9F11030   2.894   1.516  10.148 -2.0816  2.3775  0.1272
  107OSM   C10F11031   2.957   1.519   9.947  0.7223  0.3486 -0.2143
  107OSM   H10F11032   3.064   1.526   9.970  1.5190  1.7139 -3.6762
  107OSM   C11F11033   2.926   1.523   9.796 -0.1571  0.5976 -0.1447
  107OSM   H11F11034   2.822   1.489   9.777  0.0580  0.3351 -0.8737
  107OSM   H11G11035   2.985   1.439   9.754  0.4275  0.4807  0.8567
  107OSM   C12F11036   2.962   1.664   9.749 -0.3217 -0.1666  0.3995
  107OSM   H12F11037   3.071   1.659   9.733 -0.5614 -0.9472 -1.1773
  107OSM   H12G11038   2.948   1.751   9.817  0.3899 -0.1934  0.5811
  107OSM   C13F11039   2.882   1.710   9.628  0.7871 -0.3098  0.0314
  107OSM   H13F11040   2.898   1.817   9.602 -3.1415 -0.0520 -2.1258
  107OSM   H13G11041   2.778   1.718   9.665  1.5454  0.1966  2.1759
  107OSM   C14F11042   2.904   1.622   9.505  0.3125  0.3253  0.3628
  107OSM   H14F11043   2.837   1.534   9.508  2.8958 -1.8762 -1.6061
  107OSM   H14G11044   3.005   1.576   9.515 -1.4558 -3.5296  2.8971
  107OSM   C15F11045   2.874   1.697   9.372 -0.3137 -0.1263 -0.4415
  107OSM   H15F11046   2.952   1.767   9.334 -0.2847 -0.2153 -0.5448
  107OSM   H15G11047   2.787   1.759   9.404  0.7268  2.2027 -1.8801
  107OSM   C16F11048   2.837   1.602   9.259 -0.1548 -0.0787 -0.3464
  107OSM   H16F11049   2.765   1.524   9.293 -1.3156  0.8710 -0.5753
  107OSM   H16G11050   2.929   1.543   9.240 -0.9406 -1.3063 -0.4779
  107OSM   C17F11051   2.759   1.662   9.140  0.5072 -0.2530 -0.3306
  107OSM   H17F11052   2.657   1.698   9.168  0.9955  1.2440 -0.3461
  107OSM   H17G11053   2.750   1.583   9.063 -1.2711 -0.9731  0.5585
  107OSM   C18F11054   2.821   1.799   9.098  0.5745  0.1667 -0.6797
  107OSM   H18F11055   2.815   1.881   9.173  0.6152 -0.5411  0.1100
  107OSM   H18G11056   2.786   1.837   9.000  0.9493 -0.6414 -1.1290
  107OSM   H18H11057   2.930   1.785   9.087  0.8464  1.7595 -0.2785
  108OSM      N11058   5.651   0.422  10.747  0.3433  0.7023  0.4689
  108OSM    C1511059   5.674   0.410  10.597 -0.2635  0.6644 -0.0656
  108OSM   H15A11060   5.725   0.496  10.556 -1.0119  1.7215  1.1703
  108OSM   H15B11061   5.588   0.393  10.534  0.2517 -0.1165 -0.5803
  108OSM   H15C11062   5.732   0.321  10.578  0.1665  0.3118  2.5820
  108OSM    C1411063   5.586   0.548  10.776 -0.1474  0.0008  0.6681
  108OSM   H14A11064   5.653   0.630  10.755  0.5215 -0.5527  0.5747
  108OSM   H14B11065   5.567   0.559  10.882  1.6215  0.5023  0.9660
  108OSM   H14C11066   5.491   0.561  10.726  0.1475  1.0529  0.3585
  108OSM    C1311067   5.557   0.304  10.789 -0.2238  0.4213  0.2284
  108OSM   H13A11068   5.591   0.217  10.735 -0.4827 -1.0607  2.3356
  108OSM   H13B11069   5.458   0.309  10.747  0.6115  0.1357 -1.9000
  108OSM   H13C11070   5.563   0.274  10.893  2.4514 -2.3213 -0.5889
  108OSM    C1211071   5.783   0.405  10.816 -0.5660 -0.7215 -0.5380
  108OSM   H12A11072   5.767   0.406  10.922 -1.1644  3.5166 -0.4977
  108OSM   H12B11073   5.839   0.495  10.794 -2.5610  0.7471  0.0471
  108OSM    C1111074   5.873   0.285  10.782  0.3863  0.0565  0.3826
  108OSM   H11A11075   5.895   0.289  10.673 -2.1204  0.9677 -0.1712
  108OSM   H11B11076   5.820   0.191  10.807  0.0479  0.1902  0.1833
  108OSM      P11077   6.143   0.271  10.825 -0.0155  0.1205  0.2644
  108OSM    O1311078   6.215   0.392  10.869  0.2435 -0.3752  0.1416
  108OSM    O1411079   6.187   0.136  10.870 -0.2702  0.4255  0.1940
  108OSM    O1111080   6.144   0.265  10.664  0.1899  0.1606 -0.7056
  108OSM    O1211081   5.991   0.282  10.862  0.3938 -0.7726 -0.1753
  108OSM    C1S11082   6.133   0.394  10.586 -0.1637  0.3104 -0.3257
  108OSM    H1S11083   6.215   0.462  10.618 -0.3173  0.0651  0.6048
  108OSM    H1T11084   6.036   0.445  10.606 -0.9579 -0.6769 -1.4988
  108OSM     NF11085   6.144   0.497  10.372  0.2995 -0.4038  0.1831
  108OSM    HNF11086   6.060   0.549  10.357  1.7230  2.1932  0.4866
  108OSM    C2S11087   6.139   0.364  10.434 -0.0099  1.2695  1.0870
  108OSM    H2S11088   6.231   0.307  10.410 -1.2505 -1.1445  1.7593
  108OSM    C3S11089   6.022   0.274  10.385  0.2498  0.3040 -0.1624
  108OSM    H3S11090   5.929   0.328  10.413  0.8201  1.4197 -0.3599
  108OSM     O311091   6.014   0.155  10.461 -0.0741 -0.0619  0.2566
  108OSM    HO311092   6.069   0.180  10.536 -1.3406  0.0889  1.1701
  108OSM    C4S11093   6.033   0.247  10.237 -0.0630  0.0445  0.5716
  108OSM    H4S11094   6.012   0.340  10.182 -1.9455 -0.5313  0.2688
  108OSM    C5S11095   6.089   0.135  10.172 -0.2404 -0.6979  0.1588
  108OSM    H5S11096   6.133   0.056  10.233  0.0213 -2.1574 -1.8207
  108OSM    C6S11097   6.110   0.105  10.023 -0.4477 -0.6185 -0.2461
  108OSM    H6S11098   6.051   0.015   9.994  0.8905 -1.5211 -0.2182
  108OSM    H6T11099   6.219   0.085  10.021 -0.3908 -0.7433  1.8455
  108OSM    C7S11100   6.080   0.221   9.932 -0.0470  0.5459 -0.6229
  108OSM    H7S11101   5.974   0.257   9.937  0.1042  1.7084 -3.6391
  108OSM    H7T11102   6.087   0.173   9.832 -1.5703 -0.6010 -0.2283
  108OSM    C8S11103   6.178   0.343   9.931  0.0979 -0.1120 -0.1579
  108OSM    H8S11104   6.218   0.352  10.034  1.7589 -2.9455 -0.4511
  108OSM    H8T11105   6.114   0.430   9.906 -1.3555 -1.2145 -0.4112
  108OSM    C9S11106   6.287   0.334   9.820 -0.1356 -1.1082 -0.4964
  108OSM    H9S11107   6.351   0.252   9.859  0.5868  0.2251  1.2657
  108OSM    H9T11108   6.349   0.425   9.836  0.1914 -1.1254 -1.6237
  108OSM   C10S11109   6.254   0.300   9.679 -0.0604  0.4577 -0.5975
  108OSM   H10S11110   6.171   0.361   9.639 -0.2933  0.9349  0.6043
  108OSM   H10T11111   6.227   0.194   9.660 -1.0068  0.4224  0.8530
  108OSM   C11S11112   6.375   0.336   9.594  0.4039  0.3089  0.4739
  108OSM   H11S11113   6.444   0.249   9.598 -0.1445 -0.2813 -1.6874
  108OSM   H11T11114   6.436   0.419   9.635  0.6780  0.5597 -0.4193
  108OSM   C12S11115   6.335   0.363   9.451  0.4805  0.3761  0.8793
  108OSM   H12S11116   6.252   0.433   9.430  1.4944  1.1402 -0.6951
  108OSM   H12T11117   6.310   0.266   9.402  0.2106 -1.1911  3.8728
  108OSM   C13S11118   6.453   0.416   9.373 -0.3002  0.5673 -0.2847
  108OSM   H13S11119   6.535   0.341   9.373 -2.2191 -1.6525  0.1032
  108OSM   H13T11120   6.499   0.508   9.415  1.1065  0.2855 -1.1178
  108OSM   C14S11121   6.419   0.437   9.224  0.1792 -0.6797  0.6135
  108OSM   H14S11122   6.352   0.525   9.216 -1.1383 -1.5998  1.1358
  108OSM   H14T11123   6.375   0.342   9.186  0.8043 -0.2022 -1.4354
  108OSM   C15S11124   6.540   0.461   9.136  0.1629  0.0403 -0.2147
  108OSM   H15S11125   6.595   0.365   9.140  0.1008  0.0217  0.1801
  108OSM   H15T11126   6.609   0.537   9.179  1.0720  1.0831 -3.2208
  108OSM   C16S11127   6.501   0.493   8.993 -0.0924 -0.2264  0.0345
  108OSM   H16S11128   6.591   0.521   8.934  2.0521 -1.8777  2.2974
  108OSM   H16T11129   6.441   0.586   8.993  2.4166  1.4793 -0.2581
  108OSM   C17S11130   6.416   0.385   8.916 -0.7420  0.9332 -0.1254
  108OSM   H17S11131   6.389   0.430   8.818 -1.2128  0.5384 -0.1837
  108OSM   H17T11132   6.317   0.377   8.965 -0.8942 -1.4987 -0.6647
  108OSM   C18S11133   6.486   0.248   8.900 -0.2019  0.8440  0.1743
  108OSM   H18S11134   6.503   0.204   9.001 -1.6108  0.2962  0.2001
  108OSM   H18T11135   6.583   0.248   8.847  0.7167 -2.4868  1.5733
  108OSM   H18U11136   6.415   0.175   8.855  0.0269 -1.3402  3.0721
  108OSM    C1F11137   6.259   0.570  10.375 -0.1372  0.3724 -0.3833
  108OSM     OF11138   6.365   0.515  10.407  0.1633 -0.1636 -0.0089
  108OSM    C2F11139   6.251   0.713  10.376  0.3087  0.2796  0.6118
  108OSM    H2F11140   6.310   0.753  10.461  1.6595 -1.1489  0.3958
  108OSM    H2G11141   6.145   0.746  10.373  0.6387  1.3977 -2.5905
  108OSM    C3F11142   6.323   0.769  10.252  0.4875  0.1787 -0.8806
  108OSM    H3F11143   6.428   0.734  10.243  0.8654  0.9741  0.1952
  108OSM    H3G11144   6.326   0.878  10.270 -0.6058 -0.2608  2.8979
  108OSM    C4F11145   6.257   0.727  10.119  0.4349  0.3014 -0.2538
  108OSM    H4F11146   6.153   0.766  10.119  0.2049 -0.2847  0.2919
  108OSM    H4G11147   6.243   0.617  10.124 -1.7692  0.5588  0.2218
  108OSM    C5F11148   6.338   0.758   9.992  0.8943 -0.3703  0.4800
  108OSM    H5F11149   6.439   0.712   9.982  1.3503  0.8581 -0.8454
  108OSM    H5G11150   6.356   0.867  10.003  1.9833 -0.4799 -0.0850
  108OSM    C6F11151   6.265   0.734   9.852 -0.5089 -0.8024 -0.6863
  108OSM    H6F11152   6.170   0.791   9.854 -0.7788 -1.1366  2.9134
  108OSM    H6G11153   6.258   0.625   9.832  0.7407 -0.7893 -1.3155
  108OSM    C7F11154   6.355   0.794   9.744  0.3827  0.3513  0.5794
  108OSM    H7F11155   6.455   0.746   9.747  0.7847  1.1858  0.9911
  108OSM    H7G11156   6.352   0.904   9.761 -2.1962  0.8258 -2.2166
  108OSM    C8F11157   6.301   0.779   9.600 -0.4736 -0.6035  0.1324
  108OSM    H8F11158   6.353   0.689   9.558  0.3274  0.5199 -1.4052
  108OSM    H8G11159   6.354   0.857   9.542  1.5125 -1.3297  0.8758
  108OSM    C9F11160   6.156   0.782   9.566 -0.4828  0.1352 -0.5813
  108OSM    H9F11161   6.085   0.769   9.649 -0.1665 -1.1901 -0.4940
  108OSM   C10F11162   6.110   0.795   9.437 -0.0485  0.9129 -0.5433
  108OSM   H10F11163   6.004   0.800   9.409 -0.3561 -0.7047  0.2095
  108OSM   C11F11164   6.192   0.789   9.312 -0.1192 -0.5620 -0.0682
  108OSM   H11F11165   6.289   0.738   9.332 -0.5779 -1.3254  0.2653
  108OSM   H11G11166   6.208   0.894   9.280 -1.6458  0.0197  0.9564
  108OSM   C12F11167   6.127   0.696   9.206 -0.0114 -0.1151 -0.0173
  108OSM   H12F11168   6.020   0.716   9.183 -0.6013 -1.1473  1.6356
  108OSM   H12G11169   6.133   0.589   9.234  0.9146 -0.1737 -0.3865
  108OSM   C13F11170   6.198   0.722   9.076  0.1844 -0.1215 -0.2220
  108OSM   H13F11171   6.309   0.713   9.077  0.4153  1.6744 -1.8355
  108OSM   H13G11172   6.181   0.829   9.051 -4.4145 -0.6444 -0.1315
  108OSM   C14F11173   6.139   0.632   8.964  0.0543 -0.2244 -0.2753
  108OSM   H14F11174   6.028   0.623   8.962  0.2406 -4.2315 -1.7940
  108OSM   H14G11175   6.180   0.531   8.982  1.8003  0.5260  0.2146
  108OSM   C15F11176   6.181   0.682   8.823  0.2667  0.4481  0.6682
  108OSM   H15F11177   6.291   0.679   8.811  0.1065  0.4225 -1.0688
  108OSM   H15G11178   6.149   0.789   8.816 -1.8281 -0.1616  0.0910
  108OSM   C16F11179   6.137   0.587   8.707 -0.4986 -0.1314 -0.0348
  108OSM   H16F11180   6.027   0.582   8.701 -0.3657 -3.5817 -3.1851
  108OSM   H16G11181   6.157   0.481   8.734  2.2480  0.5130  0.8754
  108OSM   C17F11182   6.201   0.612   8.570  0.2256 -0.3399 -1.0783
  108OSM   H17F11183   6.311   0.594   8.570 -0.0965 -2.6393 -0.3260
  108OSM   H17G11184   6.188   0.720   8.545 -0.2864  0.8644  3.4296
  108OSM   C18F11185   6.132   0.529   8.462  0.2126  0.3429  0.4295
  108OSM   H18F11186   6.210   0.462   8.421 -1.6252 -0.6567 -1.6622
  108OSM   H18G11187   6.083   0.585   8.380 -1.5696 -2.0621 -0.2683
  108OSM   H18H11188   6.058   0.459   8.507  0.6680 -0.0761  0.5265
  109OSM      N11189   6.355   1.719  10.746  0.6010  0.5420 -0.0084
  109OSM    C1511190   6.417   1.794  10.637 -0.5296  0.4854  0.5583
  109OSM   H15A11191   6.510   1.744  10.615 -1.7219 -1.4571 -0.3210
  109OSM   H15B11192   6.442   1.894  10.669  1.5689 -0.4763  2.1310
  109OSM   H15C11193   6.364   1.794  10.543  1.4892  1.9643 -0.6670
  109OSM    C1411194   6.229   1.786  10.801 -0.2674 -0.0920  0.0534
  109OSM   H14A11195   6.243   1.884  10.843  0.7608  0.0250 -0.5123
  109OSM   H14B11196   6.180   1.727  10.877 -1.3211  1.7703  0.8647
  109OSM   H14C11197   6.169   1.798  10.712  1.5202  0.9529 -1.0870
  109OSM    C1311198   6.317   1.577  10.706 -0.0131 -0.1220  0.6528
  109OSM   H13A11199   6.402   1.513  10.689 -0.3347 -0.4181  0.1161
  109OSM   H13B11200   6.252   1.599  10.622  0.8285  0.4448  0.1316
  109OSM   H13C11201   6.260   1.538  10.789  0.0618 -0.1699  0.6815
  109OSM    C1211202   6.452   1.700  10.857  0.1836 -0.0501 -0.0610
  109OSM   H12A11203   6.528   1.626  10.837  2.3535  2.2565 -0.8508
  109OSM   H12B11204   6.390   1.672  10.940  2.4216  1.5738  2.3196
  109OSM    C1111205   6.543   1.824  10.891 -0.0335 -0.5180 -0.6809
  109OSM   H11A11206   6.583   1.807  10.993 -1.1431  0.8401  0.0252
  109OSM   H11B11207   6.471   1.909  10.891  0.0877 -0.4167 -0.4991
  109OSM      P11208   6.779   1.779  10.778  0.0857  0.1384 -0.2648
  109OSM    O1311209   6.891   1.863  10.843 -0.3168  0.3537  0.2187
  109OSM    O1411210   6.755   1.643  10.824  0.0049  0.1608  0.1636
  109OSM    O1111211   6.799   1.765  10.617  0.2277  0.3997 -0.6523
  109OSM    O1211212   6.648   1.857  10.792  0.0254 -0.7441  0.6423
  109OSM    C1S11213   6.834   1.891  10.567  0.2902 -0.4293 -0.3094
  109OSM    H1S11214   6.941   1.917  10.578  0.0213  1.7655 -2.0553
  109OSM    H1T11215   6.766   1.973  10.600  0.8499  0.1809 -0.6285
  109OSM     NF11216   6.873   2.007  10.362  0.0697  0.0799  0.2628
  109OSM    HNF11217   6.803   2.071  10.332  0.1370  0.5524  1.0864
  109OSM    C2S11218   6.834   1.879  10.410 -0.2655  0.6385 -0.2239
  109OSM    H2S11219   6.908   1.799  10.386 -0.1125  0.6826  0.1030
  109OSM    C3S11220   6.691   1.833  10.357  0.2471 -0.7275  0.0058
  109OSM    H3S11221   6.611   1.908  10.375  1.6483  0.7618  0.2991
  109OSM     O311222   6.642   1.720  10.420  0.2305 -0.6840 -0.2483
  109OSM    HO311223   6.699   1.712  10.497 -0.4935 -0.4435  0.3258
  109OSM    C4S11224   6.700   1.823  10.206 -0.4059 -0.3389 -0.3743
  109OSM    H4S11225   6.663   1.906  10.145  0.2460  0.4961  0.3427
  109OSM    C5S11226   6.771   1.728  10.140 -0.2509 -0.5220  0.2569
  109OSM    H5S11227   6.834   1.657  10.195  0.9478  0.5094  0.2700
  109OSM    C6S11228   6.801   1.710   9.991  0.3001  0.0330 -0.8490
  109OSM    H6S11229   6.732   1.630   9.959 -0.2478 -0.3724  1.2021
  109OSM    H6T11230   6.903   1.677   9.962 -0.1672 -3.1538  0.7040
  109OSM    C7S11231   6.757   1.819   9.896  0.5799  0.6202 -0.0818
  109OSM    H7S11232   6.785   1.919   9.935  0.0259  0.1219  1.6703
  109OSM    H7T11233   6.646   1.814   9.897  0.4907  2.1722 -0.4262
  109OSM    C8S11234   6.815   1.798   9.752  0.4361  0.6725  0.3819
  109OSM    H8S11235   6.828   1.688   9.739 -1.0431  0.5060  0.0707
  109OSM    H8T11236   6.916   1.844   9.749  1.0321 -0.6043 -0.4840
  109OSM    C9S11237   6.728   1.858   9.640 -0.1440  0.0040  0.2386
  109OSM    H9S11238   6.738   1.969   9.643 -1.6809  0.1421  1.2479
  109OSM    H9T11239   6.623   1.822   9.648 -0.1795  0.4968  2.6234
  109OSM   C10S11240   6.789   1.811   9.506  0.8443 -0.6671  0.2225
  109OSM   H10S11241   6.757   1.705   9.516 -1.6978  0.0786  0.7316
  109OSM   H10T11242   6.897   1.833   9.493  0.2918  1.2356 -1.6698
  109OSM   C11S11243   6.723   1.866   9.378  0.3933  0.4841 -0.2117
  109OSM   H11S11244   6.753   1.972   9.359 -0.7233  0.6662 -0.9977
  109OSM   H11T11245   6.615   1.859   9.403  0.6236 -2.6177  0.3614
  109OSM   C12S11246   6.765   1.774   9.259 -0.6623  0.0019 -0.5748
  109OSM   H12S11247   6.699   1.685   9.270 -1.1237  0.0642 -2.4272
  109OSM   H12T11248   6.863   1.732   9.289 -0.5548  0.4929 -0.2244
  109OSM   C13S11249   6.758   1.840   9.120 -0.3538 -0.0367  0.0874
  109OSM   H13S11250   6.832   1.787   9.057  0.3150  2.3324 -1.2553
  109OSM   H13T11251   6.791   1.944   9.143  4.2745 -1.6269  1.7982
  109OSM   C14S11252   6.626   1.845   9.044  0.4405 -0.5723  0.8323
  109OSM   H14S11253   6.554   1.886   9.118  2.4689 -0.7507  3.0431
  109OSM   H14T11254   6.585   1.744   9.022 -0.4401 -0.0079 -0.1819
  109OSM   C15S11255   6.624   1.919   8.909 -0.1447 -0.0199  0.2882
  109OSM   H15S11256   6.691   2.008   8.911 -1.5457  1.0847  0.0710
  109OSM   H15T11257   6.520   1.960   8.910 -0.5306 -0.9785  0.3011
  109OSM   C16S11258   6.653   1.820   8.801 -0.6351  0.1565  0.1191
  109OSM   H16S11259   6.584   1.733   8.798  1.0909 -1.2307 -0.9272
  109OSM   H16T11260   6.757   1.783   8.809 -0.8849 -0.3018  1.3617
  109OSM   C17S11261   6.644   1.891   8.660 -0.0750  0.0814 -0.1960
  109OSM   H17S11262   6.731   1.959   8.645  1.5934 -1.7181  0.7720
  109OSM   H17T11263   6.551   1.950   8.675 -0.6820 -1.2060  1.4237
  109OSM   C18S11264   6.638   1.801   8.537 -0.3524 -0.2134  0.3456
  109OSM   H18S11265   6.556   1.728   8.550  0.0859 -0.6944  0.4712
  109OSM   H18T11266   6.733   1.745   8.525 -1.0850 -1.6231  0.9183
  109OSM   H18U11267   6.619   1.870   8.453  1.8869 -0.7313 -0.6679
  109OSM    C1F11268   6.994   2.062  10.355  0.8343 -0.9090 -0.2383
  109OSM     OF11269   7.089   1.999  10.406  0.7504 -0.3792  0.5881
  109OSM    C2F11270   7.009   2.203  10.305 -0.3309  0.0892  0.1751
  109OSM    H2F11271   7.022   2.272  10.391 -0.1667 -3.3977  3.1804
  109OSM    H2G11272   6.918   2.231  10.246  0.3010 -0.8432 -1.2883
  109OSM    C3F11273   7.120   2.223  10.204 -0.2711 -0.0283  0.4236
  109OSM    H3F11274   7.214   2.199  10.258 -0.4855 -0.5985  0.5512
  109OSM    H3G11275   7.128   2.332  10.183  2.7415 -0.4488 -1.2625
  109OSM    C4F11276   7.106   2.152  10.061  0.5594 -0.1403  0.5622
  109OSM    H4F11277   7.045   2.060  10.073 -1.7866  0.7234 -3.2386
  109OSM    H4G11278   7.205   2.127  10.018  0.9770  1.2121  0.6849
  109OSM    C5F11279   7.029   2.233   9.952 -0.0648  0.0123 -0.1090
  109OSM    H5F11280   7.094   2.322   9.939 -0.6305  0.5587  0.6822
  109OSM    H5G11281   6.927   2.268   9.980 -0.5186 -0.5453 -1.0316
  109OSM    C6F11282   7.016   2.156   9.820  0.1594 -0.2453  1.0431
  109OSM    H6F11283   6.943   2.073   9.819  0.6274 -0.7603 -2.2624
  109OSM    H6G11284   7.118   2.119   9.795  0.5049  0.1138  1.8630
  109OSM    C7F11285   6.985   2.246   9.703 -0.1399 -0.5032  0.0647
  109OSM    H7F11286   7.077   2.308   9.693  0.7122 -1.6411  0.6714
  109OSM    H7G11287   6.899   2.310   9.732 -0.0500 -0.2867 -0.1398
  109OSM    C8F11288   6.960   2.179   9.564 -0.5479 -0.4767 -0.0126
  109OSM    H8F11289   6.945   2.271   9.504  2.8963  0.3263  0.1963
  109OSM    H8G11290   6.860   2.131   9.579 -0.9999  0.4582  0.0455
  109OSM    C9F11291   7.088   2.105   9.517 -0.6206  0.6455  1.1699
  109OSM    H9F11292   7.107   2.002   9.551 -1.5855 -0.4726 -1.4313
  109OSM   C10F11293   7.176   2.145   9.423 -0.1962  0.3729  0.0591
  109OSM   H10F11294   7.257   2.078   9.390  0.7773  0.5413  1.9620
  109OSM   C11F11295   7.167   2.277   9.355 -0.1431 -0.2687 -0.0220
  109OSM   H11F11296   7.244   2.347   9.394  1.3342 -1.6150 -0.4046
  109OSM   H11G11297   7.068   2.326   9.357  0.0823  0.4222 -2.6016
  109OSM   C12F11298   7.173   2.245   9.206 -0.3513 -0.3200  0.8947
  109OSM   H12F11299   7.163   2.344   9.157  0.6365 -0.1911  0.9372
  109OSM   H12G11300   7.084   2.186   9.178 -1.2248 -0.2921  3.3319
  109OSM   C13F11301   7.311   2.181   9.161 -0.0160 -0.0705 -0.3163
  109OSM   H13F11302   7.303   2.071   9.176 -1.4133  0.3209  2.2943
  109OSM   H13G11303   7.397   2.219   9.220 -0.3709  0.4915 -0.1551
  109OSM   C14F11304   7.337   2.220   9.015  0.4245  0.1900  0.1685
  109OSM   H14F11305   7.343   2.330   9.001 -0.5683  0.1151 -1.0935
  109OSM   H14G11306   7.254   2.177   8.954  0.8058 -1.1587  0.5785
  109OSM   C15F11307   7.469   2.167   8.965  0.6137  0.3236 -0.0677
  109OSM   H15F11308   7.477   2.062   9.001  1.0003  0.1969 -0.5184
  109OSM   H15G11309   7.560   2.215   9.006  3.1446 -2.7193 -1.6981
  109OSM   C16F11310   7.483   2.167   8.817 -0.1310  0.3068  0.7105
  109OSM   H16F11311   7.515   2.268   8.783 -0.2901 -0.0451 -0.5436
  109OSM   H16G11312   7.378   2.152   8.782 -0.8455  1.1339  2.3714
  109OSM   C17F11313   7.573   2.064   8.758 -0.0486  0.2944  0.0885
  109OSM   H17F11314   7.523   1.966   8.773  1.0579 -0.3247 -0.1073
  109OSM   H17G11315   7.668   2.064   8.816 -1.0751 -1.7615  1.9277
  109OSM   C18F11316   7.608   2.077   8.615 -0.6418  0.3796  0.1587
  109OSM   H18F11317   7.687   2.003   8.590 -2.4571 -1.7500  0.3999
  109OSM   H18G11318   7.638   2.177   8.575  0.7436  0.1163  0.4977
  109OSM   H18H11319   7.514   2.051   8.561 -1.5086  1.9540  0.8544
  110OSM      N11320   1.635   1.699  11.093 -0.0009  0.5396  0.5024
  110OSM    C1511321   1.659   1.824  11.164 -0.4886 -0.2040  0.6622
  110OSM   H15A11322   1.587   1.848  11.242 -1.2137  0.1980 -0.1119
  110OSM   H15B11323   1.681   1.909  11.101  0.7195  0.0461  1.3843
  110OSM   H15C11324   1.751   1.816  11.219 -0.3554 -1.3564  0.2874
  110OSM    C1411325   1.746   1.664  10.998 -0.1971  0.4981 -0.1907
  110OSM   H14A11326   1.736   1.568  10.951  0.6920  0.5305 -0.4729
  110OSM   H14B11327   1.837   1.662  11.057 -0.9708 -1.1094  1.0383
  110OSM   H14C11328   1.769   1.734  10.919 -2.6571  0.3556 -1.0878
  110OSM    C1311329   1.620   1.586  11.192 -0.0683 -0.0988 -0.0548
  110OSM   H13A11330   1.583   1.497  11.143 -0.1671  0.5893 -1.2721
  110OSM   H13B11331   1.558   1.619  11.274  0.5790  0.1015  0.3618
  110OSM   H13C11332   1.715   1.577  11.243 -1.2484  0.3251  2.3862
  110OSM    C1211333   1.512   1.717  11.011  0.1739 -0.0731 -0.3941
  110OSM   H12A11334   1.522   1.794  10.936 -2.0396  1.2700  0.5811
  110OSM   H12B11335   1.433   1.750  11.078  1.3564 -0.3457  1.1989
  110OSM    C1111336   1.453   1.589  10.937  0.2163 -0.7278  0.5551
  110OSM   H11A11337   1.533   1.537  10.881  0.2591  0.2933 -0.3492
  110OSM   H11B11338   1.392   1.636  10.857  1.0179  0.4651  0.6210
  110OSM      P11339   1.392   1.348  11.005 -0.5022  0.0681  0.0207
  110OSM    O1311340   1.534   1.329  11.045  0.4209 -0.0800  0.3366
  110OSM    O1411341   1.281   1.279  11.080  0.1472 -0.1142  0.1865
  110OSM    O1111342   1.385   1.330  10.847  0.1530  0.1286  0.0085
  110OSM    O1211343   1.367   1.502  11.016  0.5071  0.4820 -0.3404
  110OSM    C1S11344   1.261   1.308  10.780  0.2182  0.9279 -0.2862
  110OSM    H1S11345   1.190   1.388  10.810 -1.1531  0.1973 -1.4478
  110OSM    H1T11346   1.212   1.211  10.805 -0.2244  0.9565 -0.9981
  110OSM     NF11347   1.145   1.299  10.564 -0.7924  0.4079 -0.2608
  110OSM    HNF11348   1.107   1.214  10.530  0.4825  0.1758 -1.1649
  110OSM    C2S11349   1.281   1.302  10.622 -0.6055 -0.0512  0.5393
  110OSM    H2S11350   1.326   1.393  10.577  0.1330 -1.3669 -1.5854
  110OSM    C3S11351   1.371   1.181  10.585  0.4064 -0.1792  0.3848
  110OSM    H3S11352   1.323   1.086  10.616  0.5215  0.1445  1.6375
  110OSM     O311353   1.495   1.172  10.656  0.4208 -0.4047  0.2830
  110OSM    HO311354   1.477   1.229  10.732 -2.6713 -1.6163  0.6003
  110OSM    C4S11355   1.389   1.175  10.438  0.1706 -0.0043  0.0958
  110OSM    H4S11356   1.313   1.120  10.380  1.3586 -0.7228 -0.8318
  110OSM    C5S11357   1.485   1.229  10.368  0.0791  0.0946  0.2056
  110OSM    H5S11358   1.558   1.289  10.424  2.3110 -2.8031  0.6963
  110OSM    C6S11359   1.495   1.228  10.213  0.5593 -0.5445  0.2576
  110OSM    H6S11360   1.537   1.132  10.176 -2.3138 -2.0641  0.6344
  110OSM    H6T11361   1.553   1.319  10.184  0.0194 -0.8761 -2.0415
  110OSM    C7S11362   1.366   1.269  10.153 -0.1754  0.0432 -0.3315
  110OSM    H7S11363   1.307   1.348  10.203 -1.4024  0.2670 -2.0389
  110OSM    H7T11364   1.295   1.184  10.160  0.1024 -0.0663  2.7264
  110OSM    C8S11365   1.360   1.308  10.002  0.2381 -0.6709 -0.3540
  110OSM    H8S11366   1.403   1.410   9.988 -1.1978 -0.0463 -0.4216
  110OSM    H8T11367   1.254   1.317   9.971 -0.4839 -0.4514  1.9757
  110OSM    C9S11368   1.442   1.213   9.904  0.5933 -0.2078  0.0288
  110OSM    H9S11369   1.423   1.105   9.923  1.9156 -0.5233 -0.3587
  110OSM    H9T11370   1.544   1.233   9.942  0.7586 -2.0504  0.6793
  110OSM   C10S11371   1.432   1.247   9.759  1.3614  0.6591 -0.2402
  110OSM   H10S11372   1.429   1.357   9.742  0.3863  0.9716  1.6985
  110OSM   H10T11373   1.334   1.218   9.715  0.7953 -0.8490  1.9094
  110OSM   C11S11374   1.543   1.185   9.670  0.1504 -0.1817  0.0179
  110OSM   H11S11375   1.526   1.075   9.672  0.2652 -0.1991  0.0368
  110OSM   H11T11376   1.643   1.210   9.712  0.4038  0.7092 -1.0750
  110OSM   C12S11377   1.538   1.244   9.523 -0.0758  0.3185  0.2719
  110OSM   H12S11378   1.611   1.181   9.467 -0.2323 -0.3294  0.7898
  110OSM   H12T11379   1.579   1.348   9.527 -0.0773  0.4440 -1.8563
  110OSM   C13S11380   1.400   1.233   9.461  0.0306  0.2600  1.1345
  110OSM   H13S11381   1.406   1.298   9.371 -0.4097 -0.0406  0.8868
  110OSM   H13T11382   1.330   1.298   9.519 -0.4849  1.1464 -0.4197
  110OSM   C14S11383   1.342   1.093   9.432  0.2347  0.0739  0.2008
  110OSM   H14S11384   1.313   1.047   9.529  1.9519 -0.2035  0.6182
  110OSM   H14T11385   1.415   1.023   9.386 -1.1174 -0.7984 -0.7013
  110OSM   C15S11386   1.214   1.110   9.347 -0.6141 -0.1602  0.2792
  110OSM   H15S11387   1.164   1.199   9.390 -0.9979  0.0893 -0.6655
  110OSM   H15T11388   1.135   1.032   9.350 -1.4367  0.6783  0.8319
  110OSM   C16S11389   1.247   1.138   9.199 -0.0762  0.8912  0.3519
  110OSM   H16S11390   1.313   1.226   9.185  1.6754 -0.5148 -0.7307
  110OSM   H16T11391   1.155   1.156   9.139  0.0817  1.0181  0.1452
  110OSM   C17S11392   1.313   1.018   9.139 -0.2585  0.1897  0.3684
  110OSM   H17S11393   1.259   0.927   9.172  0.6284  0.1507  1.8213
  110OSM   H17T11394   1.417   1.002   9.175 -0.4574 -1.5768  0.2558
  110OSM   C18S11395   1.332   1.027   8.985  0.3195 -0.1340 -0.0824
  110OSM   H18S11396   1.366   0.930   8.945 -0.8238 -0.5135 -0.1686
  110OSM   H18T11397   1.395   1.114   8.956 -1.3860  0.7163 -1.3921
  110OSM   H18U11398   1.236   1.036   8.930  0.7461 -1.5849 -1.1218
  110OSM    C1F11399   1.061   1.398  10.566  1.1312  0.2781  0.7533
  110OSM     OF11400   1.077   1.509  10.616 -0.3953 -0.4201 -0.2303
  110OSM    C2F11401   0.925   1.366  10.506 -0.1989 -0.0896 -0.3762
  110OSM    H2F11402   0.855   1.333  10.586 -0.9181  0.9093 -0.5786
  110OSM    H2G11403   0.944   1.280  10.439  0.7227  0.7643 -1.2459
  110OSM    C3F11404   0.870   1.486  10.427  0.7766 -0.1090 -0.2075
  110OSM    H3F11405   0.853   1.576  10.490 -0.2257 -0.8572  0.6285
  110OSM    H3G11406   0.773   1.446  10.391  0.4980  0.7959 -0.4882
  110OSM    C4F11407   0.947   1.528  10.306 -0.5541  0.3658  0.1440
  110OSM    H4F11408   1.047   1.576  10.315 -1.1564  1.5579  0.7172
  110OSM    H4G11409   0.886   1.595  10.242  0.3671  0.6018 -0.5068
  110OSM    C5F11410   0.974   1.407  10.217 -0.3732 -0.5568  0.2625
  110OSM    H5F11411   0.898   1.327  10.231  1.9338 -3.4998 -2.4979
  110OSM    H5G11412   1.066   1.354  10.249  0.1935  0.0049 -0.3999
  110OSM    C6F11413   0.981   1.432  10.067 -0.7664 -0.4241  0.4375
  110OSM    H6F11414   1.077   1.401  10.021 -0.8079  1.0195 -0.6854
  110OSM    H6G11415   0.998   1.539  10.042  3.7734 -0.6887  1.5027
  110OSM    C7F11416   0.861   1.368   9.995 -0.0010  0.3670 -0.4101
  110OSM    H7F11417   0.770   1.407  10.047 -0.7355 -1.6749 -0.0807
  110OSM    H7G11418   0.859   1.258  10.006  0.4641  0.4810  1.0861
  110OSM    C8F11419   0.863   1.407   9.849  0.0843  0.0912  0.1921
  110OSM    H8F11420   0.859   1.518   9.840  1.1926  0.2888  1.7171
  110OSM    H8G11421   0.764   1.372   9.812 -0.8872  1.4843  1.3294
  110OSM    C9F11422   0.975   1.343   9.771 -0.4852  0.6032 -0.1372
  110OSM    H9F11423   1.058   1.302   9.831 -0.2928  0.6833 -0.3464
  110OSM   C10F11424   0.996   1.322   9.642  0.0452  0.0041  0.2189
  110OSM   H10F11425   1.087   1.281   9.595  0.9437  2.3363 -0.2361
  110OSM   C11F11426   0.892   1.374   9.541 -0.1972  0.1549 -0.6061
  110OSM   H11F11427   0.940   1.455   9.483  2.6166 -2.4464 -2.1997
  110OSM   H11G11428   0.793   1.404   9.581 -0.1286 -0.8745  0.3826
  110OSM   C12F11429   0.861   1.260   9.444  0.2259 -0.5390 -0.3102
  110OSM   H12F11430   0.818   1.178   9.504  0.8030 -0.9763 -0.4888
  110OSM   H12G11431   0.958   1.216   9.411  0.8416 -0.9191  1.8895
  110OSM   C13F11432   0.771   1.308   9.327 -0.3939 -0.5625  0.1014
  110OSM   H13F11433   0.815   1.400   9.281 -1.6801  1.2227  2.2166
  110OSM   H13G11434   0.669   1.335   9.361 -1.0043 -1.6578 -0.7890
  110OSM   C14F11435   0.749   1.200   9.218  0.0123 -0.0548  0.1304
  110OSM   H14F11436   0.686   1.117   9.255 -0.1121  0.2188  0.5391
  110OSM   H14G11437   0.847   1.160   9.185  0.0976  0.7532 -0.6233
  110OSM   C15F11438   0.671   1.262   9.096 -0.2540  0.1006 -0.3181
  110OSM   H15F11439   0.720   1.358   9.067  2.4398 -2.2687 -4.6959
  110OSM   H15G11440   0.564   1.282   9.119 -0.9262 -2.0452 -1.3341
  110OSM   C16F11441   0.674   1.166   8.973  0.2569 -0.1191 -0.0835
  110OSM   H16F11442   0.637   1.063   8.992  0.2648  0.2684  2.3458
  110OSM   H16G11443   0.779   1.158   8.937 -0.0528 -2.5337 -0.6302
  110OSM   C17F11444   0.601   1.232   8.855  0.5944 -0.1037  0.5260
  110OSM   H17F11445   0.623   1.165   8.769 -2.3186 -1.6297  0.8614
  110OSM   H17G11446   0.649   1.330   8.830 -2.0810  1.1711  0.0372
  110OSM   C18F11447   0.447   1.247   8.872 -0.1082 -0.0739 -0.2759
  110OSM   H18F11448   0.425   1.299   8.968  1.3193 -0.5112  0.3097
  110OSM   H18G11449   0.397   1.148   8.875 -0.3579  0.0069 -1.4037
  110OSM   H18H11450   0.414   1.303   8.782  0.2732 -0.0383 -0.3940
  111OSM      N11451   1.643   3.758  11.128  0.5037  0.6502  0.1705
  111OSM    C1511452   1.499   3.751  11.096  0.0029  0.2402 -0.2504
  111OSM   H15A11453   1.449   3.767  11.190  1.5171  0.4826  0.5555
  111OSM   H15B11454   1.474   3.651  11.064  1.8610 -0.7764  1.2115
  111OSM   H15C11455   1.472   3.830  11.027  2.4751  3.0354  1.7336
  111OSM    C1411456   1.670   3.893  11.181  0.5910  0.6001 -0.8098
  111OSM   H14A11457   1.616   3.912  11.273  0.8481 -0.3685 -0.4521
  111OSM   H14B11458   1.654   3.964  11.101 -1.8268 -0.0133 -0.9446
  111OSM   H14C11459   1.773   3.903  11.213 -0.0371  3.4326  0.6606
  111OSM    C1311460   1.671   3.662  11.238  0.3466  0.4489 -0.3317
  111OSM   H13A11461   1.772   3.675  11.273  0.8724  0.0084 -1.6142
  111OSM   H13B11462   1.643   3.563  11.204 -1.1580  1.0327 -0.8715
  111OSM   H13C11463   1.608   3.684  11.323 -2.0962 -0.8585 -1.6701
  111OSM    C1211464   1.724   3.725  11.004 -0.6524  0.4852  1.0331
  111OSM   H12A11465   1.707   3.623  10.976 -0.4427  0.9169 -0.8159
  111OSM   H12B11466   1.829   3.735  11.030 -0.4553  0.3174  0.3242
  111OSM    C1111467   1.693   3.797  10.873  0.1953  0.5049  0.0194
  111OSM   H11A11468   1.594   3.759  10.840  0.6316 -0.7897  0.1663
  111OSM   H11B11469   1.766   3.758  10.799  1.6850  0.8430  1.2485
  111OSM      P11470   1.851   4.009  10.879 -0.1621  0.0752  0.1601
  111OSM    O1311471   1.823   4.154  10.884 -0.7068  0.2680 -0.0021
  111OSM    O1411472   1.945   3.953  10.987  0.2615 -0.1192  0.8964
  111OSM    O1111473   1.908   3.960  10.745  0.5745 -0.3115 -0.0100
  111OSM    O1211474   1.713   3.937  10.890  0.0953  0.1867  0.0522
  111OSM    C1S11475   1.818   3.989  10.626 -0.1603  0.4348  0.5505
  111OSM    H1S11476   1.739   4.062  10.653  0.0728  0.9396 -0.0849
  111OSM    H1T11477   1.771   3.891  10.604  0.2924  0.0372  1.3111
  111OSM     NF11478   1.813   4.045  10.394  0.3425 -0.9914 -0.2051
  111OSM    HNF11479   1.768   3.968  10.350 -0.9806 -1.4147  1.7783
  111OSM    C2S11480   1.910   4.022  10.502 -0.2412  0.5016 -0.8519
  111OSM    H2S11481   1.969   4.114  10.522  0.6422 -0.1660 -0.3255
  111OSM    C3S11482   2.008   3.900  10.468  1.5996  0.1925 -0.0126
  111OSM    H3S11483   1.942   3.811  10.466  1.9028 -0.0772  1.1872
  111OSM     O311484   2.103   3.875  10.570  0.2500 -0.1690  0.1861
  111OSM    HO311485   2.055   3.880  10.653 -0.7559 -1.1703 -0.3096
  111OSM    C4S11486   2.070   3.927  10.333 -0.3883  0.0280  0.1454
  111OSM    H4S11487   2.137   4.013  10.347  0.7299 -0.2210 -2.9795
  111OSM    C5S11488   2.067   3.859  10.221  0.6743  0.6050 -0.2428
  111OSM    H5S11489   2.008   3.767  10.210 -1.3426  1.8495 -0.2536
  111OSM    C6S11490   2.145   3.913  10.100  0.3705 -0.4615 -0.1481
  111OSM    H6S11491   2.225   3.840  10.073  0.5472 -0.5013  0.4700
  111OSM    H6T11492   2.194   4.011  10.118 -0.9090  0.3219 -0.7748
  111OSM    C7S11493   2.065   3.907   9.973 -0.3798 -0.0744  0.5103
  111OSM    H7S11494   1.978   3.975   9.988 -1.1328 -0.6049 -1.1360
  111OSM    H7T11495   2.021   3.808   9.948  0.3546 -0.4265  0.5739
  111OSM    C8S11496   2.141   3.944   9.847  0.7227 -0.4963 -0.2409
  111OSM    H8S11497   2.238   3.892   9.856  0.6656 -0.3350  1.6318
  111OSM    H8T11498   2.170   4.051   9.858  0.9489 -0.6232  0.4267
  111OSM    C9S11499   2.069   3.921   9.711  0.3755 -0.6760  0.4835
  111OSM    H9S11500   1.975   3.980   9.706  0.5521 -0.4661 -0.5869
  111OSM    H9T11501   2.027   3.819   9.703  0.8576 -1.0114  2.0112
  111OSM   C10S11502   2.165   3.939   9.597 -0.3431 -0.1256 -0.3860
  111OSM   H10S11503   2.250   3.869   9.607  0.1518  0.6096  0.7411
  111OSM   H10T11504   2.204   4.042   9.614 -1.4308  0.1192  0.7635
  111OSM   C11S11505   2.094   3.913   9.467  0.1285  0.3302  0.2325
  111OSM   H11S11506   2.000   3.971   9.450  2.0724  3.8657  0.6749
  111OSM   H11T11507   2.055   3.809   9.475  0.6988  0.0854 -0.0954
  111OSM   C12S11508   2.184   3.929   9.346  0.5308 -0.1607 -0.1472
  111OSM   H12S11509   2.276   3.867   9.358 -0.2918 -1.2235  0.8764
  111OSM   H12T11510   2.214   4.035   9.331 -1.8613  0.6399  0.4275
  111OSM   C13S11511   2.108   3.900   9.218  0.4277 -0.2677 -0.2135
  111OSM   H13S11512   2.041   3.986   9.198  0.6451  0.2289  1.0721
  111OSM   H13T11513   2.049   3.807   9.230  0.5516 -0.2958  0.1901
  111OSM   C14S11514   2.214   3.891   9.105  0.4909 -0.1383  0.7800
  111OSM   H14S11515   2.312   3.849   9.134  1.9524  2.3830 -0.2506
  111OSM   H14T11516   2.239   3.998   9.091  1.2850 -0.4855 -0.6725
  111OSM   C15S11517   2.144   3.817   8.993  0.3287 -0.0492 -0.1087
  111OSM   H15S11518   2.035   3.836   8.978  0.6682  2.5526  0.2283
  111OSM   H15T11519   2.151   3.708   9.009  0.3389 -0.1248 -0.6188
  111OSM   C16S11520   2.190   3.849   8.852 -0.0539 -0.5054  0.9148
  111OSM   H16S11521   2.137   3.790   8.775  0.9390  0.6336 -0.6981
  111OSM   H16T11522   2.295   3.814   8.846  0.8431  2.1636 -0.5211
  111OSM   C17S11523   2.188   3.996   8.826  0.3094 -0.3255  1.0338
  111OSM   H17S11524   2.269   4.059   8.870  2.4461  1.3159 -4.3740
  111OSM   H17T11525   2.088   4.040   8.845  1.2199  3.8597 -2.3308
  111OSM   C18S11526   2.201   4.027   8.677 -1.1787 -0.3406 -0.4017
  111OSM   H18S11527   2.305   4.028   8.638  0.5214  4.2459  3.3121
  111OSM   H18T11528   2.167   4.132   8.663 -1.1155 -0.1443  0.8470
  111OSM   H18U11529   2.134   3.970   8.609  0.7174 -1.7389 -1.1823
  111OSM    C1F11530   1.752   4.163  10.387 -0.7250  1.0601 -0.2401
  111OSM     OF11531   1.770   4.245  10.472 -0.0062  0.8100 -0.0236
  111OSM    C2F11532   1.644   4.172  10.283  0.3144  0.2760  0.2963
  111OSM    H2F11533   1.556   4.121  10.329  0.3784  0.3530  0.5095
  111OSM    H2G11534   1.669   4.108  10.196 -2.1902 -0.5702  0.1322
  111OSM    C3F11535   1.611   4.314  10.248  0.2584  0.0332  1.4224
  111OSM    H3F11536   1.689   4.364  10.187 -0.2337 -0.5006  0.3156
  111OSM    H3G11537   1.597   4.382  10.335 -0.0198 -1.7954  2.8464
  111OSM    C4F11538   1.478   4.320  10.169 -0.6571 -0.0516  0.3813
  111OSM    H4F11539   1.466   4.425  10.134 -1.5108 -0.2409  0.0717
  111OSM    H4G11540   1.396   4.297  10.240 -0.8408 -0.4524  0.0443
  111OSM    C5F11541   1.472   4.241  10.043 -0.0359  0.0217  0.2351
  111OSM    H5F11542   1.468   4.135  10.077  1.1811 -0.5661 -1.3190
  111OSM    H5G11543   1.577   4.249  10.007 -0.9107 -1.8116 -3.1340
  111OSM    C6F11544   1.359   4.275   9.941 -0.1158  0.2929  0.2468
  111OSM    H6F11545   1.367   4.384   9.920  1.9520  0.2606  0.6363
  111OSM    H6G11546   1.265   4.260   9.999 -0.7835  1.2948 -0.5465
  111OSM    C7F11547   1.370   4.185   9.824  0.3741  0.6324  0.2354
  111OSM    H7F11548   1.358   4.078   9.847  2.1164  0.1945 -0.6930
  111OSM    H7G11549   1.475   4.186   9.787  1.0334  0.6270  1.9909
  111OSM    C8F11550   1.264   4.218   9.715  0.0871  0.3999 -0.6782
  111OSM    H8F11551   1.170   4.217   9.775  1.0077  2.4226  0.8840
  111OSM    H8G11552   1.247   4.136   9.641 -1.2233 -0.0890  0.1215
  111OSM    C9F11553   1.277   4.354   9.649  0.4914 -0.1316  0.9970
  111OSM    H9F11554   1.286   4.434   9.723 -0.4403  0.4123  0.5448
  111OSM   C10F11555   1.291   4.383   9.519 -1.1401 -0.0336  0.1071
  111OSM   H10F11556   1.293   4.488   9.488 -0.9524 -0.5940 -1.9999
  111OSM   C11F11557   1.311   4.287   9.408  0.3236  0.2003 -0.3579
  111OSM   H11F11558   1.262   4.188   9.416  1.2702 -0.2708 -0.3298
  111OSM   H11G11559   1.420   4.267   9.401  0.5122  1.3662 -1.1370
  111OSM   C12F11560   1.259   4.351   9.270  0.5435  0.2991  0.1433
  111OSM   H12F11561   1.157   4.392   9.280 -0.2310 -1.2819 -0.8445
  111OSM   H12G11562   1.262   4.264   9.201 -2.5294 -2.0183  2.6166
  111OSM   C13F11563   1.356   4.461   9.205  0.5519  0.2781  0.0289
  111OSM   H13F11564   1.458   4.429   9.234  0.3574 -0.9353 -0.5246
  111OSM   H13G11565   1.323   4.563   9.234 -2.1827  0.2124 -2.3571
  111OSM   C14F11566   1.373   4.455   9.046  0.1577 -0.1806  0.8271
  111OSM   H14F11567   1.392   4.349   9.018  1.0531  0.1273  0.2096
  111OSM   H14G11568   1.460   4.519   9.020  1.6529 -2.5938 -0.5278
  111OSM   C15F11569   1.257   4.524   8.977 -0.0801  0.3184  0.6908
  111OSM   H15F11570   1.235   4.617   9.033 -0.7831  0.4351  0.2391
  111OSM   H15G11571   1.165   4.464   8.996  1.4147 -1.6001  2.3582
  111OSM   C16F11572   1.280   4.557   8.829 -0.2242  0.3913 -0.6715
  111OSM   H16F11573   1.382   4.600   8.819  0.4149 -0.8649  0.2196
  111OSM   H16G11574   1.202   4.619   8.781 -0.5496 -1.2515 -2.3591
  111OSM   C17F11575   1.274   4.431   8.738 -0.0167  0.5250 -0.0238
  111OSM   H17F11576   1.169   4.395   8.741 -0.1245  0.7438 -1.0389
  111OSM   H17G11577   1.333   4.345   8.775 -2.2279 -1.5480 -1.0284
  111OSM   C18F11578   1.303   4.470   8.600  0.4041  0.0792  0.2509
  111OSM   H18F11579   1.261   4.569   8.571 -0.8296 -0.4653  0.0913
  111OSM   H18G11580   1.255   4.403   8.524  2.1261  1.1568 -1.8871
  111OSM   H18H11581   1.408   4.476   8.566 -0.6245  1.2878 -3.2101
  112OSM      N11582   2.325   1.542  11.301  0.5071 -0.0052  0.0261
  112OSM    C1511583   2.211   1.481  11.228  0.6936  0.2766  0.7036
  112OSM   H15A11584   2.139   1.560  11.211 -0.8683 -1.1760  0.3257
  112OSM   H15B11585   2.168   1.407  11.295  0.3530  0.1837  0.3852
  112OSM   H15C11586   2.233   1.443  11.130 -0.5092 -0.2226  0.6040
  112OSM    C1411587   2.271   1.607  11.422  0.6990  0.6847 -0.2090
  112OSM   H14A11588   2.207   1.543  11.482  1.7001  1.2721  1.5590
  112OSM   H14B11589   2.216   1.698  11.403  0.6355  0.6839 -0.0399
  112OSM   H14C11590   2.362   1.633  11.473  2.0930 -1.6806 -1.3214
  112OSM    C1311591   2.420   1.436  11.338 -0.4224  0.1054 -0.2366
  112OSM   H13A11592   2.374   1.356  11.394  0.0232 -1.0915 -1.5181
  112OSM   H13B11593   2.502   1.469  11.400  0.8149 -1.0615 -1.1849
  112OSM   H13C11594   2.467   1.385  11.254  2.5504 -1.1847  2.0121
  112OSM    C1211595   2.389   1.645  11.209 -0.6006  0.1345  0.1647
  112OSM   H12A11596   2.463   1.697  11.268  1.8755 -0.3181 -2.3467
  112OSM   H12B11597   2.304   1.707  11.187  0.4230  1.2878 -0.7066
  112OSM    C1111598   2.447   1.617  11.070 -0.1522  0.5986 -1.0279
  112OSM   H11A11599   2.472   1.719  11.033  1.8757 -0.2816 -2.2726
  112OSM   H11B11600   2.365   1.570  11.013 -0.1568  1.0242 -1.3755
  112OSM      P11601   2.607   1.447  10.950 -0.0575 -0.0749  0.5450
  112OSM    O1311602   2.751   1.415  10.960  0.3403  0.1294  0.0457
  112OSM    O1411603   2.515   1.332  10.941  0.2769  0.1760  0.1113
  112OSM    O1111604   2.581   1.542  10.826  0.0317 -0.1142  0.7194
  112OSM    O1211605   2.564   1.538  11.070 -0.2115  0.6851 -0.1418
  112OSM    C1S11606   2.581   1.475  10.689 -0.4423 -0.5079  0.1625
  112OSM    H1S11607   2.615   1.369  10.691  2.1952  0.2493  1.7729
  112OSM    H1T11608   2.663   1.531  10.641 -0.6588 -0.3419 -0.0110
  112OSM     NF11609   2.471   1.433  10.477  1.0743 -0.3547 -0.3603
  112OSM    HNF11610   2.517   1.472  10.398 -1.2568 -1.4931 -2.4140
  112OSM    C2S11611   2.457   1.501  10.610  0.7603 -0.2614 -0.6226
  112OSM    H2S11612   2.368   1.461  10.664 -0.8099  3.7861  0.1384
  112OSM    C3S11613   2.431   1.658  10.606  0.3568 -0.3170  0.3055
  112OSM    H3S11614   2.530   1.704  10.581  0.4626  0.6694  2.3787
  112OSM     O311615   2.399   1.717  10.735  0.1758 -0.2153 -0.5114
  112OSM    HO311616   2.400   1.639  10.792 -1.8663  0.7018  0.8704
  112OSM    C4S11617   2.326   1.694  10.504 -0.3466  0.1117 -0.7007
  112OSM    H4S11618   2.226   1.651  10.520 -0.5682  0.9273  0.1853
  112OSM    C5S11619   2.337   1.776  10.402  0.8152  0.0146 -0.0393
  112OSM    H5S11620   2.429   1.828  10.370 -0.1603  1.1602 -1.0973
  112OSM    C6S11621   2.218   1.813  10.312  0.2188 -0.0599  0.3545
  112OSM    H6S11622   2.235   1.914  10.269 -0.8206  0.5047  1.2097
  112OSM    H6T11623   2.115   1.816  10.355 -1.2297 -1.8219 -2.6374
  112OSM    C7S11624   2.223   1.725  10.190  0.5014 -1.1499  0.4623
  112OSM    H7S11625   2.238   1.618  10.215 -0.9126 -1.2528  0.9309
  112OSM    H7T11626   2.307   1.755  10.123  0.8389  0.3303  1.4901
  112OSM    C8S11627   2.091   1.722  10.110  0.0947 -0.6687 -0.1400
  112OSM    H8S11628   2.084   1.821  10.060 -1.1520 -1.2291 -1.1206
  112OSM    H8T11629   2.012   1.703  10.185 -0.5439  0.5376 -0.4822
  112OSM    C9S11630   2.086   1.611  10.005 -0.1215  0.4743  0.2430
  112OSM    H9S11631   1.984   1.624   9.963 -0.5606  1.0612  1.4282
  112OSM    H9T11632   2.091   1.513  10.058  0.0668  1.3288  1.8804
  112OSM   C10S11633   2.179   1.620   9.885  0.2806  0.3526 -0.2552
  112OSM   H10S11634   2.176   1.518   9.840 -3.2566  1.5212 -3.1267
  112OSM   H10T11635   2.279   1.646   9.924  0.6889  0.1985 -1.1661
  112OSM   C11S11636   2.138   1.721   9.771  0.2864 -0.3595 -0.8734
  112OSM   H11S11637   2.102   1.815   9.819 -1.8391 -1.0680 -0.9771
  112OSM   H11T11638   2.055   1.691   9.704  0.4970  1.9376 -2.2771
  112OSM   C12S11639   2.261   1.760   9.683  0.2848  0.8383  0.5521
  112OSM   H12S11640   2.350   1.752   9.749  1.3397  0.6504 -0.8314
  112OSM   H12T11641   2.253   1.862   9.641 -0.2131  0.2880 -0.7383
  112OSM   C13S11642   2.291   1.664   9.568  0.5553 -0.1347  0.1008
  112OSM   H13S11643   2.234   1.673   9.473  0.2240 -3.4361 -0.1472
  112OSM   H13T11644   2.261   1.564   9.607  1.1049  0.0325  0.9748
  112OSM   C14S11645   2.441   1.664   9.536 -0.2517  0.1461 -0.4728
  112OSM   H14S11646   2.450   1.601   9.444 -0.8394 -1.6652  0.6601
  112OSM   H14T11647   2.500   1.615   9.617  0.2189  1.7603  0.1971
  112OSM   C15S11648   2.497   1.802   9.519 -0.0684 -0.3132  0.3773
  112OSM   H15S11649   2.602   1.778   9.491 -0.7948 -0.7917 -2.2025
  112OSM   H15T11650   2.488   1.863   9.611 -1.0631  0.6840 -0.3521
  112OSM   C16S11651   2.445   1.875   9.391 -0.0734 -0.8641 -0.4347
  112OSM   H16S11652   2.338   1.903   9.402  0.5756  1.0531  2.0612
  112OSM   H16T11653   2.454   1.812   9.300  0.9864 -0.1962 -0.8101
  112OSM   C17S11654   2.533   2.000   9.359 -0.2834  0.4467  0.2351
  112OSM   H17S11655   2.639   1.969   9.370  0.1191  2.2905  2.5116
  112OSM   H17T11656   2.528   2.074   9.442  0.1778 -2.1023  2.6699
  112OSM   C18S11657   2.524   2.053   9.216 -0.7191  0.2629  0.2458
  112OSM   H18S11658   2.420   2.090   9.205 -1.7019 -2.0772  1.0429
  112OSM   H18T11659   2.535   1.971   9.141 -0.9573  0.8530 -0.4416
  112OSM   H18U11660   2.592   2.136   9.188 -2.4444  1.3894 -0.7316
  112OSM    C1F11661   2.445   1.306  10.472  0.0755  0.0625  0.0768
  112OSM     OF11662   2.428   1.236  10.573 -0.4644 -0.4154 -0.5943
  112OSM    C2F11663   2.444   1.242  10.336  0.1810 -0.3172 -0.7885
  112OSM    H2F11664   2.481   1.137  10.335 -1.8145 -1.0728 -2.7523
  112OSM    H2G11665   2.505   1.299  10.263 -1.1860  1.0246 -0.9121
  112OSM    C3F11666   2.302   1.255  10.280  0.2940  0.3987 -0.5447
  112OSM    H3F11667   2.266   1.359  10.294 -0.7513 -0.0527  0.1715
  112OSM    H3G11668   2.246   1.184  10.343  0.4814 -0.3176 -1.1603
  112OSM    C4F11669   2.282   1.202  10.138 -0.0659 -0.1649 -0.2281
  112OSM    H4F11670   2.176   1.213  10.108 -0.1003  1.8610  0.5053
  112OSM    H4G11671   2.315   1.096  10.139 -0.3298 -0.2709 -1.1958
  112OSM    C5F11672   2.362   1.296  10.044  0.0489 -0.0480 -0.2926
  112OSM    H5F11673   2.469   1.276  10.065  0.1706 -1.7635 -2.2000
  112OSM    H5G11674   2.340   1.404  10.049  2.4472  0.4972 -0.3674
  112OSM    C6F11675   2.334   1.259   9.900  0.3749 -0.0366 -0.0119
  112OSM    H6F11676   2.238   1.292   9.857  1.4233 -0.3502 -2.8608
  112OSM    H6G11677   2.324   1.149   9.889  0.2447 -0.1172  0.8477
  112OSM    C7F11678   2.455   1.297   9.804  0.4671 -0.4163  0.4043
  112OSM    H7F11679   2.553   1.264   9.845  1.3691 -0.5902 -1.7783
  112OSM    H7G11680   2.450   1.407   9.819 -1.2646 -0.7210  2.7786
  112OSM    C8F11681   2.439   1.269   9.654 -0.4678  0.1321 -0.2446
  112OSM    H8F11682   2.338   1.304   9.625 -0.4169 -0.4180 -1.1202
  112OSM    H8G11683   2.427   1.159   9.641 -0.6360  0.2478 -1.1306
  112OSM    C9F11684   2.547   1.317   9.557 -0.2808 -0.1005 -0.0205
  112OSM    H9F11685   2.636   1.363   9.602  1.8748 -3.2703 -0.7605
  112OSM   C10F11686   2.549   1.299   9.422 -0.3523  1.1053 -0.3849
  112OSM   H10F11687   2.634   1.351   9.377  0.0074 -0.6106 -1.8113
  112OSM   C11F11688   2.455   1.229   9.332  0.2672  0.0369 -0.0454
  112OSM   H11F11689   2.365   1.199   9.391 -0.4187  0.8982 -0.6315
  112OSM   H11G11690   2.504   1.142   9.284  0.4440  0.8536 -1.3819
  112OSM   C12F11691   2.392   1.323   9.221 -0.0541 -0.5887 -0.2800
  112OSM   H12F11692   2.327   1.395   9.277  0.7472 -0.1650  0.1231
  112OSM   H12G11693   2.323   1.259   9.162 -0.4016  0.4788 -1.0593
  112OSM   C13F11694   2.498   1.384   9.124  0.1396  0.5446 -0.3812
  112OSM   H13F11695   2.552   1.300   9.075 -1.1579 -0.3824 -0.2611
  112OSM   H13G11696   2.566   1.441   9.190 -0.9348  0.4152  0.8703
  112OSM   C14F11697   2.433   1.464   9.011 -0.0668 -0.7811 -0.0189
  112OSM   H14F11698   2.386   1.388   8.945  1.3165  0.1439 -2.1852
  112OSM   H14G11699   2.520   1.508   8.957  2.2896  0.9110  4.5998
  112OSM   C15F11700   2.329   1.568   9.060  0.5191 -0.5664  0.4369
  112OSM   H15F11701   2.381   1.643   9.125 -0.3895 -1.1405  1.8810
  112OSM   H15G11702   2.256   1.507   9.118  0.8564 -0.3089  1.1561
  112OSM   C16F11703   2.259   1.646   8.943 -0.5209 -0.3211  0.3902
  112OSM   H16F11704   2.173   1.585   8.909 -1.8878  0.5368  2.0995
  112OSM   H16G11705   2.335   1.651   8.863 -1.3082 -1.0077 -0.4234
  112OSM   C17F11706   2.214   1.785   8.969  0.5686 -0.9406  0.3915
  112OSM   H17F11707   2.136   1.821   8.898  0.5392  0.0430  0.9000
  112OSM   H17G11708   2.300   1.851   8.947  0.0101 -0.9181 -1.9539
  112OSM   C18F11709   2.158   1.797   9.113  0.5438 -0.3753  0.0817
  112OSM   H18F11710   2.121   1.898   9.138  0.6335 -0.5883  1.1562
  112OSM   H18G11711   2.248   1.788   9.177  1.7990  0.3879 -1.5089
  112OSM   H18H11712   2.079   1.727   9.147 -0.3434 -0.1670 -1.4633
  113OSM      N11713   6.261   6.347  11.245  0.5693 -0.0445 -0.0339
  113OSM    C1511714   6.171   6.395  11.353  0.0748 -0.1948 -0.5258
  113OSM   H15A11715   6.120   6.312  11.399  1.6779 -0.9611 -0.0262
  113OSM   H15B11716   6.100   6.472  11.328 -1.0466 -1.1274 -0.2570
  113OSM   H15C11717   6.229   6.441  11.433  0.7372 -0.2613 -0.9609
  113OSM    C1411718   6.336   6.462  11.196 -0.2626  0.3198  0.1561
  113OSM   H14A11719   6.401   6.426  11.117  0.6100  0.4181  0.8113
  113OSM   H14B11720   6.409   6.502  11.265  1.3739 -3.2059  0.7084
  113OSM   H14C11721   6.282   6.541  11.147 -0.1300 -1.4409 -3.0734
  113OSM    C1311722   6.365   6.256  11.299 -0.7578  0.5300 -0.3696
  113OSM   H13A11723   6.428   6.302  11.375  1.0328 -0.3715 -1.2395
  113OSM   H13B11724   6.441   6.232  11.227 -0.0188  2.0186 -0.1402
  113OSM   H13C11725   6.325   6.162  11.334 -0.5125  0.3097 -0.6755
  113OSM    C1211726   6.190   6.285  11.131  0.7814  0.6521  0.3326
  113OSM   H12A11727   6.259   6.268  11.049 -1.3665 -1.8630 -1.1224
  113OSM   H12B11728   6.110   6.351  11.100 -1.1191 -1.9302 -0.6064
  113OSM    C1111729   6.125   6.144  11.155  0.5694  0.2230 -0.0927
  113OSM   H11A11730   6.055   6.124  11.071  1.3178 -2.5702 -0.1684
  113OSM   H11B11731   6.057   6.147  11.243  1.1246  2.1396  0.3050
  113OSM      P11732   6.311   6.005  11.039 -0.0954  0.2734 -0.1097
  113OSM    O1311733   6.406   6.121  11.031  0.0007 -0.1200  0.1360
  113OSM    O1411734   6.372   5.873  11.055  0.6118  0.7532  0.0389
  113OSM    O1111735   6.229   6.005  10.908  0.4762  0.1340  0.5964
  113OSM    O1211736   6.214   6.029  11.158 -0.1303  0.1950 -0.8033
  113OSM    C1S11737   6.121   5.914  10.890 -0.2258 -0.6450 -0.8825
  113OSM    H1S11738   6.039   5.939  10.961  1.5285  1.0893  0.6757
  113OSM    H1T11739   6.153   5.809  10.908  0.7524 -0.0745  0.9666
  113OSM     NF11740   5.950   5.840  10.727 -0.4301  0.3476  0.1640
  113OSM    HNF11741   5.970   5.755  10.680 -1.0385  0.7302 -0.8243
  113OSM    C2S11742   6.072   5.927  10.742  0.2160 -0.0179 -0.0082
  113OSM    H2S11743   6.041   6.031  10.719  0.0148 -0.5323 -2.3933
  113OSM    C3S11744   6.193   5.893  10.642 -0.4626  0.7161 -0.3636
  113OSM    H3S11745   6.219   5.790  10.674 -1.6102 -0.0625 -1.8162
  113OSM     O311746   6.306   5.981  10.656 -0.5284 -0.1972  0.7347
  113OSM    HO311747   6.293   6.032  10.737 -0.6977  2.5653 -0.8843
  113OSM    C4S11748   6.149   5.892  10.502 -0.2791  0.1253 -0.9216
  113OSM    H4S11749   6.107   5.796  10.468  0.2604 -0.4632  0.0317
  113OSM    C5S11750   6.149   5.993  10.411  0.4281 -0.6698  0.0697
  113OSM    H5S11751   6.189   6.090  10.444 -2.1093  0.0010  1.4743
  113OSM    C6S11752   6.099   5.979  10.267  0.1885  0.4606  0.3002
  113OSM    H6S11753   6.016   6.048  10.241 -2.0751 -2.1415  0.1851
  113OSM    H6T11754   6.057   5.879  10.246 -0.9094  0.8147  0.7201
  113OSM    C7S11755   6.214   6.012  10.163 -0.0912 -0.3741  0.0315
  113OSM    H7S11756   6.299   5.942  10.179  1.4049  0.6800 -2.6985
  113OSM    H7T11757   6.250   6.115  10.183 -2.5494  0.9719 -1.7857
  113OSM    C8S11758   6.163   6.018  10.020  0.4871  0.4096  0.1964
  113OSM    H8S11759   6.082   6.094  10.014  2.9798  3.1349 -3.5109
  113OSM    H8T11760   6.116   5.918  10.005  1.3727  0.1116 -0.7360
  113OSM    C9S11761   6.273   6.061   9.929 -0.0579  0.5581 -0.1905
  113OSM    H9S11762   6.350   5.981   9.930 -2.3748 -1.8604  1.9157
  113OSM    H9T11763   6.316   6.160   9.955 -2.2707  1.9565 -1.5633
  113OSM   C10S11764   6.217   6.074   9.789  0.8891 -0.2384  1.8175
  113OSM   H10S11765   6.145   6.158   9.778  1.4647  0.2001  1.3687
  113OSM   H10T11766   6.158   5.980   9.777 -1.5130  1.2659  1.1067
  113OSM   C11S11767   6.334   6.085   9.691 -0.4336  0.4141 -0.7588
  113OSM   H11S11768   6.384   5.987   9.679 -1.3278  0.0045 -1.2288
  113OSM   H11T11769   6.398   6.164   9.736 -0.6299  0.4299 -0.5055
  113OSM   C12S11770   6.284   6.136   9.552  0.4105  0.3018  0.3500
  113OSM   H12S11771   6.217   6.058   9.507  2.5763 -0.8903 -0.9910
  113OSM   H12T11772   6.373   6.132   9.485  0.8601 -1.3938  0.9868
  113OSM   C13S11773   6.230   6.275   9.553  0.7481 -0.6652  0.1734
  113OSM   H13S11774   6.280   6.328   9.637  0.9720 -1.3625  0.4881
  113OSM   H13T11775   6.123   6.294   9.578  1.1127  1.8026  0.1704
  113OSM   C14S11776   6.277   6.366   9.432 -0.2520  0.2822 -0.0469
  113OSM   H14S11777   6.384   6.388   9.451 -0.0021 -1.0978  0.2740
  113OSM   H14T11778   6.225   6.464   9.443 -0.9907 -0.1319  0.2713
  113OSM   C15S11779   6.238   6.307   9.297  0.4710 -0.1275  0.2995
  113OSM   H15S11780   6.128   6.292   9.305  0.0218  2.7907  0.4766
  113OSM   H15T11781   6.283   6.208   9.273 -1.0711 -0.4931 -1.3418
  113OSM   C16S11782   6.251   6.404   9.181  0.5748  0.3912  0.3723
  113OSM   H16S11783   6.348   6.455   9.163  0.3168 -0.0056 -2.7222
  113OSM   H16T11784   6.179   6.485   9.206 -0.9829 -1.2791  1.5193
  113OSM   C17S11785   6.205   6.339   9.049  0.3071 -0.6309 -0.0234
  113OSM   H17S11786   6.131   6.260   9.074  1.8852 -1.3539  2.9336
  113OSM   H17T11787   6.295   6.279   9.024  2.4755  1.8057  1.3834
  113OSM   C18S11788   6.159   6.437   8.941 -0.8221  0.4121 -0.1438
  113OSM   H18S11789   6.206   6.538   8.938  0.8220 -0.3349 -1.2878
  113OSM   H18T11790   6.053   6.462   8.962 -1.1887 -0.3364 -1.0555
  113OSM   H18U11791   6.155   6.394   8.839 -1.5948  0.5068 -0.1538
  113OSM    C1F11792   5.835   5.872  10.784 -0.3498  0.0008 -0.0791
  113OSM     OF11793   5.810   5.985  10.826  0.2284 -0.8043  0.7491
  113OSM    C2F11794   5.729   5.765  10.776 -0.2622 -0.5977 -0.2597
  113OSM    H2F11795   5.736   5.719  10.877  0.5116  0.3237  0.1340
  113OSM    H2G11796   5.743   5.675  10.714 -0.3985 -0.5659 -0.3352
  113OSM    C3F11797   5.582   5.818  10.753 -1.2523  0.1846  0.5222
  113OSM    H3F11798   5.546   5.898  10.822 -1.7767  1.7454 -1.4475
  113OSM    H3G11799   5.518   5.728  10.763 -1.2363 -0.2354 -2.2651
  113OSM    C4F11800   5.562   5.872  10.611  0.1189  0.2815  0.6224
  113OSM    H4F11801   5.572   5.779  10.551  1.9229  1.3041 -0.7642
  113OSM    H4G11802   5.639   5.945  10.579  0.4612 -1.6885 -3.7788
  113OSM    C5F11803   5.423   5.932  10.595  1.0183 -0.2874 -0.0464
  113OSM    H5F11804   5.409   6.034  10.636 -0.8236 -0.1683 -0.8705
  113OSM    H5G11805   5.364   5.871  10.667  2.8667 -0.0252  1.7870
  113OSM    C6F11806   5.367   5.941  10.455 -0.5800  0.6295 -0.2260
  113OSM    H6F11807   5.372   5.840  10.409 -0.4544 -0.4722  2.0515
  113OSM    H6G11808   5.432   6.007  10.395  2.4306 -1.1195  0.8930
  113OSM    C7F11809   5.219   5.991  10.463 -0.8807  0.5887  0.2766
  113OSM    H7F11810   5.193   6.062  10.545 -2.4959 -2.1050  2.2812
  113OSM    H7G11811   5.178   5.900  10.512 -1.6005 -0.8876 -2.8423
  113OSM    C8F11812   5.159   6.023  10.325  0.1817  0.1990  0.6599
  113OSM    H8F11813   5.048   6.025  10.335  0.0359 -2.4917  0.2038
  113OSM    H8G11814   5.178   5.950  10.244  0.1984  1.2128 -0.2878
  113OSM    C9F11815   5.211   6.160  10.284 -0.6274  0.1604  0.0779
  113OSM    H9F11816   5.236   6.233  10.362  0.1464 -1.3101  1.2438
  113OSM   C10F11817   5.216   6.205  10.157  0.3840 -0.6032  0.6976
  113OSM   H10F11818   5.268   6.300  10.137  1.3168 -1.3607 -0.6690
  113OSM   C11F11819   5.165   6.137  10.035 -0.4304 -0.4018  0.3910
  113OSM   H11F11820   5.057   6.115  10.053 -1.6786  1.6265 -3.4711
  113OSM   H11G11821   5.200   6.033  10.020 -0.8771 -0.4679 -0.2514
  113OSM   C12F11822   5.171   6.199   9.893 -0.3889 -0.3130 -0.1195
  113OSM   H12F11823   5.278   6.226   9.878  0.1471 -1.7304  0.9478
  113OSM   H12G11824   5.100   6.284   9.893  0.2959  0.3226  2.3776
  113OSM   C13F11825   5.128   6.106   9.783 -0.3927  0.1364  1.0276
  113OSM   H13F11826   5.022   6.084   9.808 -1.5304  3.7375 -0.0464
  113OSM   H13G11827   5.191   6.014   9.788  1.2509  1.2020  0.5617
  113OSM   C14F11828   5.138   6.159   9.636  0.5414  0.8158  1.3626
  113OSM   H14F11829   5.076   6.251   9.633 -1.2279 -0.3583 -0.0275
  113OSM   H14G11830   5.092   6.095   9.557 -1.7862  4.5354 -0.5446
  113OSM   C15F11831   5.276   6.198   9.570  0.9447  0.5191 -0.3915
  113OSM   H15F11832   5.330   6.273   9.632 -0.1325  1.2606 -0.3170
  113OSM   H15G11833   5.241   6.236   9.471 -1.0200  0.9683  0.4179
  113OSM   C16F11834   5.380   6.090   9.533  0.1132 -0.2396  0.3717
  113OSM   H16F11835   5.407   6.058   9.636  0.1896  1.1570  0.8031
  113OSM   H16G11836   5.464   6.139   9.479  0.6074 -1.2512  0.2149
  113OSM   C17F11837   5.325   5.976   9.450 -0.5183 -0.1795 -1.1219
  113OSM   H17F11838   5.220   5.962   9.486 -0.5300  1.1876 -0.5636
  113OSM   H17G11839   5.389   5.890   9.477 -0.0290  0.9650  1.6471
  113OSM   C18F11840   5.339   6.000   9.304  0.0899  0.2584  0.0656
  113OSM   H18F11841   5.285   5.917   9.255  1.8163 -1.0112  0.2354
  113OSM   H18G11842   5.446   5.994   9.276 -0.4597 -2.9764 -1.8147
  113OSM   H18H11843   5.290   6.098   9.284 -0.0845  0.2451  0.4107
  114OSM      N11844   0.383   2.405  11.054  0.6809 -0.0926  0.3515
  114OSM    C1511845   0.239   2.459  11.030  0.0477  0.6006 -0.0041
  114OSM   H15A11846   0.184   2.376  10.990  0.9873 -0.7995  1.4870
  114OSM   H15B11847   0.253   2.536  10.955 -2.7709  0.3306 -0.9331
  114OSM   H15C11848   0.190   2.494  11.119  2.6333  1.5471  1.1722
  114OSM    C1411849   0.464   2.503  11.129 -0.0681 -0.1568 -0.0826
  114OSM   H14A11850   0.570   2.486  11.124 -0.2511 -1.1146 -0.8510
  114OSM   H14B11851   0.427   2.514  11.229 -0.1259  0.0377 -0.1247
  114OSM   H14C11852   0.445   2.598  11.079 -2.6415 -2.1700 -3.3578
  114OSM    C1311853   0.380   2.279  11.140  0.1518 -0.2565 -0.2075
  114OSM   H13A11854   0.476   2.230  11.143  0.0496 -0.4100  1.5583
  114OSM   H13B11855   0.312   2.205  11.100 -0.3285 -1.0164  1.8843
  114OSM   H13C11856   0.348   2.300  11.241 -0.2144  4.1080 -1.0282
  114OSM    C1211857   0.447   2.384  10.919 -0.4681  0.3444  0.1877
  114OSM   H12A11858   0.432   2.477  10.867  0.1706  0.3259 -0.0353
  114OSM   H12B11859   0.387   2.312  10.865  0.6478 -0.6608  0.2369
  114OSM    C1111860   0.595   2.336  10.905 -0.6557  0.1314 -0.2414
  114OSM   H11A11861   0.619   2.303  10.802 -1.9983  1.6192 -1.0775
  114OSM   H11B11862   0.587   2.240  10.960  1.4080  0.5528  0.9165
  114OSM      P11863   0.823   2.363  11.033 -0.1681 -0.0297  0.0604
  114OSM    O1311864   0.922   2.473  11.051  0.2040  0.1266 -0.2790
  114OSM    O1411865   0.787   2.291  11.152  0.7662 -0.3614  0.0391
  114OSM    O1111866   0.884   2.260  10.927  0.3236  0.0564 -0.1735
  114OSM    O1211867   0.696   2.422  10.954 -0.6082 -0.1302 -0.1061
  114OSM    C1S11868   0.928   2.307  10.804 -0.1896 -0.5309  1.4425
  114OSM    H1S11869   0.882   2.406  10.783 -1.2626 -0.7956  2.4167
  114OSM    H1T11870   0.895   2.237  10.723 -0.4961 -0.0084  1.1074
  114OSM     NF11871   1.114   2.376  10.648  0.5744  0.3062 -0.2573
  114OSM    HNF11872   1.140   2.309  10.578 -0.0510 -0.1961 -0.0098
  114OSM    C2S11873   1.082   2.314  10.785 -0.8153  0.2671 -0.4850
  114OSM    H2S11874   1.125   2.380  10.863  0.3510 -1.1733  0.1275
  114OSM    C3S11875   1.144   2.173  10.814 -0.5861  0.6510  0.0532
  114OSM    H3S11876   1.084   2.098  10.757 -2.0550  2.5009 -0.9375
  114OSM     O311877   1.140   2.130  10.951 -0.2877 -0.4250 -0.1170
  114OSM    HO311878   1.092   2.200  10.997  0.1326 -0.0228 -0.2730
  114OSM    C4S11879   1.289   2.170  10.761  0.7407 -0.3408 -0.4026
  114OSM    H4S11880   1.305   2.115  10.667 -1.4813 -0.5546 -0.7187
  114OSM    C5S11881   1.389   2.238  10.826  0.0905  0.5511 -0.0385
  114OSM    H5S11882   1.368   2.300  10.915  0.3504 -0.8033  0.9996
  114OSM    C6S11883   1.534   2.236  10.775 -0.1248  0.1700  0.6769
  114OSM    H6S11884   1.609   2.187  10.841  1.3991  2.5604  0.8449
  114OSM    H6T11885   1.564   2.343  10.773  1.0902 -0.1591  0.9417
  114OSM    C7S11886   1.557   2.180  10.630  0.8581  0.2559  0.4851
  114OSM    H7S11887   1.499   2.085  10.621 -0.1495  0.7720  1.2023
  114OSM    H7T11888   1.664   2.152  10.620  0.2940 -1.1463 -2.8191
  114OSM    C8S11889   1.526   2.281  10.517 -0.2604  0.1887  0.2017
  114OSM    H8S11890   1.609   2.355  10.506  1.2908 -1.2531  1.5264
  114OSM    H8T11891   1.429   2.331  10.537 -0.4479 -0.4476  0.9129
  114OSM    C9S11892   1.497   2.205  10.380 -0.6566  0.2253 -0.8153
  114OSM    H9S11893   1.420   2.128  10.399 -1.5791  1.6475  1.7047
  114OSM    H9T11894   1.595   2.159  10.354  1.2295  2.7239  1.2319
  114OSM   C10S11895   1.441   2.299  10.270 -0.0200  0.1447  0.2149
  114OSM   H10S11896   1.506   2.389  10.277  0.1712 -0.1032  2.1598
  114OSM   H10T11897   1.336   2.326  10.292 -0.1263  0.6061 -0.7757
  114OSM   C11S11898   1.461   2.231  10.125  0.1539 -0.5158 -0.8310
  114OSM   H11S11899   1.405   2.136  10.110 -0.3885 -0.5118  0.9748
  114OSM   H11T11900   1.567   2.199  10.126  0.5403  0.7553 -0.2697
  114OSM   C12S11901   1.433   2.334  10.014  0.4813  0.9777 -0.1639
  114OSM   H12S11902   1.496   2.424  10.034  2.4775 -0.1199 -1.2475
  114OSM   H12T11903   1.325   2.357  10.002  0.8161  1.2556 -3.5589
  114OSM   C13S11904   1.481   2.284   9.878  0.0769  0.5501  0.2399
  114OSM   H13S11905   1.467   2.174   9.871 -2.2383  0.7162  1.1177
  114OSM   H13T11906   1.590   2.305   9.879  0.2899 -0.3607 -1.1289
  114OSM   C14S11907   1.413   2.346   9.754  0.7420 -0.2879 -0.6800
  114OSM   H14S11908   1.404   2.457   9.762 -0.6924 -0.4150 -0.0718
  114OSM   H14T11909   1.310   2.310   9.733 -0.2058  2.6744 -1.6750
  114OSM   C15S11910   1.473   2.298   9.632 -0.0852  0.4802  0.2895
  114OSM   H15S11911   1.480   2.187   9.631 -1.8940  0.3183  1.1062
  114OSM   H15T11912   1.580   2.328   9.625  0.1161 -0.0060  1.0665
  114OSM   C16S11913   1.402   2.357   9.508 -0.0746  0.3393  0.0318
  114OSM   H16S11914   1.419   2.467   9.500 -2.0132  0.7396  0.7243
  114OSM   H16T11915   1.294   2.332   9.522  0.0671  0.1018  0.7744
  114OSM   C17S11916   1.456   2.302   9.375 -0.3740  0.0377  0.5075
  114OSM   H17S11917   1.401   2.349   9.291  0.3359 -1.4310 -0.8171
  114OSM   H17T11918   1.445   2.192   9.370  2.9695 -0.3537 -2.1395
  114OSM   C18S11919   1.610   2.344   9.341 -0.3072  0.3721  0.2639
  114OSM   H18S11920   1.677   2.294   9.414  1.6126  1.7487 -0.4736
  114OSM   H18T11921   1.620   2.454   9.351 -2.8103  0.9984 -2.5687
  114OSM   H18U11922   1.641   2.313   9.239 -0.7913  0.1662  0.1772
  114OSM    C1F11923   1.085   2.498  10.608 -0.6170  0.0662 -0.0186
  114OSM     OF11924   1.030   2.583  10.668  0.4286 -0.0505  0.1864
  114OSM    C2F11925   1.128   2.529  10.472 -0.7216  0.4280 -0.0491
  114OSM    H2F11926   1.052   2.603  10.439 -1.3737  0.4990  1.5448
  114OSM    H2G11927   1.118   2.436  10.413  1.7771 -0.7396  1.2414
  114OSM    C3F11928   1.269   2.596  10.447 -0.0475 -0.1356  0.1503
  114OSM    H3F11929   1.355   2.531  10.476 -1.3858 -1.7835  0.5941
  114OSM    H3G11930   1.269   2.694  10.499 -2.4764  0.2240 -0.3931
  114OSM    C4F11931   1.282   2.606  10.297 -0.2101 -0.1185 -0.3619
  114OSM    H4F11932   1.228   2.519  10.255 -2.2936 -0.2807  2.3806
  114OSM    H4G11933   1.389   2.607  10.267 -0.6444 -3.2078 -2.4330
  114OSM    C5F11934   1.218   2.737  10.240 -0.3491  0.8467  0.1791
  114OSM    H5F11935   1.266   2.816  10.301  1.6319 -0.6496  0.6277
  114OSM    H5G11936   1.108   2.726  10.247 -0.1405 -0.6124  1.7404
  114OSM    C6F11937   1.259   2.771  10.091 -1.2275 -0.5003  0.1645
  114OSM    H6F11938   1.369   2.759  10.086 -1.2523 -1.1948  1.0304
  114OSM    H6G11939   1.232   2.872  10.052  0.4230 -1.0997 -2.7475
  114OSM    C7F11940   1.197   2.673   9.991 -0.0437  1.0084 -0.2222
  114OSM    H7F11941   1.087   2.692   9.990 -0.2971 -0.4105 -0.3048
  114OSM    H7G11942   1.214   2.571  10.030 -0.4358  1.0949  0.1886
  114OSM    C8F11943   1.262   2.681   9.856 -0.1082 -0.6577 -0.3834
  114OSM    H8F11944   1.229   2.589   9.802  0.8578 -1.0315 -0.3503
  114OSM    H8G11945   1.370   2.681   9.879 -0.3771 -0.9468  0.9710
  114OSM    C9F11946   1.227   2.807   9.785 -0.1815  0.1983 -0.1646
  114OSM    H9F11947   1.299   2.886   9.814  1.3718 -0.0607 -2.8950
  114OSM   C10F11948   1.137   2.820   9.690 -0.1995  0.0595 -0.0501
  114OSM   H10F11949   1.121   2.914   9.637 -0.1855 -0.2152 -0.5451
  114OSM   C11F11950   1.049   2.714   9.625  0.0371 -0.3000 -0.6755
  114OSM   H11F11951   0.944   2.739   9.649  1.0387  2.4082  1.5573
  114OSM   H11G11952   1.065   2.614   9.672  1.1017 -0.0822 -0.5368
  114OSM   C12F11953   1.068   2.713   9.478 -0.1672 -0.1556  0.3592
  114OSM   H12F11954   1.170   2.678   9.450  0.2914  1.2087  0.2893
  114OSM   H12G11955   1.044   2.812   9.434 -1.0549  0.5479  2.3361
  114OSM   C13F11956   0.981   2.618   9.398 -0.1367 -0.0987 -0.0005
  114OSM   H13F11957   0.877   2.641   9.432  0.3730 -0.3972  1.8548
  114OSM   H13G11958   1.008   2.516   9.434 -0.7643 -0.8092 -1.4312
  114OSM   C14F11959   1.002   2.645   9.254  0.2436  0.0594 -0.5182
  114OSM   H14F11960   1.099   2.613   9.210  0.2972 -1.4872  0.6535
  114OSM   H14G11961   0.978   2.752   9.237 -0.1574  0.0740  0.1305
  114OSM   C15F11962   0.893   2.571   9.167 -0.3321 -0.3491  0.0380
  114OSM   H15F11963   0.794   2.613   9.195 -0.2973 -0.9894  1.1796
  114OSM   H15G11964   0.890   2.463   9.192 -3.6183 -0.7262 -1.3974
  114OSM   C16F11965   0.915   2.568   9.017  0.1785 -0.3934  0.3002
  114OSM   H16F11966   0.961   2.663   8.981  0.4364 -0.8664 -0.6706
  114OSM   H16G11967   0.825   2.572   8.952  0.1960  0.0395  0.2993
  114OSM   C17F11968   1.005   2.466   8.953 -0.3884  0.5418 -0.0572
  114OSM   H17F11969   0.973   2.369   8.997 -1.0753  1.5030  1.6662
  114OSM   H17G11970   1.109   2.490   8.986 -0.1415  1.1019 -1.2040
  114OSM   C18F11971   0.994   2.465   8.795 -0.3074  0.2086 -0.6549
  114OSM   H18F11972   0.888   2.456   8.763 -1.4587 -1.0524  3.0031
  114OSM   H18G11973   1.044   2.374   8.758  1.2633  0.0738  1.5928
  114OSM   H18H11974   1.049   2.554   8.756  0.4185  0.4550  0.8598
  115OSM      N11975   3.803   0.583  11.170  0.3050  0.0764  0.1772
  115OSM    C1511976   3.762   0.579  11.314  0.3622 -0.0050 -0.3429
  115OSM   H15A11977   3.672   0.519  11.322  1.0683 -0.9783  0.5670
  115OSM   H15B11978   3.742   0.677  11.353 -0.3685  0.6283 -2.1773
  115OSM   H15C11979   3.839   0.536  11.376 -0.2512  0.3236  0.6736
  115OSM    C1411980   3.856   0.450  11.121  0.3871  0.8322  0.0029
  115OSM   H14A11981   3.868   0.434  11.015 -2.5465 -3.4906  0.0495
  115OSM   H14B11982   3.779   0.375  11.136  0.6482 -0.0541 -2.5836
  115OSM   H14C11983   3.952   0.433  11.166  1.2172  0.8849 -1.6674
  115OSM    C1311984   3.674   0.595  11.090 -0.4563 -0.5759  1.0720
  115OSM   H13A11985   3.691   0.596  10.983 -1.7076  0.4214  0.8549
  115OSM   H13B11986   3.633   0.693  11.106  1.0345  0.5365 -1.3061
  115OSM   H13C11987   3.603   0.515  11.108 -0.9704 -0.2907  0.3885
  115OSM    C1211988   3.899   0.696  11.134  0.1949  0.1038 -0.1438
  115OSM   H12A11989   3.985   0.686  11.199 -0.1647 -0.3940  0.2568
  115OSM   H12B11990   3.857   0.795  11.149 -0.5333  0.3077 -2.9196
  115OSM    C1111991   3.952   0.699  10.985  0.9030  0.4481  0.3315
  115OSM   H11A11992   3.865   0.728  10.923  2.4624  4.4860 -0.2506
  115OSM   H11B11993   3.981   0.598  10.947  0.2287 -0.1889  1.4539
  115OSM      P11994   4.026   0.948  10.956 -0.1924  0.0873  0.1060
  115OSM    O1311995   3.911   0.988  11.036 -0.2151 -0.4594  0.6102
  115OSM    O1411996   4.158   1.012  10.985 -0.0427 -0.1157  0.2323
  115OSM    O1111997   3.989   0.952  10.806  0.1227 -0.6491 -0.1367
  115OSM    O1211998   4.059   0.796  10.971 -0.1951 -0.5458  0.2840
  115OSM    C1S11999   4.086   0.922  10.705 -0.3307 -0.0415 -0.1191
  115OSM    H1S12000   4.186   0.902  10.748 -0.3945 -1.0953 -0.4318
  115OSM    H1T12001   4.091   1.008  10.635  0.8883  0.3779  0.4614
  115OSM     NF12002   4.147   0.777  10.523 -0.3989  0.0414  0.5089
  115OSM    HNF12003   4.132   0.818  10.434  2.9207 -0.5031 -0.4368
  115OSM    C2S12004   4.047   0.797  10.617  0.0385  0.2522  0.5730
  115OSM    H2S12005   4.031   0.717  10.693 -2.3081  0.0889  0.0059
  115OSM    C3S12006   3.902   0.823  10.555 -0.5567 -0.2864  0.6136
  115OSM    H3S12007   3.906   0.926  10.516  0.0849  1.0961  4.0020
  115OSM     O312008   3.804   0.817  10.658  0.3153 -0.0223 -0.3711
  115OSM    HO312009   3.847   0.875  10.721 -0.8388  0.1033  0.3303
  115OSM    C4S12010   3.873   0.733  10.435  0.3717 -0.6674 -0.9123
  115OSM    H4S12011   3.883   0.783  10.338 -2.2793  0.1284 -0.8245
  115OSM    C5S12012   3.822   0.613  10.430  0.7159  0.0518  0.5667
  115OSM    H5S12013   3.786   0.558  10.519 -0.0055 -1.7901 -0.7911
  115OSM    C6S12014   3.808   0.547  10.292  0.6930 -0.3115 -0.0915
  115OSM    H6S12015   3.766   0.613  10.213  3.0225 -0.4813 -1.5587
  115OSM    H6T12016   3.745   0.456  10.294  1.6175 -0.9990  2.7879
  115OSM    C7S12017   3.948   0.496  10.235  0.0997  0.8331 -0.0067
  115OSM    H7S12018   3.965   0.403  10.295 -2.2279  0.5363  0.3046
  115OSM    H7T12019   4.022   0.574  10.260 -0.0025  1.0398 -0.3447
  115OSM    C8S12020   3.949   0.439  10.095  0.0221 -0.1477  0.8021
  115OSM    H8S12021   3.859   0.377  10.076 -0.6462  1.0821 -0.1788
  115OSM    H8T12022   4.043   0.384  10.071 -1.3871 -2.3395  0.0346
  115OSM    C9S12023   3.934   0.547   9.992  0.2634 -0.2484 -0.0858
  115OSM    H9S12024   4.017   0.620   9.991  0.3854 -0.3170 -2.5157
  115OSM    H9T12025   3.839   0.596  10.021  0.7713 -0.2868  1.7196
  115OSM   C10S12026   3.910   0.484   9.852 -0.7661  0.2325  0.1140
  115OSM   H10S12027   3.815   0.427   9.850 -1.8506  1.9194 -3.0790
  115OSM   H10T12028   3.991   0.411   9.839 -0.1433  1.1682 -1.5169
  115OSM   C11S12029   3.913   0.583   9.735  0.1576 -0.5469 -0.8268
  115OSM   H11S12030   4.008   0.642   9.738 -0.4343  0.8230 -4.0924
  115OSM   H11T12031   3.827   0.648   9.760 -0.9916 -1.7285 -1.6421
  115OSM   C12S12032   3.900   0.514   9.595 -0.2435 -0.0781 -0.1487
  115OSM   H12S12033   3.822   0.434   9.594  0.6618 -0.9908  0.1243
  115OSM   H12T12034   4.000   0.469   9.575  0.0014  0.7768 -0.9549
  115OSM   C13S12035   3.880   0.623   9.484  0.2448  0.0095  0.1666
  115OSM   H13S12036   3.955   0.701   9.508 -0.3991  0.5819  0.3191
  115OSM   H13T12037   3.787   0.681   9.498 -0.2214 -1.2333  2.7746
  115OSM   C14S12038   3.895   0.575   9.343  0.9600  0.6200  0.2963
  115OSM   H14S12039   3.814   0.506   9.310  1.4507 -0.1064  0.5895
  115OSM   H14T12040   3.991   0.524   9.319  0.5410  0.9426 -2.3755
  115OSM   C15S12041   3.898   0.697   9.243 -0.1657 -0.7434 -0.3474
  115OSM   H15S12042   3.970   0.770   9.287 -0.1693 -1.5689  1.0782
  115OSM   H15T12043   3.795   0.738   9.236 -0.0023 -0.5274 -2.0480
  115OSM   C16S12044   3.933   0.646   9.104 -0.0316 -0.0059  1.1596
  115OSM   H16S12045   3.866   0.561   9.077  0.0430 -0.4121  2.2302
  115OSM   H16T12046   4.034   0.601   9.095  0.5043  1.1838  0.9970
  115OSM   C17S12047   3.915   0.751   8.992 -0.3810  0.4622 -0.4883
  115OSM   H17S12048   3.990   0.829   9.015  2.5703 -2.3565  0.1656
  115OSM   H17T12049   3.811   0.792   8.990 -1.2692 -1.5874  0.2883
  115OSM   C18S12050   3.940   0.698   8.851 -0.0015 -0.1873  0.3081
  115OSM   H18S12051   3.917   0.780   8.779 -1.2876  0.3928  1.3279
  115OSM   H18T12052   3.871   0.614   8.830  0.3913 -0.3563 -0.3522
  115OSM   H18U12053   4.043   0.667   8.825 -0.6675  0.2360 -3.5112
  115OSM    C1F12054   4.268   0.722  10.559  0.2423 -0.2604 -0.8245
  115OSM     OF12055   4.290   0.704  10.677  0.2747  0.3592 -0.3210
  115OSM    C2F12056   4.365   0.687  10.459 -0.5633  0.1903  0.2585
  115OSM    H2F12057   4.449   0.632  10.506 -0.6310  0.4452  0.6831
  115OSM    H2G12058   4.404   0.785  10.423  1.2838 -0.1381  1.2632
  115OSM    C3F12059   4.300   0.624  10.334  0.3397 -0.1584  0.2156
  115OSM    H3F12060   4.238   0.698  10.278  0.5992  1.1383  1.5752
  115OSM    H3G12061   4.234   0.546  10.377  0.9091  0.1361  1.6764
  115OSM    C4F12062   4.409   0.550  10.255  0.0078 -0.1443 -0.1549
  115OSM    H4F12063   4.452   0.466  10.313 -0.9658  0.5411  1.6575
  115OSM    H4G12064   4.477   0.623  10.205 -0.6062 -0.2421 -1.1604
  115OSM    C5F12065   4.346   0.489  10.128  0.3469  0.4694 -0.0441
  115OSM    H5F12066   4.254   0.545  10.102 -0.8543 -0.2513  2.3215
  115OSM    H5G12067   4.299   0.390  10.149 -0.6878  0.3962 -2.4374
  115OSM    C6F12068   4.437   0.480  10.008 -0.9543 -0.4752 -0.1274
  115OSM    H6F12069   4.409   0.386   9.955  1.4057 -0.9845 -0.5639
  115OSM    H6G12070   4.538   0.474  10.053  0.7784  0.0045 -3.6803
  115OSM    C7F12071   4.418   0.596   9.904 -0.0219 -0.4468  1.1057
  115OSM    H7F12072   4.523   0.610   9.870  0.2329 -0.6967  1.7732
  115OSM    H7G12073   4.376   0.685   9.955  0.9215  1.0683 -0.6400
  115OSM    C8F12074   4.314   0.563   9.793  0.0840  0.1101 -0.2901
  115OSM    H8F12075   4.209   0.548   9.829 -0.3486 -1.5335 -2.0570
  115OSM    H8G12076   4.337   0.458   9.766  0.3529 -0.5671  2.2595
  115OSM    C9F12077   4.311   0.672   9.686 -0.4686  0.7562 -0.3855
  115OSM    H9F12078   4.230   0.746   9.699 -2.6793 -1.7229  1.1927
  115OSM   C10F12079   4.395   0.683   9.578 -0.0544 -0.8408 -0.6075
  115OSM   H10F12080   4.381   0.771   9.514 -1.1846  0.4724  1.3345
  115OSM   C11F12081   4.503   0.591   9.545  0.4821  0.5345 -0.8928
  115OSM   H11F12082   4.506   0.507   9.618 -1.0151  0.0572 -1.3562
  115OSM   H11G12083   4.601   0.643   9.534  0.2195  1.7016  1.4332
  115OSM   C12F12084   4.465   0.539   9.402 -0.1983  0.3113 -0.0156
  115OSM   H12F12085   4.363   0.494   9.406  0.4382 -1.2075 -0.3318
  115OSM   H12G12086   4.537   0.458   9.379 -0.8399 -0.2867  0.0627
  115OSM   C13F12087   4.473   0.654   9.292  0.1409  0.2092 -0.6257
  115OSM   H13F12088   4.557   0.717   9.330 -1.5851  1.9718  0.4732
  115OSM   H13G12089   4.382   0.716   9.307  0.8826  0.9031  1.3026
  115OSM   C14F12090   4.494   0.576   9.157 -0.0859  0.3529  0.0666
  115OSM   H14F12091   4.448   0.475   9.161  0.1505  0.2170 -0.6041
  115OSM   H14G12092   4.603   0.568   9.136  0.2276 -1.1786  1.9720
  115OSM   C15F12093   4.420   0.660   9.040  0.0695  0.1497  0.0016
  115OSM   H15F12094   4.454   0.765   9.039  1.2683 -0.2129  0.4297
  115OSM   H15G12095   4.311   0.666   9.060 -0.2325  0.6134 -1.6080
  115OSM   C16F12096   4.463   0.602   8.898 -0.4688 -0.1935 -0.2253
  115OSM   H16F12097   4.477   0.492   8.898  2.3816  0.0473 -2.0898
  115OSM   H16G12098   4.564   0.635   8.864 -0.0886 -0.0428  1.0071
  115OSM   C17F12099   4.355   0.632   8.788 -0.0020 -0.0078 -0.2003
  115OSM   H17F12100   4.351   0.741   8.768  0.0160  0.1717  0.7407
  115OSM   H17G12101   4.257   0.608   8.835 -0.4976  1.3951 -0.4761
  115OSM   C18F12102   4.365   0.563   8.656 -0.8022  0.9657  0.2649
  115OSM   H18F12103   4.361   0.454   8.673 -0.1702  0.5776 -1.8763
  115OSM   H18G12104   4.465   0.576   8.608 -0.2260 -3.2183 -0.0539
  115OSM   H18H12105   4.281   0.584   8.586 -0.5221 -1.7585 -1.0112
  116OSM      N12106   2.678   4.929  10.977 -0.0352  0.2037  0.3024
  116OSM    C1512107   2.646   4.965  11.120  0.7177 -0.1462  0.7270
  116OSM   H15A12108   2.589   5.057  11.127 -0.9861 -1.2480  2.4162
  116OSM   H15B12109   2.738   4.968  11.176  1.7677 -2.4423 -0.7098
  116OSM   H15C12110   2.592   4.886  11.169  0.6421 -0.0939  0.7293
  116OSM    C1412111   2.817   4.991  10.954  0.5914  0.2869  0.1415
  116OSM   H14A12112   2.815   5.099  10.953  0.0990  0.2847  0.3460
  116OSM   H14B12113   2.850   4.953  10.858 -0.2267  1.2708 -0.5494
  116OSM   H14C12114   2.888   4.956  11.027  0.8409  2.3813  0.9618
  116OSM    C1312115   2.678   4.780  10.975  0.0441  0.0742 -0.3722
  116OSM   H13A12116   2.695   4.733  10.879  0.0204 -3.3031  1.1660
  116OSM   H13B12117   2.583   4.746  11.013  0.1995 -0.0065 -0.0513
  116OSM   H13C12118   2.757   4.741  11.037 -0.8963  0.8617  1.4034
  116OSM    C1212119   2.587   4.990  10.867 -0.7543 -0.6459 -0.2619
  116OSM   H12A12120   2.640   4.977  10.773 -0.2604  2.0151 -0.4196
  116OSM   H12B12121   2.587   5.096  10.886  1.9129 -0.8126  1.2580
  116OSM    C1112122   2.440   4.940  10.845 -0.5379  0.5838 -0.1407
  116OSM   H11A12123   2.461   4.835  10.817  0.5572  0.5996  0.5525
  116OSM   H11B12124   2.400   4.990  10.754 -0.1870  1.5754  0.2330
  116OSM      P12125   2.212   4.901  10.969 -0.0285 -0.0837  0.0600
  116OSM    O1312126   2.202   4.764  11.012 -0.2243 -0.1067  0.4664
  116OSM    O1412127   2.128   5.005  11.037  0.5954  0.6426 -0.0389
  116OSM    O1112128   2.184   4.901  10.813 -0.4715 -0.0489  0.1857
  116OSM    O1212129   2.361   4.947  10.970  0.2748 -0.3421 -0.0223
  116OSM    C1S12130   2.080   4.808  10.772  0.6592  0.3909  0.2235
  116OSM    H1S12131   1.987   4.840  10.825 -1.0740  1.3915 -3.1324
  116OSM    H1T12132   2.106   4.704  10.799  0.2029  0.1539 -0.2347
  116OSM     NF12133   1.925   4.743  10.592 -0.6064 -0.3488  0.1394
  116OSM    HNF12134   1.931   4.650  10.556 -2.4759 -0.5605  0.2646
  116OSM    C2S12135   2.054   4.812  10.622  0.2544 -0.5674 -0.1489
  116OSM    H2S12136   2.040   4.919  10.596  2.3253 -0.3021 -0.3564
  116OSM    C3S12137   2.180   4.769  10.538  0.0626  0.2575 -0.5785
  116OSM    H3S12138   2.208   4.664  10.559  0.8687  0.6735  0.5187
  116OSM     O312139   2.290   4.856  10.567 -0.1343  0.0975 -0.2917
  116OSM    HO312140   2.269   4.900  10.650 -0.0782  0.4737 -0.4730
  116OSM    C4S12141   2.148   4.788  10.387  0.0283  0.9108 -0.1099
  116OSM    H4S12142   2.187   4.876  10.333  0.9737  1.9323  2.1273
  116OSM    C5S12143   2.109   4.692  10.307  0.0557  0.4592  0.7763
  116OSM    H5S12144   2.101   4.588  10.344 -0.3300  0.8936  1.9513
  116OSM    C6S12145   2.087   4.713  10.154  0.5531  0.5303 -0.6679
  116OSM    H6S12146   1.995   4.661  10.121 -1.3474  3.8300 -0.9968
  116OSM    H6T12147   2.171   4.657  10.106 -0.5655 -0.1103 -1.9685
  116OSM    C7S12148   2.053   4.851  10.099 -0.5561  0.0418 -0.4700
  116OSM    H7S12149   2.122   4.928  10.139  0.8203 -1.8847  0.9949
  116OSM    H7T12150   1.954   4.882  10.139  1.1430  1.3088  3.2198
  116OSM    C8S12151   2.034   4.858   9.946 -0.5527  0.0756 -0.7902
  116OSM    H8S12152   1.994   4.958   9.916  0.2409 -0.4581 -3.9461
  116OSM    H8T12153   1.960   4.778   9.926  1.2497 -1.6453 -0.7887
  116OSM    C9S12154   2.166   4.821   9.887 -0.4693 -0.3598  0.0818
  116OSM    H9S12155   2.195   4.716   9.906  0.7232  0.4004  2.8965
  116OSM    H9T12156   2.242   4.891   9.927 -0.2814 -0.2233 -0.5046
  116OSM   C10S12157   2.160   4.831   9.725 -0.0992  0.5205  0.4043
  116OSM   H10S12158   2.263   4.809   9.690  0.7758  2.6394  1.5238
  116OSM   H10T12159   2.145   4.934   9.688  0.5446  0.1783 -0.8821
  116OSM   C11S12160   2.063   4.737   9.660  0.3007 -0.4146  0.5659
  116OSM   H11S12161   1.957   4.762   9.681  0.5357  1.2262 -0.0613
  116OSM   H11T12162   2.068   4.634   9.703 -2.8983 -1.7102 -1.8203
  116OSM   C12S12163   2.083   4.708   9.511 -0.4112  0.1401  0.2082
  116OSM   H12S12164   2.019   4.619   9.491 -0.8355  0.3762  0.4947
  116OSM   H12T12165   2.186   4.674   9.487 -0.9681 -0.8423 -0.9102
  116OSM   C13S12166   2.061   4.823   9.414 -0.0918  0.2562  0.4782
  116OSM   H13S12167   2.141   4.899   9.433  0.8661 -0.5895 -0.0943
  116OSM   H13T12168   1.969   4.878   9.443 -2.6783 -2.2415 -2.2875
  116OSM   C14S12169   2.059   4.780   9.261 -0.5406 -0.2388  1.2512
  116OSM   H14S12170   1.994   4.691   9.255  0.8365 -1.2723  1.3136
  116OSM   H14T12171   2.162   4.756   9.228 -0.8025 -2.4008  1.8538
  116OSM   C15S12172   2.010   4.896   9.170  0.2959 -0.0445  0.3161
  116OSM   H15S12173   2.080   4.981   9.160  0.6119 -0.4951 -1.6274
  116OSM   H15T12174   1.921   4.930   9.228  0.1375 -1.8414  1.1938
  116OSM   C16S12175   1.948   4.837   9.038 -0.7465 -0.0212 -0.9656
  116OSM   H16S12176   1.867   4.766   9.066 -1.3721  0.7711 -0.7293
  116OSM   H16T12177   2.033   4.784   8.991  1.6588  1.3768  1.5164
  116OSM   C17S12178   1.903   4.948   8.941  0.0077  0.1986 -0.0532
  116OSM   H17S12179   1.834   5.014   8.999  0.0323  0.3182 -0.1600
  116OSM   H17T12180   1.842   4.903   8.859 -0.9586 -0.3505  0.9412
  116OSM   C18S12181   2.017   5.014   8.864  0.3853 -0.0085 -0.5996
  116OSM   H18S12182   1.970   5.066   8.777 -0.5279 -1.1147 -0.7784
  116OSM   H18T12183   2.097   4.951   8.821 -0.8144 -0.1912 -2.6860
  116OSM   H18U12184   2.069   5.088   8.929  1.9674 -0.8603 -0.8548
  116OSM    C1F12185   1.804   4.780  10.632  0.5271 -1.4007  0.4872
  116OSM     OF12186   1.778   4.888  10.684  0.4072  0.0826  0.4813
  116OSM    C2F12187   1.703   4.670  10.605 -0.5608 -0.4592 -0.0998
  116OSM    H2F12188   1.627   4.654  10.683 -1.1285  1.1758 -0.2706
  116OSM    H2G12189   1.766   4.579  10.600  0.8767  0.2637  2.9789
  116OSM    C3F12190   1.617   4.684  10.474 -0.5651  0.0919  0.1280
  116OSM    H3F12191   1.557   4.776  10.486 -0.3731 -0.0301  2.3211
  116OSM    H3G12192   1.547   4.598  10.466  0.2740 -0.6325  0.4635
  116OSM    C4F12193   1.699   4.693  10.346  0.1997 -0.6595 -0.0864
  116OSM    H4F12194   1.768   4.606  10.335  1.4009  0.5152 -2.3808
  116OSM    H4G12195   1.757   4.786  10.362 -1.0078  0.1396 -0.1684
  116OSM    C5F12196   1.601   4.712  10.228 -0.5874  0.5320  0.6365
  116OSM    H5F12197   1.523   4.790  10.231 -0.2194  1.0212 -1.1183
  116OSM    H5G12198   1.550   4.614  10.212  0.1113  0.3996 -0.9726
  116OSM    C6F12199   1.674   4.750  10.098  0.1982  0.3816  0.0133
  116OSM    H6F12200   1.721   4.658  10.058 -0.9735 -0.6512  0.9362
  116OSM    H6G12201   1.749   4.825  10.133 -3.2125  2.9100  2.6170
  116OSM    C7F12202   1.579   4.821   9.992  0.6104 -0.2303  0.2376
  116OSM    H7F12203   1.637   4.887   9.925 -1.6239  1.3784 -0.2555
  116OSM    H7G12204   1.509   4.889  10.045 -0.3264 -1.1791  0.2643
  116OSM    C8F12205   1.501   4.714   9.906  0.1349 -0.5912  0.7658
  116OSM    H8F12206   1.420   4.772   9.856  1.1786 -0.6132 -1.0236
  116OSM    H8G12207   1.453   4.640   9.974  0.9244 -1.5775  0.2765
  116OSM    C9F12208   1.573   4.626   9.805  0.6653 -0.2909 -0.0885
  116OSM    H9F12209   1.632   4.544   9.849  0.6750  0.4806  1.3840
  116OSM   C10F12210   1.554   4.620   9.668 -0.1520 -0.0998 -0.1342
  116OSM   H10F12211   1.598   4.531   9.621 -1.2196  0.3613 -2.0904
  116OSM   C11F12212   1.469   4.718   9.590  0.1073 -0.1793  0.6464
  116OSM   H11F12213   1.509   4.820   9.607  0.1414 -0.2026  0.7080
  116OSM   H11G12214   1.365   4.709   9.626  0.8942 -3.3890  2.5713
  116OSM   C12F12215   1.477   4.705   9.439 -0.2300 -0.1032  0.2201
  116OSM   H12F12216   1.394   4.757   9.386 -0.2979 -1.8294 -1.4567
  116OSM   H12G12217   1.477   4.600   9.404 -0.5593 -0.2870  0.7446
  116OSM   C13F12218   1.601   4.776   9.384 -0.1063  0.2712  0.4135
  116OSM   H13F12219   1.683   4.760   9.457 -0.4208 -1.5841  0.4041
  116OSM   H13G12220   1.575   4.884   9.390  0.5039  0.3577  1.9006
  116OSM   C14F12221   1.629   4.741   9.241 -0.0395  1.1270 -0.2080
  116OSM   H14F12222   1.636   4.630   9.236  0.2934  1.1032  0.6632
  116OSM   H14G12223   1.728   4.786   9.218  0.8830 -0.1222  1.1282
  116OSM   C15F12224   1.523   4.799   9.151  0.2317 -0.1771 -0.4123
  116OSM   H15F12225   1.490   4.894   9.197  1.0998 -1.2028  2.6001
  116OSM   H15G12226   1.437   4.728   9.146 -1.4085  1.5604  1.4392
  116OSM   C16F12227   1.573   4.821   8.999 -0.7983  0.2985  0.0966
  116OSM   H16F12228   1.600   4.720   8.962 -1.3163 -0.0703  0.7043
  116OSM   H16G12229   1.660   4.890   8.990 -0.4838 -0.2068 -0.8283
  116OSM   C17F12230   1.464   4.879   8.907 -0.0164 -0.8107 -0.1089
  116OSM   H17F12231   1.443   4.985   8.930  0.6869 -0.7944  0.4571
  116OSM   H17G12232   1.372   4.818   8.920 -1.3652  0.8328 -1.4968
  116OSM   C18F12233   1.496   4.862   8.763  0.2771 -0.3203 -0.2080
  116OSM   H18F12234   1.584   4.926   8.739  0.1089  1.3789  3.1871
  116OSM   H18G12235   1.404   4.894   8.710 -0.9057 -1.8985  0.7976
  116OSM   H18H12236   1.513   4.755   8.736  2.0626  0.2641 -1.6740
  117OSM      N12237   4.853   5.168  11.452 -0.3020 -0.2276 -0.1308
  117OSM    C1512238   4.968   5.116  11.532  0.5250  0.2987 -0.2868
  117OSM   H15A12239   5.040   5.193  11.557  1.3886 -0.9813  1.3469
  117OSM   H15B12240   5.024   5.044  11.474 -1.8757 -1.0134 -1.1248
  117OSM   H15C12241   4.939   5.066  11.623 -0.0152 -1.1003 -1.1944
  117OSM    C1412242   4.771   5.049  11.426 -0.0804 -0.3452  0.5648
  117OSM   H14A12243   4.820   4.985  11.355 -1.7204 -1.5401  0.4710
  117OSM   H14B12244   4.668   5.061  11.397  0.1553  1.3334  0.2987
  117OSM   H14C12245   4.761   4.985  11.512  0.2910  0.3027  1.1060
  117OSM    C1312246   4.777   5.266  11.528 -0.3218  0.2014 -0.3865
  117OSM   H13A12247   4.844   5.349  11.544  0.8982 -0.7202 -0.5545
  117OSM   H13B12248   4.746   5.225  11.623 -0.7383 -0.2111 -0.6894
  117OSM   H13C12249   4.690   5.300  11.473 -0.6807  1.7247  1.0511
  117OSM    C1212250   4.897   5.241  11.326  0.8020  0.1260 -0.4309
  117OSM   H12A12251   4.968   5.319  11.352 -1.1218  2.1654 -1.0220
  117OSM   H12B12252   4.809   5.291  11.290  0.3056 -0.2608  0.2217
  117OSM    C1112253   4.961   5.165  11.204  0.2835  0.0578 -0.4985
  117OSM   H11A12254   4.961   5.240  11.122  0.4437  0.3019 -0.2768
  117OSM   H11B12255   4.882   5.095  11.172  0.0227 -0.5515  1.3241
  117OSM      P12256   5.208   5.202  11.204 -0.5030  0.1735  0.4207
  117OSM    O1312257   5.195   5.329  11.273  0.3039  0.3791 -0.0953
  117OSM    O1412258   5.339   5.136  11.231  0.3175 -0.3828 -0.2043
  117OSM    O1112259   5.190   5.227  11.052 -0.0425  0.3214  0.4561
  117OSM    O1212260   5.090   5.102  11.235 -0.4168  0.5071 -0.1717
  117OSM    C1S12261   5.228   5.143  10.945  0.5213 -0.3966  0.1479
  117OSM    H1S12262   5.167   5.050  10.933  1.0100 -0.4259 -3.0107
  117OSM    H1T12263   5.336   5.119  10.958  0.5084  0.5594  2.4427
  117OSM     NF12264   5.258   5.116  10.710 -0.0538  0.1424  0.1483
  117OSM    HNF12265   5.348   5.114  10.667 -0.5249  0.0036 -0.8672
  117OSM    C2S12266   5.226   5.217  10.809  0.4338 -0.6542  0.4359
  117OSM    H2S12267   5.120   5.249  10.801  0.3703 -1.2496 -1.7054
  117OSM    C3S12268   5.309   5.350  10.804 -0.2693  0.9248 -0.1642
  117OSM    H3S12269   5.416   5.332  10.830 -0.0984 -0.6588 -1.7619
  117OSM     O312270   5.269   5.447  10.896  0.1230  0.1797  0.2062
  117OSM    HO312271   5.252   5.398  10.977  0.7607  1.6770  1.2916
  117OSM    C4S12272   5.301   5.412  10.668  0.5872 -0.2735  0.7030
  117OSM    H4S12273   5.196   5.418  10.635  0.6501 -1.7341  0.1696
  117OSM    C5S12274   5.397   5.458  10.581  0.0398  0.1256 -0.0928
  117OSM    H5S12275   5.504   5.445  10.602  0.3109  0.9165 -0.9141
  117OSM    C6S12276   5.377   5.523  10.438 -0.0653  0.4714 -0.4850
  117OSM    H6S12277   5.460   5.502  10.367 -0.6208  1.5261 -1.4808
  117OSM    H6T12278   5.366   5.632  10.453 -2.4487 -0.0858  2.8832
  117OSM    C7S12279   5.246   5.473  10.372  0.2418 -0.2355 -0.3181
  117OSM    H7S12280   5.159   5.502  10.434  0.8155  2.0458 -0.4625
  117OSM    H7T12281   5.256   5.362  10.371  1.4330 -0.2348  2.6427
  117OSM    C8S12282   5.241   5.514  10.222  0.3498  0.0708  0.7143
  117OSM    H8S12283   5.165   5.447  10.177  0.8135 -0.7665  1.1592
  117OSM    H8T12284   5.341   5.484  10.182 -0.2282 -0.6974 -0.2002
  117OSM    C9S12285   5.213   5.660  10.194 -0.2214  0.0123 -0.1527
  117OSM    H9S12286   5.302   5.721  10.216  0.8232 -1.2174 -0.8187
  117OSM    H9T12287   5.124   5.684  10.257 -1.1603 -0.4953 -1.2433
  117OSM   C10S12288   5.172   5.682  10.049 -0.1265 -0.5409 -0.5979
  117OSM   H10S12289   5.133   5.786  10.048 -2.5727 -1.3596  0.7177
  117OSM   H10T12290   5.084   5.618  10.027 -0.1951 -0.5569 -0.2852
  117OSM   C11S12291   5.279   5.649   9.940 -0.7448 -0.7420 -0.3549
  117OSM   H11S12292   5.314   5.545   9.958 -0.4179 -0.4217  0.9307
  117OSM   H11T12293   5.369   5.712   9.954  0.4142 -1.5223 -3.3443
  117OSM   C12S12294   5.235   5.671   9.794 -0.0733  0.1854 -0.1759
  117OSM   H12S12295   5.324   5.663   9.728  0.6998  2.4815  0.4997
  117OSM   H12T12296   5.223   5.781   9.787 -0.6416  0.1232 -0.2528
  117OSM   C13S12297   5.098   5.607   9.754 -1.3944  0.8034 -0.7705
  117OSM   H13S12298   5.023   5.629   9.833 -0.4761  0.3213  0.2628
  117OSM   H13T12299   5.101   5.496   9.757  1.5656  0.8211  0.3813
  117OSM   C14S12300   5.047   5.656   9.623  0.0733 -0.2595 -0.2520
  117OSM   H14S12301   5.049   5.767   9.633 -1.7618 -0.1927 -0.4084
  117OSM   H14T12302   4.939   5.631   9.624 -0.0911  0.4586  0.3404
  117OSM   C15S12303   5.121   5.601   9.498  0.1136  0.0258 -0.4869
  117OSM   H15S12304   5.161   5.497   9.508  1.3199  0.4708 -0.4811
  117OSM   H15T12305   5.212   5.665   9.491  1.4727 -1.3913  2.3875
  117OSM   C16S12306   5.045   5.600   9.366  0.3766 -0.3301 -0.3740
  117OSM   H16S12307   4.976   5.686   9.364 -0.4530 -0.9859 -1.8820
  117OSM   H16T12308   4.978   5.512   9.380 -0.6633  0.5679  0.4513
  117OSM   C17S12309   5.124   5.575   9.233 -0.0902 -0.2900  0.5461
  117OSM   H17S12310   5.210   5.644   9.243 -1.1476  1.0900  0.4370
  117OSM   H17T12311   5.061   5.600   9.145  1.5884  0.5714 -0.4592
  117OSM   C18S12312   5.174   5.433   9.229 -0.3955 -0.1695  0.5369
  117OSM   H18S12313   5.246   5.413   9.311  1.0555  0.4134 -0.5421
  117OSM   H18T12314   5.217   5.414   9.128  0.5911  1.3375  0.6354
  117OSM   H18U12315   5.088   5.364   9.245 -0.2564 -0.5311 -0.2160
  117OSM    C1F12316   5.162   5.032  10.677  0.0124  0.5303  0.3780
  117OSM     OF12317   5.042   5.048  10.699  0.1561 -0.2398  0.5375
  117OSM    C2F12318   5.204   4.906  10.603  0.1677  0.3974  0.6200
  117OSM    H2F12319   5.191   4.812  10.661  0.6109 -0.2456 -0.2934
  117OSM    H2G12320   5.310   4.925  10.579 -0.0980 -0.4040 -1.4079
  117OSM    C3F12321   5.131   4.890  10.470 -0.0723  1.0564 -0.7608
  117OSM    H3F12322   5.026   4.860  10.489  0.2294 -0.8832 -1.8769
  117OSM    H3G12323   5.165   4.795  10.423 -1.5584  0.2614 -0.2998
  117OSM    C4F12324   5.127   5.011  10.382 -0.2938  0.2178  0.7835
  117OSM    H4F12325   5.231   5.049  10.388  0.6678 -2.0790 -0.0512
  117OSM    H4G12326   5.058   5.085  10.428 -1.2064  0.7702 -1.3145
  117OSM    C5F12327   5.087   4.982  10.239 -0.4313 -0.1495 -0.2449
  117OSM    H5F12328   4.979   4.957  10.240 -0.4644 -0.0698 -1.0110
  117OSM    H5G12329   5.136   4.888  10.206 -0.1500  0.5229 -1.8191
  117OSM    C6F12330   5.129   5.093  10.139 -0.2389  0.0706 -0.1454
  117OSM    H6F12331   5.238   5.107  10.150 -0.3987  1.9690 -0.7737
  117OSM    H6G12332   5.098   5.196  10.163  0.3588  0.1689  0.2032
  117OSM    C7F12333   5.080   5.051  10.002  0.0044  0.0361  0.0872
  117OSM    H7F12334   4.970   5.066  10.000  0.1132  0.8003 -0.4870
  117OSM    H7G12335   5.101   4.943   9.988 -0.8783 -0.2690  1.0255
  117OSM    C8F12336   5.140   5.140   9.891 -0.3744 -0.5649  0.0592
  117OSM    H8F12337   5.251   5.141   9.898 -0.2326 -0.8597 -1.6369
  117OSM    H8G12338   5.110   5.245   9.910 -1.5630 -0.9609  0.4202
  117OSM    C9F12339   5.083   5.112   9.754 -0.1216 -0.1719  0.2849
  117OSM    H9F12340   4.973   5.109   9.754 -0.1571  0.2160 -1.5016
  117OSM   C10F12341   5.146   5.104   9.634  0.2081  0.1519  0.0530
  117OSM   H10F12342   5.082   5.091   9.546  0.2281  1.3462 -0.1621
  117OSM   C11F12343   5.290   5.116   9.595  0.0294  0.0516 -0.4123
  117OSM   H11F12344   5.362   5.096   9.678 -0.8540  1.1122  0.6422
  117OSM   H11G12345   5.303   5.220   9.559  1.0121 -0.9634 -3.3052
  117OSM   C12F12346   5.336   5.023   9.482  0.1437 -0.3800 -0.3023
  117OSM   H12F12347   5.269   5.026   9.394  0.0268  0.3990 -0.1955
  117OSM   H12G12348   5.329   4.918   9.520 -0.1155 -0.4362 -0.4962
  117OSM   C13F12349   5.474   5.063   9.431 -0.3424 -0.1539 -0.5009
  117OSM   H13F12350   5.527   4.975   9.387 -0.7955 -2.0183  2.4039
  117OSM   H13G12351   5.534   5.096   9.518  0.3045 -1.1039 -0.5632
  117OSM   C14F12352   5.470   5.186   9.333 -0.0360  0.0530 -0.2220
  117OSM   H14F12353   5.473   5.285   9.383  1.0382 -0.6658  1.2104
  117OSM   H14G12354   5.377   5.169   9.275  0.5127 -0.9526 -0.8442
  117OSM   C15F12355   5.588   5.202   9.232 -0.7282  0.0094 -0.3837
  117OSM   H15F12356   5.596   5.305   9.191  2.3373 -0.3861 -1.0065
  117OSM   H15G12357   5.580   5.128   9.149 -1.1294  0.6855 -0.9674
  117OSM   C16F12358   5.720   5.179   9.303  0.1920  0.0975 -0.7068
  117OSM   H16F12359   5.726   5.073   9.337 -2.7440 -0.5157 -1.7562
  117OSM   H16G12360   5.728   5.233   9.400 -2.7284 -1.0558  0.2900
  117OSM   C17F12361   5.840   5.199   9.219 -0.4937  0.2135 -1.0138
  117OSM   H17F12362   5.824   5.285   9.150 -0.7772 -0.1632 -1.4187
  117OSM   H17G12363   5.853   5.117   9.145  0.6733 -0.7810  0.2302
  117OSM   C18F12364   5.977   5.219   9.286 -0.7403  1.0347 -0.3130
  117OSM   H18F12365   5.995   5.326   9.314  0.5672  0.4648  1.1866
  117OSM   H18G12366   6.062   5.182   9.225  0.5903 -0.9147  2.4733
  117OSM   H18H12367   5.979   5.148   9.371 -1.5533 -1.2905 -2.1384
  118OSM      N12368   5.757   6.745  11.349 -0.9551  0.4176 -0.3035
  118OSM    C1512369   5.699   6.790  11.483  0.3624  0.3854  0.5521
  118OSM   H15A12370   5.734   6.713  11.550  1.6019  0.0837 -0.4099
  118OSM   H15B12371   5.591   6.796  11.490  0.2492 -1.9139  1.9324
  118OSM   H15C12372   5.741   6.883  11.519  2.3766 -0.3185  0.1223
  118OSM    C1412373   5.906   6.725  11.368  0.1815  0.5214 -0.2376
  118OSM   H14A12374   5.951   6.818  11.400  1.6084 -0.1119 -0.2930
  118OSM   H14B12375   5.957   6.710  11.274  0.6043  3.0888 -0.4989
  118OSM   H14C12376   5.927   6.653  11.446 -1.5061 -0.3686 -0.5574
  118OSM    C1312377   5.697   6.610  11.319 -0.0755  0.3992 -0.1525
  118OSM   H13A12378   5.590   6.612  11.307 -0.5557 -0.0837  3.2156
  118OSM   H13B12379   5.718   6.527  11.384 -0.6453 -1.5812 -2.3346
  118OSM   H13C12380   5.735   6.578  11.223 -1.2203  0.4674 -0.6450
  118OSM    C1212381   5.721   6.843  11.238 -0.5364  0.9142  0.4969
  118OSM   H12A12382   5.749   6.942  11.272 -0.4515  0.5115  1.6519
  118OSM   H12B12383   5.615   6.842  11.219 -0.6569  0.9456  1.1418
  118OSM    C1112384   5.787   6.818  11.098  0.2800  0.0378 -0.2995
  118OSM   H11A12385   5.897   6.827  11.086  0.5921 -2.5199 -0.0179
  118OSM   H11B12386   5.749   6.899  11.032  0.1853  0.8244  0.6959
  118OSM      P12387   5.621   6.663  10.978  0.1049  0.3130 -0.5680
  118OSM    O1312388   5.592   6.522  11.001  0.7972  0.4211  0.3897
  118OSM    O1412389   5.519   6.767  11.014 -0.0168  0.4812  0.5362
  118OSM    O1112390   5.671   6.683  10.833 -0.1261 -0.0593  0.8662
  118OSM    O1212391   5.758   6.688  11.052  0.0790  0.3643  0.1975
  118OSM    C1S12392   5.801   6.665  10.784 -0.3698  0.6290  0.2242
  118OSM    H1S12393   5.851   6.584  10.840 -1.2455  0.4137  0.7209
  118OSM    H1T12394   5.872   6.748  10.804  3.1706 -1.9669 -0.6797
  118OSM     NF12395   5.927   6.631  10.569  0.0482  0.0643  0.4970
  118OSM    HNF12396   5.957   6.712  10.519 -0.0565  1.0349  1.9340
  118OSM    C2S12397   5.791   6.638  10.621  0.0378  0.1603 -0.2124
  118OSM    H2S12398   5.752   6.536  10.603  0.2591  0.1141 -0.4333
  118OSM    C3S12399   5.705   6.749  10.545  0.1829 -0.4170  0.3367
  118OSM    H3S12400   5.763   6.842  10.567  2.2590 -1.4225 -0.6380
  118OSM     O312401   5.571   6.772  10.586  0.0344  0.4449  0.2862
  118OSM    HO312402   5.580   6.761  10.681  0.9463 -0.4631  0.1081
  118OSM    C4S12403   5.715   6.733  10.390 -0.2758 -0.0087 -0.6553
  118OSM    H4S12404   5.780   6.810  10.346  0.2689  0.1767  0.4470
  118OSM    C5S12405   5.633   6.649  10.311 -0.1407  0.4492  0.1201
  118OSM    H5S12406   5.560   6.577  10.351  0.1017  0.6867  1.0117
  118OSM    C6S12407   5.647   6.655  10.162 -0.5640 -0.0764 -0.4247
  118OSM    H6S12408   5.706   6.567  10.132 -0.9595 -0.2592 -0.6784
  118OSM    H6T12409   5.709   6.736  10.118 -2.1616  0.7579 -1.2615
  118OSM    C7S12410   5.501   6.651  10.099 -0.1875  0.3880 -0.6646
  118OSM    H7S12411   5.448   6.747  10.111 -1.6642 -0.5068  0.2129
  118OSM    H7T12412   5.458   6.564  10.153  0.7199 -0.5781 -1.4344
  118OSM    C8S12413   5.500   6.618   9.943  0.6356 -0.1240  0.1362
  118OSM    H8S12414   5.395   6.589   9.922  1.0487 -0.9523 -0.8895
  118OSM    H8T12415   5.568   6.531   9.926 -0.0547 -0.3082 -2.0147
  118OSM    C9S12416   5.526   6.735   9.846 -1.0910 -0.5828 -0.8521
  118OSM    H9S12417   5.621   6.786   9.870 -0.8997 -0.7741 -1.1903
  118OSM    H9T12418   5.445   6.811   9.851  0.9294  1.6549 -0.1706
  118OSM   C10S12419   5.541   6.688   9.704 -0.3960  0.2127  0.2448
  118OSM   H10S12420   5.565   6.579   9.701 -1.1032 -0.0506  2.6372
  118OSM   H10T12421   5.614   6.737   9.635 -1.2296 -0.4579 -1.1529
  118OSM   C11S12422   5.411   6.721   9.631 -0.6379 -0.3477 -0.5194
  118OSM   H11S12423   5.395   6.831   9.644  1.7613 -0.2761  3.7885
  118OSM   H11T12424   5.335   6.665   9.689  0.4246 -0.7197  0.5555
  118OSM   C12S12425   5.413   6.678   9.482  0.3423 -0.3376 -0.6282
  118OSM   H12S12426   5.487   6.738   9.425  1.9637 -0.8491  0.8637
  118OSM   H12T12427   5.318   6.720   9.444  0.5443 -0.7006 -1.5383
  118OSM   C13S12428   5.428   6.525   9.454 -0.6260 -0.2174  0.8060
  118OSM   H13S12429   5.362   6.467   9.521 -1.2404  0.7876  1.0951
  118OSM   H13T12430   5.531   6.492   9.480 -0.1698  0.3822 -0.1648
  118OSM   C14S12431   5.389   6.489   9.306 -0.1434  0.2420 -0.9949
  118OSM   H14S12432   5.284   6.509   9.279 -0.2070 -1.2780 -1.9692
  118OSM   H14T12433   5.400   6.379   9.295  3.4622  0.0836  2.0086
  118OSM   C15S12434   5.482   6.544   9.196  0.4466 -0.2347  0.3735
  118OSM   H15S12435   5.472   6.654   9.190 -0.3196 -0.2978  0.4283
  118OSM   H15T12436   5.443   6.504   9.100 -0.0479 -0.4961  0.6763
  118OSM   C16S12437   5.630   6.508   9.218  0.7992 -0.0262 -0.1200
  118OSM   H16S12438   5.641   6.399   9.202 -0.4407 -0.0845 -0.7731
  118OSM   H16T12439   5.672   6.539   9.316  2.0744  0.7741 -0.8814
  118OSM   C17S12440   5.726   6.579   9.119 -0.6468 -0.6796 -0.8893
  118OSM   H17S12441   5.823   6.528   9.133 -0.9226 -1.1686 -0.7099
  118OSM   H17T12442   5.737   6.686   9.149 -1.6384 -0.4579 -1.2498
  118OSM   C18S12443   5.691   6.569   8.973  0.2655 -0.2105  0.7312
  118OSM   H18S12444   5.585   6.603   8.973  0.3167  0.0297  2.3787
  118OSM   H18T12445   5.705   6.462   8.943  0.9955 -0.1802  0.9515
  118OSM   H18U12446   5.755   6.619   8.897 -2.9078 -0.7124 -2.5698
  118OSM    C1F12447   6.002   6.525  10.590 -0.2291 -0.3865  0.5881
  118OSM     OF12448   5.972   6.441  10.676 -0.1972  0.2991 -0.1159
  118OSM    C2F12449   6.141   6.523  10.514  0.5720 -0.0382  0.5017
  118OSM    H2F12450   6.182   6.431  10.562 -0.8506 -1.5470 -1.0263
  118OSM    H2G12451   6.189   6.617  10.547 -2.0828  0.8559  2.1528
  118OSM    C3F12452   6.130   6.501  10.359  0.1110 -0.0290  0.5327
  118OSM    H3F12453   6.233   6.490  10.320 -0.0513 -0.7440  0.3103
  118OSM    H3G12454   6.094   6.593  10.308 -2.2974 -0.0733  1.9879
  118OSM    C4F12455   6.042   6.377  10.320  0.5478 -0.3680  0.5206
  118OSM    H4F12456   5.937   6.402  10.345 -0.1739  1.2374 -3.3983
  118OSM    H4G12457   6.077   6.295  10.385  1.2377 -0.1407  0.4467
  118OSM    C5F12458   6.049   6.339  10.173  0.7781 -0.2757 -0.3781
  118OSM    H5F12459   6.016   6.234  10.160 -0.5276  0.1355 -0.5815
  118OSM    H5G12460   6.157   6.340  10.146  1.2794 -0.1419  1.5446
  118OSM    C6F12461   5.963   6.432  10.081 -0.0793  0.0027  0.0676
  118OSM    H6F12462   6.016   6.529  10.087  1.1198 -0.5910 -0.6893
  118OSM    H6G12463   5.856   6.442  10.113  0.1945  0.2337  0.9499
  118OSM    C7F12464   5.963   6.393   9.935 -0.2597  0.3233  0.3100
  118OSM    H7F12465   5.913   6.295   9.919 -0.1100  0.5804 -2.1076
  118OSM    H7G12466   6.065   6.380   9.893 -0.5572 -2.1716  0.2185
  118OSM    C8F12467   5.899   6.500   9.837 -0.0665  0.4692  0.1739
  118OSM    H8F12468   5.960   6.590   9.861  2.0757 -0.6052 -0.9777
  118OSM    H8G12469   5.797   6.520   9.875  0.5237  1.3759  1.3607
  118OSM    C9F12470   5.898   6.451   9.699 -0.3577  0.4174  0.2245
  118OSM    H9F12471   5.884   6.342   9.694 -0.3740  0.4075  0.4524
  118OSM   C10F12472   5.915   6.517   9.580 -0.6112  0.0621 -0.5940
  118OSM   H10F12473   5.896   6.454   9.492 -0.1860 -0.8201 -0.0597
  118OSM   C11F12474   5.931   6.667   9.561 -0.8436 -0.2163  0.0877
  118OSM   H11F12475   5.996   6.700   9.644 -1.2692  2.0766 -0.3975
  118OSM   H11G12476   5.835   6.719   9.584 -0.7316 -0.1625  0.4395
  118OSM   C12F12477   5.997   6.707   9.425  0.3280  0.1675 -0.1686
  118OSM   H12F12478   5.949   6.646   9.346  0.8311 -2.7098  1.5936
  118OSM   H12G12479   6.102   6.675   9.440 -0.0396  0.0326  2.7952
  118OSM   C13F12480   5.992   6.858   9.394  0.1788 -0.1674 -0.3191
  118OSM   H13F12481   6.021   6.908   9.489 -0.8539  0.7706 -0.4723
  118OSM   H13G12482   5.884   6.882   9.378 -0.3393 -2.2425 -0.2582
  118OSM   C14F12483   6.070   6.903   9.272 -0.5110 -0.2682  0.2309
  118OSM   H14F12484   6.158   6.836   9.283  0.0653  0.1956 -1.2141
  118OSM   H14G12485   6.112   7.005   9.277 -0.4608 -0.1227 -1.8960
  118OSM   C15F12486   6.006   6.879   9.134  0.2122 -0.0908  0.0938
  118OSM   H15F12487   5.920   6.950   9.142 -0.5028 -0.8072 -1.0457
  118OSM   H15G12488   5.968   6.775   9.121  2.2218 -1.2895  2.8608
  118OSM   C16F12489   6.107   6.908   9.023 -0.3403 -0.2308  0.2503
  118OSM   H16F12490   6.169   6.816   9.014  0.4178 -0.2983  4.1577
  118OSM   H16G12491   6.168   6.999   9.046 -0.8854  1.0198 -2.7455
  118OSM   C17F12492   6.053   6.943   8.891  0.2874  0.0135  0.2403
  118OSM   H17F12493   6.016   6.850   8.844 -0.1311  0.7937 -1.0415
  118OSM   H17G12494   6.127   6.991   8.823  0.3508  0.2352  0.4605
  118OSM   C18F12495   5.940   7.043   8.890  0.0400 -0.4852  0.6775
  118OSM   H18F12496   5.915   7.053   8.782  2.8213 -0.3099 -0.0310
  118OSM   H18G12497   5.971   7.146   8.918 -0.2189 -0.4341  0.7765
  118OSM   H18H12498   5.849   7.009   8.944 -0.8241 -0.0672 -0.4769
  119OSM      N12499   5.545   5.586  11.184 -0.0098  0.0140  0.3241
  119OSM    C1512500   5.672   5.579  11.263  0.1535  0.7950 -0.1748
  119OSM   H15A12501   5.665   5.639  11.353 -1.0275 -0.7527  0.8208
  119OSM   H15B12502   5.754   5.626  11.210  0.6222  0.0181 -0.1512
  119OSM   H15C12503   5.705   5.478  11.280 -0.5356  0.1539 -2.3428
  119OSM    C1412504   5.455   5.479  11.245  0.0949  0.4047  0.0864
  119OSM   H14A12505   5.434   5.504  11.348  0.2953  2.4794 -0.3161
  119OSM   H14B12506   5.502   5.382  11.249 -2.0740 -0.8330 -1.7198
  119OSM   H14C12507   5.357   5.476  11.199  1.0055 -1.4831 -1.8685
  119OSM    C1312508   5.485   5.724  11.190 -0.0942  0.3925  0.0441
  119OSM   H13A12509   5.384   5.725  11.151  0.1705 -0.8455 -0.7022
  119OSM   H13B12510   5.544   5.790  11.129 -1.4160 -0.5954 -2.4247
  119OSM   H13C12511   5.483   5.751  11.295  0.2732 -2.2452  0.7887
  119OSM    C1212512   5.574   5.553  11.036 -0.2198  0.5581  0.9249
  119OSM   H12A12513   5.613   5.645  10.993 -1.0906 -0.0229 -1.2583
  119OSM   H12B12514   5.478   5.532  10.992  0.6114 -0.7814 -0.3220
  119OSM    C1112515   5.659   5.425  10.994 -0.7577 -0.5627 -0.4985
  119OSM   H11A12516   5.651   5.420  10.883 -3.2008 -1.7730 -0.3346
  119OSM   H11B12517   5.604   5.335  11.028 -0.9185 -0.5654 -0.7596
  119OSM      P12518   5.916   5.481  10.974 -0.0898 -0.2854  0.1644
  119OSM    O1312519   5.919   5.620  11.029 -0.2482 -0.0692 -0.3532
  119OSM    O1412520   6.038   5.401  10.997 -0.2769  0.1003 -0.3957
  119OSM    O1112521   5.888   5.485  10.817 -0.3519  0.7660 -0.5402
  119OSM    O1212522   5.793   5.413  11.043  0.2883 -0.2075 -0.1348
  119OSM    C1S12523   5.882   5.365  10.740  0.3628 -1.2313  0.3887
  119OSM    H1S12524   5.811   5.292  10.785  0.4284 -1.7384 -0.3119
  119OSM    H1T12525   5.978   5.309  10.731  0.0857 -1.8152  0.9621
  119OSM     NF12526   5.787   5.275  10.530 -0.1100 -0.7643 -0.1337
  119OSM    HNF12527   5.839   5.250  10.449  1.3853  0.5316  0.3625
  119OSM    C2S12528   5.833   5.400  10.593  0.4936 -0.3496 -0.0813
  119OSM    H2S12529   5.750   5.472  10.609  1.5156  0.8981 -0.2764
  119OSM    C3S12530   5.942   5.482  10.523 -0.9073  0.2555  0.0545
  119OSM    H3S12531   6.026   5.421  10.484 -0.5606  0.3883  0.5854
  119OSM     O312532   6.009   5.588  10.592  0.5602 -0.2768 -0.4858
  119OSM    HO312533   5.973   5.584  10.680  0.0337  0.7841 -0.6413
  119OSM    C4S12534   5.878   5.540  10.396  0.4970  0.3067 -0.1717
  119OSM    H4S12535   5.883   5.467  10.313  1.1350 -0.5495  0.5998
  119OSM    C5S12536   5.816   5.659  10.383  0.2677 -0.0693 -0.7236
  119OSM    H5S12537   5.790   5.708  10.478 -1.4757 -2.9230  0.4034
  119OSM    C6S12538   5.762   5.709  10.258  0.4037  0.6386 -0.6994
  119OSM    H6S12539   5.832   5.789  10.227 -0.2755  1.4853 -0.1136
  119OSM    H6T12540   5.671   5.768  10.284  1.2111  0.7980  2.1134
  119OSM    C7S12541   5.731   5.611  10.144 -0.4255 -0.1117  0.2246
  119OSM    H7S12542   5.689   5.520  10.191  0.3305 -2.5373 -3.4363
  119OSM    H7T12543   5.823   5.580  10.090 -0.8651 -0.6342 -0.2309
  119OSM    C8S12544   5.631   5.672  10.047 -0.7713 -0.3283 -0.4180
  119OSM    H8S12545   5.672   5.763   9.999 -0.9225 -0.1546 -0.2176
  119OSM    H8T12546   5.535   5.694  10.099 -0.6127  0.7068 -0.5532
  119OSM    C9S12547   5.618   5.590   9.918  0.3893 -0.3187  0.1178
  119OSM    H9S12548   5.526   5.530   9.932  0.0045  0.1839 -0.2753
  119OSM    H9T12549   5.699   5.513   9.922 -1.6992 -2.6029  0.4193
  119OSM   C10S12550   5.621   5.665   9.789 -0.6095 -0.5465 -0.0628
  119OSM   H10S12551   5.717   5.715   9.767 -2.4582  4.0483  1.2378
  119OSM   H10T12552   5.548   5.748   9.798 -0.4691 -0.6240  2.4657
  119OSM   C11S12553   5.576   5.581   9.666 -0.0522  0.0819 -0.2754
  119OSM   H11S12554   5.471   5.547   9.680 -0.9520  3.2218  1.5480
  119OSM   H11T12555   5.636   5.489   9.649  0.6150  0.2783  0.9334
  119OSM   C12S12556   5.582   5.671   9.541 -0.2694 -0.6079 -0.6971
  119OSM   H12S12557   5.680   5.723   9.536  0.3050 -1.4639  0.8547
  119OSM   H12T12558   5.502   5.748   9.546  1.4355  1.1929  0.2276
  119OSM   C13S12559   5.557   5.592   9.410 -1.1067  0.2391 -0.0076
  119OSM   H13S12560   5.465   5.530   9.404 -1.2603  0.5710 -2.9286
  119OSM   H13T12561   5.650   5.535   9.389  1.0334  3.5416 -0.1740
  119OSM   C14S12562   5.556   5.689   9.290  0.3554  0.5758  0.5091
  119OSM   H14S12563   5.632   5.770   9.292  2.1205 -0.8894 -1.9638
  119OSM   H14T12564   5.452   5.728   9.279  0.1700 -0.1632 -0.4776
  119OSM   C15S12565   5.576   5.615   9.151 -0.8164 -0.2936 -0.4602
  119OSM   H15S12566   5.487   5.650   9.095  0.0650  3.0362 -0.0570
  119OSM   H15T12567   5.570   5.506   9.171 -0.3029 -0.2745 -0.1617
  119OSM   C16S12568   5.708   5.644   9.071 -0.4834  0.8119  0.0786
  119OSM   H16S12569   5.796   5.621   9.135  0.2732  1.3198 -0.7658
  119OSM   H16T12570   5.715   5.750   9.039  0.7138  0.7164 -0.0313
  119OSM   C17S12571   5.720   5.568   8.937 -1.6560  1.1911 -0.2375
  119OSM   H17S12572   5.623   5.584   8.885 -2.7044 -0.7920  0.9880
  119OSM   H17T12573   5.731   5.459   8.955 -2.6278  1.1513  0.1597
  119OSM   C18S12574   5.837   5.624   8.852  0.0883 -0.5707 -0.4134
  119OSM   H18S12575   5.931   5.639   8.910  0.3621 -0.7428 -0.8073
  119OSM   H18T12576   5.793   5.719   8.816  0.8949  0.1998  0.5869
  119OSM   H18U12577   5.855   5.553   8.769  0.7525  0.0629 -0.8180
  119OSM    C1F12578   5.677   5.204  10.562 -0.7844 -0.2731 -0.8535
  119OSM     OF12579   5.602   5.232  10.656 -0.2784  0.5806  0.3048
  119OSM    C2F12580   5.649   5.091  10.473  0.5310  0.7671  0.0163
  119OSM    H2F12581   5.627   4.994  10.524 -0.4669  0.1015 -1.5922
  119OSM    H2G12582   5.731   5.070  10.401  2.1518  0.4076  1.9012
  119OSM    C3F12583   5.517   5.111  10.391  0.0813 -0.2052 -0.7060
  119OSM    H3F12584   5.438   5.119  10.469  0.1296  1.1274 -0.7725
  119OSM    H3G12585   5.495   5.015  10.340 -1.9132  0.0074 -0.3355
  119OSM    C4F12586   5.523   5.230  10.296 -0.9950 -0.5251 -0.0562
  119OSM    H4F12587   5.582   5.315  10.337  1.7841 -0.7080 -3.2592
  119OSM    H4G12588   5.417   5.259  10.280 -1.1190 -1.0430 -0.2003
  119OSM    C5F12589   5.591   5.210  10.159 -0.4573 -0.1449  1.3021
  119OSM    H5F12590   5.696   5.174  10.166 -0.8062 -1.5891 -0.2063
  119OSM    H5G12591   5.591   5.311  10.113  1.7960  0.0597  1.6379
  119OSM    C6F12592   5.513   5.112  10.066  0.0673 -0.9562 -0.0216
  119OSM    H6F12593   5.414   5.154  10.039  0.7125  0.8157  0.2618
  119OSM    H6G12594   5.507   5.009  10.108 -1.2063 -0.4267  1.1628
  119OSM    C7F12595   5.567   5.097   9.920  0.0657  0.3504  0.6482
  119OSM    H7F12596   5.566   5.201   9.881 -0.2563 -0.5763 -2.0198
  119OSM    H7G12597   5.501   5.041   9.852  2.2992 -1.7520  0.0756
  119OSM    C8F12598   5.709   5.026   9.922 -0.7846  0.0927  0.4816
  119OSM    H8F12599   5.685   4.928   9.969 -0.3437 -0.5058 -0.5300
  119OSM    H8G12600   5.783   5.082   9.983 -0.2202  2.5769 -2.2964
  119OSM    C9F12601   5.746   5.018   9.777 -0.2781  0.0641  0.4624
  119OSM    H9F12602   5.737   4.920   9.727 -0.3262  0.8214 -1.0552
  119OSM   C10F12603   5.821   5.104   9.702  0.1146  0.6615 -0.2949
  119OSM   H10F12604   5.849   5.070   9.601  0.0772  0.9934 -0.4183
  119OSM   C11F12605   5.869   5.239   9.724 -0.3461 -0.8761 -0.2917
  119OSM   H11F12606   5.801   5.290   9.794 -0.9362 -1.6761 -0.2667
  119OSM   H11G12607   5.864   5.294   9.628  2.8975  1.4595  0.6918
  119OSM   C12F12608   6.011   5.244   9.769 -0.5724 -0.3157  0.5755
  119OSM   H12F12609   6.030   5.159   9.838  3.0210 -0.3764 -0.2600
  119OSM   H12G12610   6.035   5.337   9.825  1.2988 -0.4877  0.1260
  119OSM   C13F12611   6.105   5.226   9.651  0.3376  0.6155 -0.2334
  119OSM   H13F12612   6.071   5.309   9.586 -0.0532  3.9892  3.8404
  119OSM   H13G12613   6.079   5.132   9.597  0.5691  0.4063  0.0127
  119OSM   C14F12614   6.248   5.226   9.686 -0.5926 -0.8901  0.3436
  119OSM   H14F12615   6.257   5.173   9.783 -1.5587 -1.3927  0.1679
  119OSM   H14G12616   6.278   5.330   9.709  1.3295 -1.4092  0.3325
  119OSM   C15F12617   6.347   5.175   9.569 -0.0362  0.3422 -0.2760
  119OSM   H15F12618   6.322   5.069   9.548  1.6063  0.1142 -1.2264
  119OSM   H15G12619   6.448   5.164   9.614 -1.0105 -0.6083  1.8628
  119OSM   C16F12620   6.352   5.264   9.446 -0.1698 -0.1590 -0.7780
  119OSM   H16F12621   6.381   5.369   9.464  1.2243 -0.7624  0.8076
  119OSM   H16G12622   6.255   5.273   9.393 -1.0067 -1.5165  0.4246
  119OSM   C17F12623   6.462   5.206   9.345 -0.1027  0.4121 -0.9411
  119OSM   H17F12624   6.561   5.199   9.395  0.7370  0.1591 -2.5795
  119OSM   H17G12625   6.481   5.280   9.264 -0.2467  1.1366 -0.3277
  119OSM   C18F12626   6.419   5.067   9.291 -0.4467  0.1310  0.2361
  119OSM   H18F12627   6.488   5.035   9.210 -0.5931 -0.4103  0.3198
  119OSM   H18G12628   6.316   5.087   9.255  0.1796  3.5941  0.0592
  119OSM   H18H12629   6.417   4.986   9.367 -1.8286 -0.2594 -0.1897
  120OSM      N12630   6.669   2.799  10.716 -0.2328  0.0557 -0.0869
  120OSM    C1512631   6.573   2.854  10.816  0.3231 -1.0037  0.7582
  120OSM   H15A12632   6.548   2.956  10.792 -0.8402 -1.3886  0.2762
  120OSM   H15B12633   6.626   2.845  10.909  1.3984  1.3988  0.4460
  120OSM   H15C12634   6.480   2.799  10.818 -0.6736  0.4356 -1.7383
  120OSM    C1412635   6.597   2.775  10.585 -0.3591  0.4270  0.4940
  120OSM   H14A12636   6.522   2.699  10.600 -0.2220  0.0853 -0.4965
  120OSM   H14B12637   6.666   2.742  10.509  1.5286  1.7961  1.5169
  120OSM   H14C12638   6.544   2.861  10.545 -0.6165 -1.0021 -2.5235
  120OSM    C1312639   6.780   2.895  10.684 -0.5465  0.4607  0.5610
  120OSM   H13A12640   6.745   2.995  10.663 -1.0318 -0.0571 -1.2370
  120OSM   H13B12641   6.838   2.854  10.603  0.4044 -0.3547  1.6099
  120OSM   H13C12642   6.856   2.895  10.761  1.5085  0.1847 -1.3574
  120OSM    C1212643   6.732   2.672  10.764 -0.6947 -0.1668 -0.4853
  120OSM   H12A12644   6.799   2.683  10.847 -1.4060 -0.2132  0.1092
  120OSM   H12B12645   6.784   2.631  10.679  0.2892  0.2331 -0.0880
  120OSM    C1112646   6.652   2.553  10.805 -0.7981  0.1146  0.3256
  120OSM   H11A12647   6.562   2.595  10.854  0.4180  0.7997  2.1028
  120OSM   H11B12648   6.698   2.486  10.881  1.9255  0.7793 -0.6136
  120OSM      P12649   6.713   2.399  10.601 -0.3471 -0.0156  0.0374
  120OSM    O1312650   6.835   2.474  10.563  0.7217 -0.4426  0.3654
  120OSM    O1412651   6.738   2.278  10.678 -0.7563 -0.1142 -0.4874
  120OSM    O1112652   6.628   2.361  10.469 -0.0382  0.3094 -0.5552
  120OSM    O1212653   6.611   2.484  10.686  0.1571 -0.2911  0.3095
  120OSM    C1S12654   6.494   2.377  10.441 -0.2702  0.5768  0.6304
  120OSM    H1S12655   6.452   2.471  10.482  1.8942  2.2178 -0.7089
  120OSM    H1T12656   6.440   2.297  10.497  2.8973 -1.4221  1.0309
  120OSM     NF12657   6.327   2.386  10.263  0.2562  0.1646 -0.2383
  120OSM    HNF12658   6.273   2.308  10.232  1.2219 -0.5635 -0.1285
  120OSM    C2S12659   6.472   2.371  10.288 -0.5791 -0.3303 -0.8527
  120OSM    H2S12660   6.529   2.454  10.241  2.5373 -1.0166  1.3733
  120OSM    C3S12661   6.530   2.232  10.234 -0.1258  0.2658 -1.0156
  120OSM    H3S12662   6.464   2.155  10.279  1.6757  0.4540  2.1831
  120OSM     O312663   6.661   2.196  10.274  0.1726  0.3037 -0.0288
  120OSM    HO312664   6.674   2.263  10.342 -2.2232  0.3628  0.4559
  120OSM    C4S12665   6.513   2.219  10.089  0.1869  0.2492 -0.7803
  120OSM    H4S12666   6.564   2.303  10.039  2.1005  0.7165  1.7693
  120OSM    C5S12667   6.435   2.127  10.028 -0.1982  0.4773 -0.2584
  120OSM    H5S12668   6.386   2.052  10.093  1.8070 -0.7705 -0.0884
  120OSM    C6S12669   6.417   2.107   9.876  1.4026 -0.1215 -0.4156
  120OSM    H6S12670   6.308   2.102   9.856  0.8626 -1.5915  2.3457
  120OSM    H6T12671   6.462   2.009   9.847 -1.5829 -1.4008 -1.1102
  120OSM    C7S12672   6.467   2.217   9.780  0.5042  0.2167 -0.0665
  120OSM    H7S12673   6.577   2.233   9.779  0.2552  2.1827 -1.1166
  120OSM    H7T12674   6.421   2.316   9.800  1.8238  0.7319  0.5099
  120OSM    C8S12675   6.433   2.173   9.640  0.2730 -0.0258 -0.0042
  120OSM    H8S12676   6.326   2.160   9.616  0.0871 -1.1165  1.2746
  120OSM    H8T12677   6.476   2.071   9.626 -0.6863 -0.4945  0.4056
  120OSM    C9S12678   6.499   2.271   9.541  0.4003  0.1146  0.5654
  120OSM    H9S12679   6.597   2.291   9.588  0.0125  2.0763  0.6136
  120OSM    H9T12680   6.448   2.368   9.531  1.9035  0.8519 -0.3794
  120OSM   C10S12681   6.531   2.202   9.406  1.2547  1.1573  0.1456
  120OSM   H10S12682   6.437   2.185   9.349  1.8837  0.3036 -0.6608
  120OSM   H10T12683   6.575   2.102   9.428 -0.7288 -0.2852 -1.8686
  120OSM   C11S12684   6.611   2.296   9.325 -0.0983  1.2704  0.3350
  120OSM   H11S12685   6.691   2.351   9.379  1.8178 -1.2279  0.1865
  120OSM   H11T12686   6.546   2.380   9.291  1.5610  2.7052  0.5388
  120OSM   C12S12687   6.685   2.215   9.218 -0.3099  0.4267 -0.4510
  120OSM   H12S12688   6.602   2.161   9.168 -1.6670  0.9967  1.0829
  120OSM   H12T12689   6.760   2.148   9.266 -0.1314  0.5752 -0.5185
  120OSM   C13S12690   6.745   2.310   9.113 -0.0484 -0.7214  0.1615
  120OSM   H13S12691   6.824   2.372   9.161 -1.9762  1.8189  0.3314
  120OSM   H13T12692   6.664   2.384   9.093  0.1722 -0.1408  1.2974
  120OSM   C14S12693   6.799   2.250   8.982  0.1351 -0.7905  0.5522
  120OSM   H14S12694   6.715   2.225   8.915 -0.2433 -0.8147  1.0342
  120OSM   H14T12695   6.852   2.153   8.992 -1.3389 -1.7783 -0.9085
  120OSM   C15S12696   6.901   2.335   8.908 -0.4864 -0.3843 -0.0297
  120OSM   H15S12697   6.947   2.279   8.823 -0.9861  1.5990 -1.6851
  120OSM   H15T12698   6.982   2.369   8.977 -0.5099 -0.4765  0.0436
  120OSM   C16S12699   6.849   2.462   8.843 -0.0574 -1.2195  0.1936
  120OSM   H16S12700   6.801   2.528   8.919  0.7100  1.0249 -1.1722
  120OSM   H16T12701   6.772   2.440   8.765 -0.0572  2.7645 -1.1573
  120OSM   C17S12702   6.960   2.544   8.765  0.0228 -0.6486  0.0442
  120OSM   H17S12703   6.915   2.591   8.675  1.4003 -0.0514 -0.3655
  120OSM   H17T12704   7.037   2.478   8.722  0.1295  0.9972 -2.4983
  120OSM   C18S12705   7.023   2.663   8.841  0.2746  0.0767  0.4293
  120OSM   H18S12706   7.085   2.628   8.927  1.4978  1.1665  0.0320
  120OSM   H18T12707   6.946   2.724   8.893 -0.5372 -1.4514  1.0692
  120OSM   H18U12708   7.095   2.717   8.776  2.3076 -1.7844  0.9874
  120OSM    C1F12709   6.257   2.496  10.289 -0.0380  0.2623  0.1761
  120OSM     OF12710   6.312   2.597  10.330 -0.0616  0.1658 -0.6252
  120OSM    C2F12711   6.108   2.492  10.278  0.3777 -0.2073 -0.6609
  120OSM    H2F12712   6.070   2.531  10.375 -0.5155 -4.1400  0.7847
  120OSM    H2G12713   6.067   2.388  10.277  0.6279 -0.3150 -0.0802
  120OSM    C3F12714   6.078   2.579  10.156  0.4130  0.1013 -0.1272
  120OSM    H3F12715   6.124   2.677  10.180  0.4930 -0.6585  3.2212
  120OSM    H3G12716   5.967   2.588  10.153  0.3914  0.0526  0.4668
  120OSM    C4F12717   6.132   2.514  10.029  0.4474  0.3251 -0.2321
  120OSM    H4F12718   6.087   2.413  10.016 -1.2710  1.3451 -3.1590
  120OSM    H4G12719   6.241   2.497  10.017  0.3743 -2.1230  1.8824
  120OSM    C5F12720   6.086   2.588   9.900  0.5880 -0.6850  0.0371
  120OSM    H5F12721   6.134   2.689   9.895 -2.2673  0.8439  1.1686
  120OSM    H5G12722   5.977   2.607   9.901  0.4322 -0.7628 -3.1775
  120OSM    C6F12723   6.125   2.515   9.771 -0.3114  0.1963 -0.5653
  120OSM    H6F12724   6.234   2.494   9.771 -0.2154  0.6312  0.5022
  120OSM    H6G12725   6.110   2.595   9.696 -1.3472  0.3721 -0.1989
  120OSM    C7F12726   6.047   2.385   9.738  0.0427  0.5744  0.2694
  120OSM    H7F12727   5.946   2.417   9.772 -0.0286 -0.2405  0.8724
  120OSM    H7G12728   6.071   2.296   9.801  0.7005  0.2893 -0.3725
  120OSM    C8F12729   6.044   2.354   9.583  0.0630  0.7542 -0.8030
  120OSM    H8F12730   5.983   2.262   9.589  0.4287  0.5667  3.4509
  120OSM    H8G12731   6.149   2.328   9.555 -1.0170 -1.9674 -2.6464
  120OSM    C9F12732   5.978   2.458   9.503 -0.3967  0.1110  0.0272
  120OSM    H9F12733   5.870   2.478   9.515 -0.2878 -0.6286  2.9261
  120OSM   C10F12734   6.052   2.541   9.426 -0.2756 -0.7893 -0.2659
  120OSM   H10F12735   6.005   2.624   9.371  1.0892 -0.3668 -0.8312
  120OSM   C11F12736   6.197   2.545   9.406  0.1341  0.0471 -0.0057
  120OSM   H11F12737   6.242   2.488   9.490 -1.3320 -0.1855  0.6660
  120OSM   H11G12738   6.245   2.644   9.400  2.1329 -0.9491 -3.0213
  120OSM   C12F12739   6.248   2.476   9.271  0.6141 -0.1816  0.3925
  120OSM   H12F12740   6.358   2.483   9.257  0.3538  2.7894 -0.8423
  120OSM   H12G12741   6.215   2.544   9.190  4.1670  2.6028  1.0493
  120OSM   C13F12742   6.202   2.329   9.248  0.0282  0.1676 -0.2195
  120OSM   H13F12743   6.097   2.348   9.217 -0.1298  1.8359  1.2229
  120OSM   H13G12744   6.203   2.257   9.332 -0.4360 -1.7052 -1.7416
  120OSM   C14F12745   6.271   2.255   9.131  0.0745 -0.0937  0.2643
  120OSM   H14F12746   6.230   2.152   9.117 -0.6966  0.2393  0.0358
  120OSM   H14G12747   6.377   2.238   9.162  0.1636  0.2838  0.1669
  120OSM   C15F12748   6.262   2.333   8.996  0.0642  0.4015  0.4887
  120OSM   H15F12749   6.273   2.444   9.001 -2.3884  0.7398 -0.3958
  120OSM   H15G12750   6.164   2.315   8.948 -0.0873 -1.0428  1.2741
  120OSM   C16F12751   6.362   2.269   8.902  0.2783 -0.3775 -0.8054
  120OSM   H16F12752   6.353   2.158   8.905 -0.1257 -0.3238  1.3029
  120OSM   H16G12753   6.465   2.301   8.929  0.2753 -1.3145  0.4083
  120OSM   C17F12754   6.329   2.308   8.758 -0.3763  0.3199 -0.1297
  120OSM   H17F12755   6.330   2.419   8.764 -2.0353  0.3650 -0.3817
  120OSM   H17G12756   6.233   2.268   8.719  0.3998 -1.2231 -0.5403
  120OSM   C18F12757   6.437   2.287   8.650  0.4544 -0.0848 -0.8548
  120OSM   H18F12758   6.475   2.184   8.670 -2.2427 -1.1674 -0.9048
  120OSM   H18G12759   6.515   2.363   8.674 -0.3787  0.0338  1.8552
  120OSM   H18H12760   6.402   2.315   8.549 -0.4282 -0.1553 -0.5808
  121OSM      N12761   4.128   5.221  10.992 -0.6019 -0.0164 -0.3093
  121OSM    C1512762   4.193   5.101  11.056 -0.2935  0.6724 -0.1023
  121OSM   H15A12763   4.226   5.116  11.158 -0.7876  1.1731 -0.0155
  121OSM   H15B12764   4.279   5.070  10.998  0.4049  0.4452  1.0207
  121OSM   H15C12765   4.124   5.018  11.059 -1.7558  1.8677  1.9405
  121OSM    C1412766   4.062   5.178  10.864 -0.5892 -0.0115 -0.1472
  121OSM   H14A12767   4.025   5.263  10.808 -0.8348  1.0886  1.5914
  121OSM   H14B12768   3.979   5.113  10.888  1.5403 -3.0400 -0.4895
  121OSM   H14C12769   4.124   5.113  10.805  0.1809 -1.1679  1.8649
  121OSM    C1312770   4.019   5.286  11.066  0.1047 -0.8991 -0.4000
  121OSM   H13A12771   3.974   5.368  11.012 -0.0896 -0.5431  0.2915
  121OSM   H13B12772   4.042   5.322  11.166 -2.9364 -2.1623  0.8616
  121OSM   H13C12773   3.939   5.215  11.078  0.6197 -1.7128 -1.6484
  121OSM    C1212774   4.231   5.328  10.956 -0.2600  0.5209 -0.4990
  121OSM   H12A12775   4.183   5.406  10.899  0.6548  0.1379 -1.8264
  121OSM   H12B12776   4.303   5.290  10.885 -0.7306 -0.0751 -0.6726
  121OSM    C1112777   4.300   5.400  11.076  0.1769  0.4953 -0.2755
  121OSM   H11A12778   4.221   5.453  11.133  1.0539  2.5294 -0.8465
  121OSM   H11B12779   4.365   5.480  11.033  1.2441 -0.8038 -1.1606
  121OSM      P12780   4.507   5.256  11.130 -0.2391  0.3599 -0.1796
  121OSM    O1312781   4.608   5.357  11.173  0.2206  0.3024  0.5458
  121OSM    O1412782   4.504   5.112  11.177  0.0114  0.5395 -0.2875
  121OSM    O1112783   4.517   5.260  10.977 -0.8436  0.3345 -0.1677
  121OSM    O1212784   4.367   5.310  11.155 -0.0572 -0.1028 -0.2394
  121OSM    C1S12785   4.583   5.152  10.907  0.0894  0.4711  0.0452
  121OSM    H1S12786   4.522   5.059  10.910  1.0987 -0.2405 -0.9364
  121OSM    H1T12787   4.681   5.127  10.953  0.7216  1.9793 -0.4123
  121OSM     NF12788   4.667   5.071  10.687  0.7322 -0.4784 -0.1823
  121OSM    HNF12789   4.766   5.074  10.680  0.6255 -0.2802 -2.3521
  121OSM    C2S12790   4.615   5.186  10.755  0.1761 -0.0825 -0.0677
  121OSM    H2S12791   4.518   5.218  10.711 -0.3766 -2.1654 -0.4830
  121OSM    C3S12792   4.719   5.304  10.745  0.0547 -0.2859  0.2603
  121OSM    H3S12793   4.819   5.268  10.778  0.6852  0.2915 -0.9615
  121OSM     O312794   4.687   5.420  10.826  0.5177  0.2572  0.0503
  121OSM    HO312795   4.626   5.378  10.887 -0.1192  1.6499  0.4209
  121OSM    C4S12796   4.729   5.351  10.602 -0.0868  0.2057  0.8267
  121OSM    H4S12797   4.642   5.394  10.550 -0.0899 -1.2181 -0.3957
  121OSM    C5S12798   4.849   5.327  10.540  0.2324 -0.1988  0.0641
  121OSM    H5S12799   4.933   5.276  10.589  0.1078  1.1692  1.7971
  121OSM    C6S12800   4.879   5.355  10.394 -0.2866  0.1517 -0.2644
  121OSM    H6S12801   4.940   5.274  10.349  0.5843  1.5332 -1.6756
  121OSM    H6T12802   4.954   5.437  10.389 -0.3763  0.6316  3.3917
  121OSM    C7S12803   4.766   5.377  10.298  0.9958  0.4025 -0.2917
  121OSM    H7S12804   4.687   5.445  10.334  0.7247 -0.4209  0.7348
  121OSM    H7T12805   4.714   5.280  10.284 -0.1767  1.2377 -2.0870
  121OSM    C8S12806   4.825   5.428  10.163  0.2428 -0.5034  1.0001
  121OSM    H8S12807   4.908   5.358  10.140  1.4770  0.6489  1.8371
  121OSM    H8T12808   4.878   5.524  10.173 -0.8995  0.2087  0.3846
  121OSM    C9S12809   4.717   5.402  10.059  0.8836  0.0677  0.5554
  121OSM    H9S12810   4.644   5.484  10.077  0.3801 -0.2424 -0.0409
  121OSM    H9T12811   4.662   5.307  10.074 -0.5403  0.8866  0.7141
  121OSM   C10S12812   4.762   5.399   9.913 -0.0618  0.9735 -0.0840
  121OSM   H10S12813   4.827   5.310   9.906 -0.7630  0.3795  0.7305
  121OSM   H10T12814   4.829   5.485   9.892  0.6838 -0.0680 -2.2097
  121OSM   C11S12815   4.655   5.377   9.809  0.5713 -0.5471  0.1265
  121OSM   H11S12816   4.560   5.434   9.820  0.7683 -0.2533  0.3402
  121OSM   H11T12817   4.623   5.271   9.809  0.7781 -0.6117 -0.5954
  121OSM   C12S12818   4.712   5.401   9.670 -0.3691  0.0981  0.3505
  121OSM   H12S12819   4.789   5.325   9.647 -0.9763 -0.4316  0.0531
  121OSM   H12T12820   4.772   5.494   9.655 -0.0652 -0.1983 -0.3006
  121OSM   C13S12821   4.601   5.407   9.570 -0.4188 -0.3841 -0.0549
  121OSM   H13S12822   4.522   5.475   9.609 -1.4338 -1.4145 -0.2561
  121OSM   H13T12823   4.557   5.305   9.571 -0.5566 -0.3244  1.0632
  121OSM   C14S12824   4.640   5.463   9.431 -0.4764  0.2110  0.1935
  121OSM   H14S12825   4.736   5.417   9.402 -1.1388  0.1929 -2.1292
  121OSM   H14T12826   4.652   5.573   9.439  3.4547 -0.1765  1.4028
  121OSM   C15S12827   4.539   5.434   9.318 -0.1324 -0.1108 -0.3940
  121OSM   H15S12828   4.455   5.505   9.331 -0.8717 -1.1003  0.2942
  121OSM   H15T12829   4.490   5.335   9.328 -0.1186 -0.3190 -2.0290
  121OSM   C16S12830   4.614   5.445   9.188  0.4008 -0.2198 -0.7918
  121OSM   H16S12831   4.705   5.381   9.193 -1.1735 -2.5520 -0.4027
  121OSM   H16T12832   4.655   5.548   9.186  2.6077 -0.8361  3.1410
  121OSM   C17S12833   4.529   5.422   9.069 -0.2559  0.5600  0.2637
  121OSM   H17S12834   4.431   5.473   9.071  0.1524  1.3771 -0.2794
  121OSM   H17T12835   4.516   5.312   9.059 -2.5506  0.5761  2.1517
  121OSM   C18S12836   4.602   5.474   8.944  0.0295  0.6493  0.3787
  121OSM   H18S12837   4.628   5.582   8.954  2.1328  0.0087  3.1904
  121OSM   H18T12838   4.541   5.462   8.852  1.8010 -0.0126 -0.7590
  121OSM   H18U12839   4.696   5.415   8.942 -1.6591 -2.2731 -2.6067
  121OSM    C1F12840   4.591   4.976  10.645  0.1376  1.1025 -0.1543
  121OSM     OF12841   4.472   4.986  10.665 -0.0379 -0.4724 -0.3305
  121OSM    C2F12842   4.663   4.854  10.592 -0.0833 -0.2320 -0.0081
  121OSM    H2F12843   4.686   4.787  10.677  1.1511 -0.2831 -0.3704
  121OSM    H2G12844   4.763   4.895  10.565  0.2553  0.1697  1.7459
  121OSM    C3F12845   4.591   4.788  10.474 -0.3822 -0.3253  1.0538
  121OSM    H3F12846   4.487   4.759  10.500  0.0777 -0.9950  2.2098
  121OSM    H3G12847   4.642   4.692  10.452 -3.9819 -1.9233 -1.2626
  121OSM    C4F12848   4.586   4.874  10.343 -0.0392 -0.1918 -0.2023
  121OSM    H4F12849   4.522   4.961  10.368 -0.3675 -0.8020  1.1305
  121OSM    H4G12850   4.540   4.802  10.272  0.9843  0.9385 -2.1075
  121OSM    C5F12851   4.719   4.910  10.285 -0.6692 -0.0006 -0.0934
  121OSM    H5F12852   4.782   4.821  10.263  0.3475  0.7127 -0.1209
  121OSM    H5G12853   4.780   4.984  10.341 -0.8353  0.4105 -0.4540
  121OSM    C6F12854   4.687   4.995  10.153 -0.1739  0.7608  0.9015
  121OSM    H6F12855   4.784   5.031  10.113  0.2176 -1.0315  0.1712
  121OSM    H6G12856   4.624   5.080  10.188 -0.2671  0.6911  0.9010
  121OSM    C7F12857   4.616   4.910  10.045  0.4154 -0.4619 -0.3291
  121OSM    H7F12858   4.510   4.902  10.077  0.8962  0.8888  1.8370
  121OSM    H7G12859   4.667   4.812  10.050 -1.1580 -1.2929  0.0384
  121OSM    C8F12860   4.618   4.987   9.911  0.6959 -0.2985  0.2868
  121OSM    H8F12861   4.721   5.019   9.882  0.9311  0.1116  1.4885
  121OSM    H8G12862   4.569   5.087   9.917  0.2021 -0.5980  1.5933
  121OSM    C9F12863   4.556   4.889   9.817  0.2311  0.4341  0.0284
  121OSM    H9F12864   4.489   4.821   9.872  0.8061  2.4180  3.4606
  121OSM   C10F12865   4.573   4.881   9.690 -0.0256  0.1902  0.0653
  121OSM   H10F12866   4.515   4.807   9.633  0.2084  0.0159  0.0542
  121OSM   C11F12867   4.651   4.978   9.603 -0.0534  0.5394  0.2079
  121OSM   H11F12868   4.759   4.957   9.593 -0.5385 -1.7310 -0.7904
  121OSM   H11G12869   4.645   5.086   9.630 -1.5368  0.9528 -1.5824
  121OSM   C12F12870   4.587   4.971   9.462 -0.1612 -0.0138  0.2008
  121OSM   H12F12871   4.479   4.994   9.475  0.1666  0.3480  2.9899
  121OSM   H12G12872   4.600   4.868   9.422 -2.3749 -1.7796  3.4586
  121OSM   C13F12873   4.642   5.072   9.364  0.2269  0.1460 -0.0045
  121OSM   H13F12874   4.671   5.160   9.426 -0.8594  0.4537  0.0875
  121OSM   H13G12875   4.560   5.107   9.298  2.2724  0.2947 -2.6400
  121OSM   C14F12876   4.758   5.016   9.287 -0.3550 -0.6921  0.6297
  121OSM   H14F12877   4.721   4.924   9.237 -0.9971 -0.6334  0.9824
  121OSM   H14G12878   4.839   4.991   9.359  1.5324 -0.5938 -1.3811
  121OSM   C15F12879   4.809   5.106   9.169  0.2328  0.2178  0.5208
  121OSM   H15F12880   4.863   5.191   9.215  0.6383  0.3681 -0.2097
  121OSM   H15G12881   4.711   5.131   9.124 -1.1949 -1.3563  2.5739
  121OSM   C16F12882   4.896   5.035   9.062 -0.2347  0.2767  0.0448
  121OSM   H16F12883   4.874   4.930   9.034  1.4161  0.1479 -0.9110
  121OSM   H16G12884   5.002   5.028   9.094 -0.5532  0.2318  1.1303
  121OSM   C17F12885   4.885   5.114   8.931 -0.1817 -0.2913 -0.3853
  121OSM   H17F12886   4.903   5.221   8.954  1.3410 -0.5551 -0.2627
  121OSM   H17G12887   4.785   5.110   8.883 -0.3620  0.8111 -0.1168
  121OSM   C18F12888   4.996   5.066   8.835  0.1518 -0.4776 -0.2169
  121OSM   H18F12889   4.974   4.995   8.753 -0.7918  3.1596 -3.4160
  121OSM   H18G12890   5.088   5.027   8.884 -0.2451  0.5097  1.3989
  121OSM   H18H12891   5.026   5.155   8.776  0.9038  0.4682  1.5007
  122OSM      N12892   5.827   3.526  11.150  0.3773  0.5207  0.0820
  122OSM    C1512893   5.753   3.416  11.221 -0.5718 -0.7611 -0.6055
  122OSM   H15A12894   5.728   3.443  11.323 -0.3177 -3.9089  0.4020
  122OSM   H15B12895   5.802   3.320  11.227 -1.4990 -1.1721  1.6299
  122OSM   H15C12896   5.657   3.391  11.179 -2.0083  0.8038  1.5733
  122OSM    C1412897   5.743   3.649  11.174  0.7989  0.6912 -0.0371
  122OSM   H14A12898   5.724   3.662  11.280  1.7311  2.8590 -0.0786
  122OSM   H14B12899   5.643   3.651  11.133 -0.0160  0.3634  1.8308
  122OSM   H14C12900   5.786   3.744  11.145 -0.7432  1.6070  0.5265
  122OSM    C1312901   5.950   3.550  11.218 -0.5306  0.4393  0.3185
  122OSM   H13A12902   5.939   3.558  11.325  1.4533  1.3833  0.5032
  122OSM   H13B12903   5.993   3.646  11.194  0.1446 -0.3174 -1.8246
  122OSM   H13C12904   6.017   3.469  11.192 -0.1557  0.7254  0.3855
  122OSM    C1212905   5.838   3.507  11.003  0.2987  0.3400 -0.2628
  122OSM   H12A12906   5.866   3.601  10.958 -0.0961  0.7148  0.2557
  122OSM   H12B12907   5.742   3.483  10.960  1.1582  0.9075 -2.7100
  122OSM    C1112908   5.939   3.393  10.955  0.9336  0.1026  0.1584
  122OSM   H11A12909   5.928   3.372  10.847  0.6143 -3.1351  0.7265
  122OSM   H11B12910   5.895   3.307  11.010  0.5196  1.6328  2.3420
  122OSM      P12911   6.151   3.544  10.913 -0.2065 -0.0021 -0.2655
  122OSM    O1312912   6.152   3.668  10.989  0.2225  0.0228 -0.0343
  122OSM    O1412913   6.283   3.496  10.875  0.0802  0.1049  0.1024
  122OSM    O1112914   6.061   3.556  10.779 -0.4890 -0.6812  0.0993
  122OSM    O1212915   6.075   3.417  10.989 -0.3315  0.0151  0.0158
  122OSM    C1S12916   6.098   3.483  10.664  0.5393 -0.4736  0.5033
  122OSM    H1S12917   6.056   3.380  10.666  1.3254 -0.9207 -2.0607
  122OSM    H1T12918   6.209   3.472  10.660  0.5280 -0.4636 -2.3721
  122OSM     NF12919   6.088   3.476  10.421  0.8515 -0.0060 -0.3792
  122OSM    HNF12920   6.164   3.493  10.359 -0.0510  1.3026 -1.1888
  122OSM    C2S12921   6.058   3.561  10.540 -0.4673 -0.2387  0.0517
  122OSM    H2S12922   5.947   3.569  10.541 -0.4306  0.5483 -0.8220
  122OSM    C3S12923   6.124   3.699  10.539  0.1308  0.0874  0.1933
  122OSM    H3S12924   6.235   3.691  10.546  0.0434 -2.3026 -0.2379
  122OSM     O312925   6.077   3.783  10.642 -0.1713 -0.1326 -0.3734
  122OSM    HO312926   6.044   3.726  10.712 -0.0849 -0.4024 -0.5541
  122OSM    C4S12927   6.108   3.767  10.413 -0.0986  0.0451 -0.8299
  122OSM    H4S12928   6.193   3.743  10.348  0.2858  0.4987 -0.5014
  122OSM    C5S12929   6.011   3.849  10.366 -0.3862 -0.1399 -0.3066
  122OSM    H5S12930   5.936   3.885  10.438  0.3715  0.4651  0.1937
  122OSM    C6S12931   6.017   3.914  10.230  0.4904  1.0042 -0.4050
  122OSM    H6S12932   6.079   4.006  10.241  2.4054 -0.0822 -1.5211
  122OSM    H6T12933   5.924   3.956  10.188  0.0482  1.1218  0.6666
  122OSM    C7S12934   6.099   3.839  10.122  0.4700 -0.3889 -0.6863
  122OSM    H7S12935   6.057   3.737  10.105 -1.5539  0.0398  1.3750
  122OSM    H7T12936   6.208   3.831  10.146  0.1732 -1.4569  0.4357
  122OSM    C8S12937   6.100   3.930   9.994 -0.1828 -0.3290 -0.4537
  122OSM    H8S12938   6.173   3.889   9.921 -0.1987  1.6769 -1.6606
  122OSM    H8T12939   6.152   4.025  10.021 -1.6021  0.7816 -1.5096
  122OSM    C9S12940   5.970   3.956   9.927  0.8728 -0.2800 -0.5908
  122OSM    H9S12941   5.910   4.021   9.993  1.5598 -2.1269  2.0223
  122OSM    H9T12942   5.911   3.865   9.901 -1.9005  1.3496 -0.3232
  122OSM   C10S12943   5.998   4.036   9.796  0.6687  1.0945 -0.6645
  122OSM   H10S12944   6.025   3.956   9.723 -2.9755 -2.0720  1.0960
  122OSM   H10T12945   6.081   4.108   9.810  0.1793  1.2015  2.3663
  122OSM   C11S12946   5.869   4.105   9.744  0.4211  0.2872  0.2394
  122OSM   H11S12947   5.881   4.215   9.729 -1.8967  0.4562 -0.8919
  122OSM   H11T12948   5.796   4.107   9.828  1.5148  0.2543  1.2149
  122OSM   C12S12949   5.820   4.049   9.608 -0.0593 -0.2810 -0.1543
  122OSM   H12S12950   5.718   4.084   9.581  0.5093 -0.0052 -2.0943
  122OSM   H12T12951   5.814   3.940   9.628  0.0891 -0.3731 -0.5941
  122OSM   C13S12952   5.910   4.082   9.496 -0.1827 -0.4384 -0.1114
  122OSM   H13S12953   6.013   4.047   9.517  0.0667  0.3808  0.0567
  122OSM   H13T12954   5.905   4.193   9.503  1.8045 -0.4298  3.4498
  122OSM   C14S12955   5.851   4.041   9.358 -0.4981 -0.3791  0.1784
  122OSM   H14S12956   5.749   4.079   9.335 -1.6489 -4.1599 -1.7829
  122OSM   H14T12957   5.840   3.932   9.345 -0.4334 -0.3550 -0.0777
  122OSM   C15S12958   5.941   4.077   9.244 -0.2373 -0.0387 -0.4492
  122OSM   H15S12959   6.008   3.990   9.228  0.9288  0.9650 -1.2061
  122OSM   H15T12960   5.998   4.169   9.265  1.4834 -0.9394 -1.0239
  122OSM   C16S12961   5.850   4.089   9.109 -0.2644  0.3959 -1.3640
  122OSM   H16S12962   5.809   4.190   9.089  0.4251  0.5419 -2.0998
  122OSM   H16T12963   5.770   4.014   9.123  0.5358 -0.0248  1.7771
  122OSM   C17S12964   5.938   4.076   8.988 -1.0371  0.0664  0.2236
  122OSM   H17S12965   5.987   3.976   8.995 -1.1062  0.1549  3.6667
  122OSM   H17T12966   6.026   4.141   9.007  0.6562 -2.1386  0.4541
  122OSM   C18S12967   5.863   4.098   8.854 -1.1001  0.0771 -0.1829
  122OSM   H18S12968   5.834   4.204   8.839  0.5662  0.9789  2.2492
  122OSM   H18T12969   5.766   4.046   8.837  0.7134 -3.1550 -1.6872
  122OSM   H18U12970   5.934   4.059   8.778  0.0705 -0.5897  1.2088
  122OSM    C1F12971   6.023   3.361  10.396 -0.3006  0.3928  0.1274
  122OSM     OF12972   5.921   3.324  10.463  0.0134 -0.0174 -0.3802
  122OSM    C2F12973   6.080   3.280  10.283 -0.4994  0.7602  0.2405
  122OSM    H2F12974   6.191   3.277  10.279 -0.5612 -0.2742 -1.9579
  122OSM    H2G12975   6.046   3.333  10.192 -0.0456 -1.5047 -1.3254
  122OSM    C3F12976   6.039   3.128  10.277  0.1931 -0.0234  0.2669
  122OSM    H3F12977   5.929   3.119  10.287 -0.0575  1.9318 -0.2618
  122OSM    H3G12978   6.086   3.076  10.363  1.1297  0.1886 -0.1068
  122OSM    C4F12979   6.087   3.056  10.147  0.3355  1.0436  0.4331
  122OSM    H4F12980   6.082   2.946  10.165  0.8188  0.7867 -0.8853
  122OSM    H4G12981   6.192   3.080  10.121  1.3538 -3.0413  0.1118
  122OSM    C5F12982   6.011   3.074  10.021  0.3766  0.4876  0.1238
  122OSM    H5F12983   6.018   3.183   9.998  1.9210  0.6374  1.1597
  122OSM    H5G12984   5.903   3.053  10.034  0.8973 -0.7586  3.3048
  122OSM    C6F12985   6.057   2.972   9.914  0.3717  0.1623  0.4463
  122OSM    H6F12986   6.024   2.872   9.950  0.8843 -0.1938 -0.0591
  122OSM    H6G12987   6.164   2.976   9.886 -0.1162 -0.0233 -1.6145
  122OSM    C7F12988   5.982   2.993   9.781  0.0749  0.1495  0.2306
  122OSM    H7F12989   6.021   3.079   9.723  1.7074 -0.5991  0.1611
  122OSM    H7G12990   5.878   3.024   9.806  0.6605  1.7437  0.8673
  122OSM    C8F12991   5.964   2.866   9.691  0.3429 -0.8878 -0.8156
  122OSM    H8F12992   5.922   2.776   9.741  2.0424 -2.2798 -1.7609
  122OSM    H8G12993   6.066   2.824   9.674  1.3002  0.1253  1.9152
  122OSM    C9F12994   5.890   2.899   9.571  0.1951  0.1836  0.3498
  122OSM    H9F12995   5.781   2.911   9.582  0.5750  2.8105  2.1682
  122OSM   C10F12996   5.939   2.936   9.452  0.7918 -0.2513 -0.2798
  122OSM   H10F12997   5.865   2.943   9.371  0.0510  0.1427  0.4154
  122OSM   C11F12998   6.086   2.943   9.428 -0.2478 -0.1876  0.5605
  122OSM   H11F12999   6.131   2.842   9.419 -1.2799 -0.7474  1.4164
  122OSM   H11G13000   6.138   2.999   9.509  0.4543  0.6573 -0.4440
  122OSM   C12F13001   6.118   3.032   9.309 -0.1798  0.2675  0.1674
  122OSM   H12F13002   6.217   3.078   9.325 -0.2183  0.2241  0.5403
  122OSM   H12G13003   6.041   3.111   9.294  0.7938  1.0180 -1.0568
  122OSM   C13F13004   6.131   2.936   9.184  0.2906 -0.8153 -0.0683
  122OSM   H13F13005   6.037   2.883   9.162 -1.4001  0.9828  2.2812
  122OSM   H13G13006   6.210   2.861   9.208  0.6715 -0.1255  0.9619
  122OSM   C14F13007   6.174   3.002   9.053  0.1535  0.0468  0.2662
  122OSM   H14F13008   6.115   3.095   9.040  0.1884  0.2363  1.3303
  122OSM   H14G13009   6.156   2.943   8.961  1.3903  0.7264 -0.4501
  122OSM   C15F13010   6.328   3.046   9.045  0.3847  0.2258  0.3896
  122OSM   H15F13011   6.393   2.957   9.055 -0.9153 -0.8133 -0.0235
  122OSM   H15G13012   6.349   3.114   9.130 -1.3414 -0.0953  1.1135
  122OSM   C16F13013   6.366   3.115   8.906 -0.2675  0.4490  0.6181
  122OSM   H16F13014   6.298   3.202   8.894  2.9723  3.0396 -0.5845
  122OSM   H16G13015   6.362   3.043   8.821 -0.0551 -0.3753  1.2861
  122OSM   C17F13016   6.508   3.181   8.911 -0.0590 -0.6212 -0.2524
  122OSM   H17F13017   6.597   3.118   8.929  0.3404  0.4909  1.9632
  122OSM   H17G13018   6.509   3.245   9.001  2.1697  0.6256 -1.0872
  122OSM   C18F13019   6.534   3.276   8.793 -0.2231 -0.3979  0.3775
  122OSM   H18F13020   6.549   3.219   8.698  0.9886  0.8257 -0.1914
  122OSM   H18G13021   6.630   3.321   8.824  0.8433 -3.4010  1.8882
  122OSM   H18H13022   6.453   3.352   8.792 -1.6659 -1.8560  1.4562
  123OSM      N13023   2.992   0.323   6.235  0.2421  0.3614 -0.0088
  123OSM    C1513024   2.965   0.215   6.132  0.0507  0.0725  0.1501
  123OSM   H15A13025   3.028   0.130   6.149 -0.2076 -0.3076 -0.7559
  123OSM   H15B13026   2.984   0.253   6.033  0.8328 -1.1320 -0.1756
  123OSM   H15C13027   2.864   0.178   6.142  0.0536 -0.1702 -0.6577
  123OSM    C1413028   2.899   0.439   6.200 -0.6218  0.7475  0.0160
  123OSM   H14A13029   2.900   0.513   6.279 -0.2199  0.3014  0.4344
  123OSM   H14B13030   2.797   0.410   6.182  0.1268 -0.4945 -2.7127
  123OSM   H14C13031   2.932   0.491   6.111 -0.2321  0.7400  0.1540
  123OSM    C1313032   2.948   0.260   6.370 -0.6933  0.4750  0.6167
  123OSM   H13A13033   2.841   0.250   6.376 -0.7125 -0.9412 -1.2271
  123OSM   H13B13034   2.983   0.330   6.444 -0.5519 -2.2068  3.2312
  123OSM   H13C13035   3.000   0.167   6.388  1.5958  1.1457 -1.8031
  123OSM    C1213036   3.130   0.363   6.243 -0.6610 -0.3950  0.2827
  123OSM   H12A13037   3.184   0.287   6.296  0.5230  0.7845  0.8245
  123OSM   H12B13038   3.144   0.449   6.306  1.0480  1.1065 -1.9631
  123OSM    C1113039   3.200   0.398   6.108  0.0991 -0.3718 -0.1519
  123OSM   H11A13040   3.198   0.311   6.039  0.0390 -0.6180  0.1592
  123OSM   H11B13041   3.309   0.407   6.123  0.4754 -1.6435 -1.7401
  123OSM      P13042   3.198   0.649   6.083  0.0716  0.0019  0.2822
  123OSM    O1313043   3.333   0.666   6.021 -0.6696 -0.0275  0.3877
  123OSM    O1413044   3.100   0.748   6.042  0.2140  0.2030 -0.7075
  123OSM    O1113045   3.204   0.637   6.244 -0.0834 -0.2001 -0.2083
  123OSM    O1213046   3.138   0.506   6.047  0.3052  0.2268 -0.0876
  123OSM    C1S13047   3.250   0.749   6.319 -0.2028 -0.2016 -0.3997
  123OSM    H1S13048   3.160   0.801   6.356 -0.6410 -0.4096 -1.1603
  123OSM    H1T13049   3.302   0.823   6.255 -0.9309  1.2577  0.6337
  123OSM     NF13050   3.389   0.822   6.509 -0.4690 -0.0335  0.1188
  123OSM    HNF13051   3.487   0.836   6.507 -0.7088  1.7377 -1.0887
  123OSM    C2S13052   3.338   0.704   6.441 -0.3776  0.6317  0.8061
  123OSM    H2S13053   3.285   0.639   6.512 -2.2273  4.1330  2.9031
  123OSM    C3S13054   3.452   0.617   6.385 -0.0724  0.4440 -0.2396
  123OSM    H3S13055   3.522   0.675   6.321 -0.6604  0.8958 -0.4868
  123OSM     O313056   3.416   0.509   6.305  0.3588  0.8727  0.4622
  123OSM    HO313057   3.327   0.541   6.288  0.2694 -0.2234 -1.3942
  123OSM    C4S13058   3.535   0.565   6.496  0.1628  0.0276  0.2433
  123OSM    H4S13059   3.612   0.643   6.512 -2.6363  2.8420  0.9743
  123OSM    C5S13060   3.535   0.448   6.564  0.1061 -0.4760 -0.2893
  123OSM    H5S13061   3.461   0.368   6.547 -2.2104  0.8902  2.6176
  123OSM    C6S13062   3.636   0.407   6.669  0.0444  0.2596 -0.8767
  123OSM    H6S13063   3.720   0.479   6.658 -1.6536  2.1915 -2.0959
  123OSM    H6T13064   3.673   0.305   6.647  0.2002 -0.2804  1.6192
  123OSM    C7S13065   3.596   0.409   6.817 -0.1960 -0.2352 -0.3364
  123OSM    H7S13066   3.507   0.350   6.848 -1.1232  2.2933  2.3253
  123OSM    H7T13067   3.567   0.512   6.844  0.2825 -0.9691  3.6218
  123OSM    C8S13068   3.706   0.389   6.917 -0.0816 -0.1003 -0.2760
  123OSM    H8S13069   3.794   0.445   6.879  2.0029 -4.4666 -2.7805
  123OSM    H8T13070   3.737   0.283   6.905 -1.6097 -0.5590 -0.4449
  123OSM    C9S13071   3.670   0.413   7.064  0.2052 -0.1267  0.1675
  123OSM    H9S13072   3.600   0.337   7.105 -0.7074  1.0313  0.8046
  123OSM    H9T13073   3.615   0.510   7.059 -2.2187 -1.4782 -1.2090
  123OSM   C10S13074   3.791   0.421   7.158  0.1924 -0.0602 -0.1556
  123OSM   H10S13075   3.858   0.502   7.123 -0.4620  0.2769 -0.6496
  123OSM   H10T13076   3.852   0.328   7.159  0.2939 -0.0206 -1.3785
  123OSM   C11S13077   3.743   0.458   7.299 -0.2883  1.0129 -0.3071
  123OSM   H11S13078   3.692   0.370   7.344  1.9311  0.2343  0.8356
  123OSM   H11T13079   3.676   0.546   7.301 -0.8733  0.5730 -0.1223
  123OSM   C12S13080   3.862   0.493   7.396  0.0642 -0.8800 -0.3739
  123OSM   H12S13081   3.905   0.594   7.379  1.9875 -1.0591  2.6479
  123OSM   H12T13082   3.943   0.419   7.378  0.5530 -0.0330 -1.9191
  123OSM   C13S13083   3.818   0.488   7.540  0.0369  0.2590 -0.5386
  123OSM   H13S13084   3.788   0.382   7.558  1.3417 -0.2723 -1.3274
  123OSM   H13T13085   3.725   0.547   7.553  0.5616  0.8910  0.4180
  123OSM   C14S13086   3.932   0.523   7.639 -0.1165 -0.3652 -0.3625
  123OSM   H14S13087   3.968   0.626   7.621  0.4896 -0.4846  0.1228
  123OSM   H14T13088   4.019   0.461   7.606 -2.0264 -2.3764 -1.9752
  123OSM   C15S13089   3.891   0.502   7.786 -0.3146 -0.2700  0.3225
  123OSM   H15S13090   3.870   0.393   7.795 -2.5345 -0.0227 -0.9881
  123OSM   H15T13091   3.801   0.566   7.799 -0.9873 -1.3004  0.9536
  123OSM   C16S13092   3.992   0.542   7.902 -0.3648  0.1423  0.3707
  123OSM   H16S13093   4.002   0.653   7.906  0.4452  0.0429  1.3682
  123OSM   H16T13094   4.095   0.508   7.881 -0.5149 -0.5150  0.6749
  123OSM   C17S13095   3.945   0.486   8.034 -0.1898 -0.8442 -0.7991
  123OSM   H17S13096   4.021   0.505   8.113 -0.6937 -0.7530 -0.3357
  123OSM   H17T13097   3.928   0.377   8.020  2.5011 -1.7469  1.9093
  123OSM   C18S13098   3.816   0.552   8.091  0.8544  0.2085 -0.7027
  123OSM   H18S13099   3.726   0.510   8.041  0.6913 -0.1456 -0.1169
  123OSM   H18T13100   3.823   0.663   8.090  0.2011  0.2676 -2.3435
  123OSM   H18U13101   3.813   0.530   8.199  2.7631  0.8759 -0.4837
  123OSM    C1F13102   3.308   0.906   6.571 -0.6055  0.4298 -0.2607
  123OSM     OF13103   3.190   0.882   6.591 -0.4157 -0.4635 -0.1590
  123OSM    C2F13104   3.370   1.040   6.600  0.5953 -0.3025  0.7540
  123OSM    H2F13105   3.367   1.106   6.511  0.5210 -0.6947  0.4621
  123OSM    H2G13106   3.479   1.027   6.617  1.1598  0.4781 -1.8296
  123OSM    C3F13107   3.278   1.103   6.705 -0.1757 -1.0449 -0.1090
  123OSM    H3F13108   3.175   1.113   6.664 -0.1598  0.5128  0.1590
  123OSM    H3G13109   3.306   1.210   6.720 -1.4511  0.0911 -4.4467
  123OSM    C4F13110   3.254   1.042   6.843  0.1422 -0.7655 -0.0795
  123OSM    H4F13111   3.341   1.070   6.906  0.0374  1.7855 -0.9820
  123OSM    H4G13112   3.246   0.931   6.844  2.7566 -1.1163 -3.0928
  123OSM    C5F13113   3.136   1.103   6.918 -0.1804  0.0027 -0.3940
  123OSM    H5F13114   3.044   1.111   6.857 -0.9509 -0.2136  0.6993
  123OSM    H5G13115   3.164   1.209   6.934 -0.1290 -0.0132 -0.3792
  123OSM    C6F13116   3.102   1.044   7.057 -0.4691  0.0574 -0.1329
  123OSM    H6F13117   3.028   1.117   7.096 -0.8996 -0.2066 -0.4500
  123OSM    H6G13118   3.193   1.046   7.121 -1.3249 -1.4287  1.2055
  123OSM    C7F13119   3.025   0.916   7.041 -0.1473  0.3158 -0.2454
  123OSM    H7F13120   3.088   0.842   6.987 -0.0996  1.3519 -1.6301
  123OSM    H7G13121   2.936   0.941   6.980  0.5830  2.2829 -0.5580
  123OSM    C8F13122   2.981   0.860   7.179  0.5372  0.6406 -0.2553
  123OSM    H8F13123   2.892   0.802   7.145  0.9152  1.6438 -3.2088
  123OSM    H8G13124   2.948   0.943   7.244 -3.3964 -1.4996  0.8333
  123OSM    C9F13125   3.076   0.770   7.257  0.1290  0.0590  0.3430
  123OSM    H9F13126   3.143   0.710   7.193  0.4809  2.8665 -2.1730
  123OSM   C10F13127   3.103   0.769   7.386  0.1747  0.1054 -0.0629
  123OSM   H10F13128   3.164   0.687   7.425  1.5791  1.7687  1.4107
  123OSM   C11F13129   3.038   0.860   7.488  0.1118  0.2380 -0.5552
  123OSM   H11F13130   2.945   0.907   7.449 -1.1203  0.1678  2.0206
  123OSM   H11G13131   3.115   0.938   7.508  2.3015 -1.8724 -0.3800
  123OSM   C12F13132   3.016   0.797   7.625  0.0542  0.5440  0.1120
  123OSM   H12F13133   2.975   0.694   7.616  0.2986  0.3754  0.8502
  123OSM   H12G13134   2.938   0.854   7.680 -0.5198  1.0346 -1.1687
  123OSM   C13F13135   3.139   0.784   7.710 -0.1045 -0.0641  0.3329
  123OSM   H13F13136   3.194   0.881   7.710  0.9386 -0.6374 -0.6928
  123OSM   H13G13137   3.211   0.714   7.663  1.7378  1.3384  0.9082
  123OSM   C14F13138   3.118   0.746   7.851  0.3177 -0.3261 -0.1736
  123OSM   H14F13139   3.220   0.726   7.890 -0.3634  0.3992  2.1414
  123OSM   H14G13140   3.057   0.653   7.849 -0.1105 -0.0328 -1.1954
  123OSM   C15F13141   3.041   0.852   7.941  0.0873 -0.2272  0.3353
  123OSM   H15F13142   2.937   0.850   7.901  0.0732 -2.8430  0.3066
  123OSM   H15G13143   3.085   0.952   7.923 -1.9897  0.6318 -0.3064
  123OSM   C16F13144   3.015   0.819   8.090  0.0585  1.0242 -0.5354
  123OSM   H16F13145   2.970   0.908   8.140 -0.6470  1.4372 -1.8602
  123OSM   H16G13146   3.112   0.811   8.145  0.4554 -0.5224 -1.4164
  123OSM   C17F13147   2.935   0.688   8.112 -0.4978  0.1604 -0.1994
  123OSM   H17F13148   3.001   0.599   8.102  0.4361  0.6634  1.2726
  123OSM   H17G13149   2.853   0.686   8.037  0.9968 -0.3809 -1.8836
  123OSM   C18F13150   2.881   0.678   8.245 -0.1169  0.0258 -0.0955
  123OSM   H18F13151   2.805   0.596   8.249 -0.4010  0.1522 -2.0575
  123OSM   H18G13152   2.826   0.771   8.268 -1.0275 -0.1401 -1.5111
  123OSM   H18H13153   2.956   0.670   8.326 -0.4817 -2.1008  0.1076
  124OSM      N13154   0.476   5.474   6.267  0.2715  0.2044  0.1937
  124OSM    C1513155   0.586   5.368   6.265  0.1133 -0.5405 -0.0554
  124OSM   H15A13156   0.666   5.389   6.195 -0.2786  1.4264  0.0086
  124OSM   H15B13157   0.549   5.274   6.229 -0.2443 -1.5424  2.7095
  124OSM   H15C13158   0.614   5.350   6.367 -0.2683 -2.6583 -0.2905
  124OSM    C1413159   0.547   5.592   6.328  0.5417  0.5537  0.4588
  124OSM   H14A13160   0.641   5.616   6.281  0.0455 -0.1882 -0.9691
  124OSM   H14B13161   0.563   5.564   6.431  1.0022 -2.5931 -0.3659
  124OSM   H14C13162   0.483   5.679   6.324 -1.6228 -0.9919 -0.3233
  124OSM    C1313163   0.439   5.498   6.119 -0.0702 -0.4326 -0.2320
  124OSM   H13A13164   0.525   5.523   6.059  0.8415  1.2277  1.6427
  124OSM   H13B13165   0.379   5.587   6.107  1.4502  0.6129 -0.2654
  124OSM   H13C13166   0.389   5.409   6.083 -2.0860  0.8112 -0.6651
  124OSM    C1213167   0.349   5.444   6.353  0.0719 -0.3474  0.4943
  124OSM   H12A13168   0.280   5.527   6.344  0.8079  0.5769  2.5607
  124OSM   H12B13169   0.377   5.437   6.457  0.8361 -1.0695  0.2497
  124OSM    C1113170   0.274   5.323   6.305 -0.0424 -0.1071  0.9382
  124OSM   H11A13171   0.338   5.239   6.338 -0.8050 -0.5778  1.2563
  124OSM   H11B13172   0.254   5.312   6.196 -2.3775  0.4018  1.2571
  124OSM      P13173   0.010   5.382   6.339  0.4526 -0.1869 -0.3675
  124OSM    O1313174   0.010   5.498   6.248  0.0256  0.1964  0.0759
  124OSM    O1413175  -0.062   5.263   6.291  0.0990  0.0783  0.7154
  124OSM    O1113176  -0.052   5.412   6.480 -0.3885 -0.4550 -0.3455
  124OSM    O1213177   0.152   5.330   6.376 -0.3561  0.2845  0.1094
  124OSM    C1S13178   0.036   5.396   6.595  0.3730  0.2012  0.2981
  124OSM    H1S13179   0.135   5.446   6.584  0.4911  0.2203  1.3650
  124OSM    H1T13180   0.052   5.287   6.611  1.6908  0.5430  1.5460
  124OSM     NF13181   0.075   5.454   6.836  0.4912  0.1620 -0.2073
  124OSM    HNF13182   0.078   5.379   6.901 -1.5499 -0.1565 -0.4209
  124OSM    C2S13183  -0.017   5.462   6.725 -0.1387 -0.0783 -0.0187
  124OSM    H2S13184  -0.034   5.569   6.704  1.0616  0.5412  1.9091
  124OSM    C3S13185  -0.154   5.393   6.761  0.0771  0.3980  0.6584
  124OSM    H3S13186  -0.137   5.285   6.777  0.7339  0.6852  2.0869
  124OSM     O313187  -0.246   5.389   6.655 -0.0316  0.3769  0.4515
  124OSM    HO313188  -0.200   5.421   6.577 -0.8148  0.5475  0.0539
  124OSM    C4S13189  -0.214   5.444   6.890 -0.4277  0.2428  0.3299
  124OSM    H4S13190  -0.190   5.381   6.978 -1.4758  0.0343  0.4709
  124OSM    C5S13191  -0.300   5.541   6.891 -0.2253 -0.4640  0.3870
  124OSM    H5S13192  -0.323   5.605   6.805 -0.9972  0.9989  1.6273
  124OSM    C6S13193  -0.375   5.591   7.013 -0.4756  0.0554 -0.4389
  124OSM    H6S13194  -0.482   5.573   6.990  0.2275 -2.0400 -2.4667
  124OSM    H6T13195  -0.350   5.698   7.029 -0.2489 -0.0387 -0.1514
  124OSM    C7S13196  -0.343   5.524   7.149 -0.1329  0.8532  0.4574
  124OSM    H7S13197  -0.239   5.557   7.169  0.2487  2.7082 -3.4315
  124OSM    H7T13198  -0.339   5.414   7.138  1.7775  1.0860 -2.3370
  124OSM    C8S13199  -0.435   5.567   7.258 -0.6580  0.7071  0.0628
  124OSM    H8S13200  -0.529   5.515   7.230 -0.1119 -0.4357  0.3067
  124OSM    H8T13201  -0.462   5.675   7.252  0.7530  1.0420 -0.6769
  124OSM    C9S13202  -0.381   5.526   7.396  0.2074 -0.5073  0.2592
  124OSM    H9S13203  -0.296   5.594   7.417  0.6986 -0.6316 -1.1887
  124OSM    H9T13204  -0.334   5.425   7.390  0.3253 -0.5913  1.9598
  124OSM   C10S13205  -0.490   5.537   7.501 -0.5010  0.7714 -0.2098
  124OSM   H10S13206  -0.587   5.498   7.465 -1.2476  1.9573  0.4418
  124OSM   H10T13207  -0.525   5.642   7.510  1.8725  2.2508 -5.1064
  124OSM   C11S13208  -0.462   5.476   7.644 -1.2025  0.4053  0.6120
  124OSM   H11S13209  -0.362   5.508   7.681 -0.3369 -1.9198  0.5085
  124OSM   H11T13210  -0.450   5.365   7.645  1.2973  0.5726  3.2368
  124OSM   C12S13211  -0.563   5.516   7.754 -0.2274  0.2489 -0.1779
  124OSM   H12S13212  -0.658   5.471   7.717 -0.9607  2.0017 -0.5441
  124OSM   H12T13213  -0.569   5.627   7.753 -0.3982  0.3224  2.3818
  124OSM   C13S13214  -0.522   5.473   7.896 -0.1590  0.5227 -0.0014
  124OSM   H13S13215  -0.418   5.506   7.920  0.1584 -0.4814  0.0853
  124OSM   H13T13216  -0.539   5.363   7.906  1.0410  0.5148  3.1779
  124OSM   C14S13217  -0.622   5.534   7.994 -0.2577 -0.0490  0.3848
  124OSM   H14S13218  -0.720   5.488   7.971 -0.6110  1.4390 -1.2889
  124OSM   H14T13219  -0.613   5.645   7.992  1.2959 -0.1394  0.7192
  124OSM   C15S13220  -0.584   5.486   8.140 -0.2826  0.0363 -0.4736
  124OSM   H15S13221  -0.506   5.562   8.162 -1.3531  1.2017 -0.5848
  124OSM   H15T13222  -0.548   5.381   8.143 -0.5315 -0.0384 -0.0870
  124OSM   C16S13223  -0.696   5.491   8.249 -0.3999 -0.8697 -0.0623
  124OSM   H16S13224  -0.775   5.415   8.234 -0.2687 -1.0891  0.3271
  124OSM   H16T13225  -0.748   5.589   8.247  1.4904  0.2199  0.6940
  124OSM   C17S13226  -0.640   5.478   8.390 -0.4882  0.1866 -0.1868
  124OSM   H17S13227  -0.555   5.550   8.393  1.0946 -1.5998 -0.5256
  124OSM   H17T13228  -0.595   5.377   8.398 -0.6248 -0.0391 -1.8391
  124OSM   C18S13229  -0.743   5.510   8.503  0.3600 -0.9250  0.2087
  124OSM   H18S13230  -0.815   5.427   8.516 -0.0173 -0.5099  0.7997
  124OSM   H18T13231  -0.799   5.605   8.496 -2.6808 -2.5455  0.6481
  124OSM   H18U13232  -0.685   5.500   8.597  1.8643 -1.1280 -0.6961
  124OSM    C1F13233   0.185   5.528   6.843 -0.6645  0.6296  0.0701
  124OSM     OF13234   0.212   5.609   6.764  0.5370 -0.2942  0.8081
  124OSM    C2F13235   0.282   5.491   6.951 -0.3590  0.4365  0.1388
  124OSM    H2F13236   0.322   5.388   6.947 -2.3631 -0.3518 -1.0023
  124OSM    H2G13237   0.230   5.493   7.050 -1.7614  1.1769 -0.5815
  124OSM    C3F13238   0.409   5.579   6.950  0.2294 -0.3383  0.5522
  124OSM    H3F13239   0.462   5.600   6.855  1.3000 -0.4949  1.1009
  124OSM    H3G13240   0.486   5.541   7.021  1.0853 -2.0607 -1.2290
  124OSM    C4F13241   0.381   5.725   7.003 -0.6451 -0.0076  0.3989
  124OSM    H4F13242   0.342   5.788   6.921 -1.7018 -0.3914  0.5897
  124OSM    H4G13243   0.482   5.769   7.016 -0.0789 -1.5056  1.4150
  124OSM    C5F13244   0.304   5.750   7.136 -0.4304 -0.2813  0.3961
  124OSM    H5F13245   0.197   5.728   7.114 -0.3712 -1.7428  1.4146
  124OSM    H5G13246   0.305   5.857   7.165  0.6590 -0.0577 -0.3760
  124OSM    C6F13247   0.370   5.667   7.248  0.3338  0.5311  0.1386
  124OSM    H6F13248   0.479   5.688   7.249  0.3022  0.7136 -0.0878
  124OSM    H6G13249   0.359   5.558   7.226  1.4704  0.5171 -0.4582
  124OSM    C7F13250   0.301   5.700   7.382 -0.1844 -0.2213  0.1439
  124OSM    H7F13251   0.194   5.673   7.367 -0.1701 -1.0603  1.3541
  124OSM    H7G13252   0.303   5.810   7.392 -0.9464 -0.0974 -0.9362
  124OSM    C8F13253   0.353   5.623   7.503  0.3039  0.5374 -0.0736
  124OSM    H8F13254   0.462   5.632   7.522  0.9262 -2.3643 -1.6094
  124OSM    H8G13255   0.335   5.516   7.480 -1.6302  0.5418  1.1498
  124OSM    C9F13256   0.280   5.668   7.623 -0.7100 -0.1498  0.5348
  124OSM    H9F13257   0.180   5.706   7.596  0.0070  2.2927  1.1335
  124OSM   C10F13258   0.325   5.685   7.746  0.7977  0.1744  0.2527
  124OSM   H10F13259   0.262   5.706   7.833  1.0540 -1.6836  0.9309
  124OSM   C11F13260   0.457   5.647   7.795 -0.2164  0.8939  0.3296
  124OSM   H11F13261   0.525   5.710   7.734 -1.7414  0.8151 -1.5534
  124OSM   H11G13262   0.488   5.540   7.788  0.1017  0.9382  0.9923
  124OSM   C12F13263   0.480   5.676   7.945  0.3349 -0.0674 -0.5583
  124OSM   H12F13264   0.478   5.785   7.968  1.5033 -0.5104  1.9827
  124OSM   H12G13265   0.581   5.648   7.981  0.2458  2.3905  1.9653
  124OSM   C13F13266   0.385   5.592   8.039 -0.6834 -0.0147  0.4365
  124OSM   H13F13267   0.378   5.484   8.015  0.4204  0.0073 -0.0430
  124OSM   H13G13268   0.282   5.632   8.027 -0.2928  1.0883  0.6959
  124OSM   C14F13269   0.413   5.621   8.186  0.0747  0.0122 -0.3567
  124OSM   H14F13270   0.400   5.731   8.193  0.7124  0.1441 -1.1848
  124OSM   H14G13271   0.519   5.605   8.214  0.5336  3.3104  0.1893
  124OSM   C15F13272   0.320   5.547   8.289 -0.3783  0.0938 -0.1046
  124OSM   H15F13273   0.362   5.445   8.304  1.1943  0.4308 -1.8374
  124OSM   H15G13274   0.222   5.530   8.240 -0.5549 -1.9246  0.8446
  124OSM   C16F13275   0.296   5.624   8.418 -0.0051  0.1944  0.0150
  124OSM   H16F13276   0.210   5.573   8.464  0.5565 -0.3883  0.4316
  124OSM   H16G13277   0.253   5.724   8.395  2.2545  1.4212  0.7235
  124OSM   C17F13278   0.428   5.634   8.506  0.2488 -0.3182 -0.9764
  124OSM   H17F13279   0.507   5.695   8.458  0.6778  0.4165  0.6206
  124OSM   H17G13280   0.467   5.532   8.529 -0.1230  0.3259  3.1615
  124OSM   C18F13281   0.400   5.686   8.647 -0.2842  0.9168  0.5567
  124OSM   H18F13282   0.377   5.793   8.625 -1.6855  0.6127  0.4315
  124OSM   H18G13283   0.484   5.669   8.717  1.0577 -1.0733 -1.4309
  124OSM   H18H13284   0.312   5.629   8.682 -0.1313 -0.0683 -0.6142
  125OSM      N13285   5.756   6.727   6.375  0.9852  0.1605  0.1030
  125OSM    C1513286   5.653   6.623   6.334 -0.5376 -0.8760 -1.2665
  125OSM   H15A13287   5.571   6.666   6.279 -0.3370  0.3793 -0.6286
  125OSM   H15B13288   5.610   6.585   6.425 -0.7035 -0.1103 -1.0138
  125OSM   H15C13289   5.700   6.541   6.282  1.7676 -0.4106 -0.0815
  125OSM    C1413290   5.692   6.843   6.452  0.0886  0.3271  0.9568
  125OSM   H14A13291   5.622   6.903   6.395 -0.0562  0.4605  1.2730
  125OSM   H14B13292   5.773   6.906   6.487  0.2425  1.0359 -0.5794
  125OSM   H14C13293   5.654   6.804   6.545  1.6040 -0.8624  1.1183
  125OSM    C1313294   5.858   6.664   6.461 -0.1262  0.3552  0.3027
  125OSM   H13A13295   5.912   6.580   6.419 -1.3336 -0.8958  1.1963
  125OSM   H13B13296   5.815   6.634   6.555  0.6212 -0.2436  0.4680
  125OSM   H13C13297   5.933   6.742   6.464 -0.1708  0.3897  0.5090
  125OSM    C1213298   5.813   6.789   6.253  0.2517  0.5217  0.3269
  125OSM   H12A13299   5.735   6.840   6.198  0.3050  0.0451 -0.1842
  125OSM   H12B13300   5.864   6.717   6.191  1.4118  0.3767  1.4019
  125OSM    C1113301   5.923   6.897   6.271  0.3585  0.4598  0.2043
  125OSM   H11A13302   5.876   6.984   6.321 -0.3122  0.9689 -1.2535
  125OSM   H11B13303   5.955   6.932   6.171 -0.3270 -1.2861 -0.6788
  125OSM      P13304   6.175   6.818   6.273 -0.5641  0.0564  0.5183
  125OSM    O1313305   6.169   6.691   6.198  0.5465  0.0728  0.2690
  125OSM    O1413306   6.218   6.940   6.205  0.5943 -0.2037 -0.2655
  125OSM    O1113307   6.273   6.796   6.398 -0.5596 -0.0293 -0.3942
  125OSM    O1213308   6.034   6.846   6.336 -0.4158 -0.0354  0.1010
  125OSM    C1S13309   6.210   6.806   6.527  0.2742  0.0009  0.2889
  125OSM    H1S13310   6.140   6.722   6.543 -0.5225  0.8505  1.4098
  125OSM    H1T13311   6.150   6.898   6.543 -0.8174 -0.5192 -0.6857
  125OSM     NF13312   6.224   6.824   6.765  0.0383  0.5516 -0.6139
  125OSM    HNF13313   6.209   6.910   6.813 -1.2661  1.6707 -2.8480
  125OSM    C2S13314   6.309   6.814   6.648 -0.4394  1.0121 -0.2167
  125OSM    H2S13315   6.364   6.718   6.647 -1.4265  0.3872 -2.8931
  125OSM    C3S13316   6.412   6.933   6.629  0.3118 -0.3605  0.2155
  125OSM    H3S13317   6.355   7.028   6.645  0.9985 -0.1199  1.3715
  125OSM     O313318   6.463   6.937   6.494  0.5026 -0.2341  0.5395
  125OSM    HO313319   6.405   6.879   6.444 -0.0877 -0.2936  1.2611
  125OSM    C4S13320   6.515   6.929   6.735 -0.2290  0.1571  0.1347
  125OSM    H4S13321   6.486   6.962   6.836  1.0888  0.9696  0.2787
  125OSM    C5S13322   6.644   6.885   6.714  0.0759 -0.3446  0.3262
  125OSM    H5S13323   6.692   6.869   6.616  0.5497 -0.3255  0.5498
  125OSM    C6S13324   6.740   6.868   6.831  0.2086 -0.3595  0.5918
  125OSM    H6S13325   6.832   6.923   6.802  0.0490 -0.8920 -1.0103
  125OSM    H6T13326   6.778   6.764   6.827  1.4675  0.0449  1.4536
  125OSM    C7S13327   6.698   6.917   6.972  0.2611  0.1072 -0.4972
  125OSM    H7S13328   6.602   6.868   6.998 -0.3755  0.3253 -2.2679
  125OSM    H7T13329   6.685   7.028   6.975 -2.4214 -0.1335 -0.8519
  125OSM    C8S13330   6.798   6.894   7.084  0.2842  0.0305  0.5845
  125OSM    H8S13331   6.887   6.960   7.076 -0.0716  0.7282  2.0383
  125OSM    H8T13332   6.820   6.786   7.072 -0.0608 -0.1874  1.7270
  125OSM    C9S13333   6.742   6.922   7.221  0.1284  0.2228 -0.4269
  125OSM    H9S13334   6.645   6.868   7.214  0.6872 -0.5377 -3.2034
  125OSM    H9T13335   6.732   7.031   7.235  1.6019  0.2457  0.7830
  125OSM   C10S13336   6.832   6.881   7.337  0.6291  0.5188 -0.1501
  125OSM   H10S13337   6.929   6.934   7.339  1.1035 -0.2194  3.6660
  125OSM   H10T13338   6.853   6.776   7.306  0.4582  0.3098  0.4215
  125OSM   C11S13339   6.773   6.889   7.479 -0.9232 -0.1669  0.0261
  125OSM   H11S13340   6.678   6.834   7.463 -0.2826 -1.0914 -0.7201
  125OSM   H11T13341   6.743   6.995   7.491 -1.5890 -0.3242 -0.2237
  125OSM   C12S13342   6.846   6.821   7.592 -0.2783 -0.8653  0.1278
  125OSM   H12S13343   6.914   6.905   7.618  0.0118 -1.4378  1.2883
  125OSM   H12T13344   6.903   6.738   7.546 -1.5432 -0.8219 -1.6043
  125OSM   C13S13345   6.750   6.782   7.706 -0.1462  0.4651  0.2857
  125OSM   H13S13346   6.687   6.699   7.666  1.2651 -0.2878 -0.4611
  125OSM   H13T13347   6.687   6.870   7.730 -0.3524  0.0903  1.1647
  125OSM   C14S13348   6.829   6.745   7.827 -0.0094  0.2729  0.1061
  125OSM   H14S13349   6.906   6.824   7.843  1.1328 -0.7849 -0.0643
  125OSM   H14T13350   6.881   6.649   7.808 -0.7340  0.1766 -1.4742
  125OSM   C15S13351   6.735   6.741   7.949  0.4027 -0.1018  0.4904
  125OSM   H15S13352   6.660   6.664   7.922  1.6115 -1.2691  0.3137
  125OSM   H15T13353   6.693   6.843   7.963  0.2737  0.0141 -0.6507
  125OSM   C16S13354   6.805   6.697   8.081 -0.2439 -0.0873 -0.1255
  125OSM   H16S13355   6.761   6.734   8.176  1.1559  1.2442  0.0362
  125OSM   H16T13356   6.897   6.757   8.096  0.4133 -1.2475  0.6178
  125OSM   C17S13357   6.833   6.549   8.075 -0.5910  0.1050 -0.5127
  125OSM   H17S13358   6.872   6.530   7.973  0.8891 -0.8284  0.1827
  125OSM   H17T13359   6.745   6.481   8.086  0.5469 -1.7956 -2.3918
  125OSM   C18S13360   6.947   6.506   8.170  0.3206 -0.3147  0.9849
  125OSM   H18S13361   7.020   6.590   8.171 -0.3904  0.3409 -0.0902
  125OSM   H18T13362   6.992   6.407   8.146 -0.2972 -0.1705 -0.8961
  125OSM   H18U13363   6.903   6.500   8.272 -0.2706  4.1433  1.1701
  125OSM    C1F13364   6.160   6.722   6.817 -0.0725  0.4672 -0.3060
  125OSM     OF13365   6.161   6.612   6.760  0.6816  0.3020  0.2851
  125OSM    C2F13366   6.095   6.743   6.944  0.0017  0.7821  0.1926
  125OSM    H2F13367   5.989   6.712   6.932  0.3505 -0.0171 -1.0234
  125OSM    H2G13368   6.115   6.851   6.962  1.8455  1.1140 -3.0690
  125OSM    C3F13369   6.159   6.654   7.053  0.6083  0.2493 -0.3359
  125OSM    H3F13370   6.156   6.553   7.007 -3.7147 -0.6013  1.3889
  125OSM    H3G13371   6.090   6.658   7.140  0.6022  1.3734 -0.3774
  125OSM    C4F13372   6.297   6.704   7.106 -0.7571 -0.2558  0.6732
  125OSM    H4F13373   6.291   6.814   7.121  2.6354 -0.0592  1.2612
  125OSM    H4G13374   6.360   6.692   7.015 -1.3791 -0.2055  0.2199
  125OSM    C5F13375   6.363   6.640   7.227 -0.3177  0.4324 -0.1473
  125OSM    H5F13376   6.443   6.716   7.241  0.3689 -0.4531  0.9322
  125OSM    H5G13377   6.417   6.552   7.186  1.2913  0.8268  1.0136
  125OSM    C6F13378   6.285   6.611   7.357 -0.2945 -0.1003 -0.9721
  125OSM    H6F13379   6.232   6.514   7.354 -1.8862  0.7682 -2.1149
  125OSM    H6G13380   6.212   6.695   7.366 -2.0889 -1.7927  1.2933
  125OSM    C7F13381   6.388   6.607   7.465 -0.0699  0.0037 -0.3768
  125OSM    H7F13382   6.436   6.706   7.481  0.9852 -0.4929 -0.3858
  125OSM    H7G13383   6.467   6.532   7.444  1.4551  0.5346  2.8294
  125OSM    C8F13384   6.322   6.568   7.602 -0.0894  0.0650  0.7637
  125OSM    H8F13385   6.418   6.562   7.657  1.2339 -0.1248 -1.4172
  125OSM    H8G13386   6.285   6.464   7.608 -0.4420  0.2317  1.6683
  125OSM    C9F13387   6.218   6.660   7.653  0.0992 -0.5101 -0.8235
  125OSM    H9F13388   6.149   6.690   7.572  2.0939  0.3203 -2.3021
  125OSM   C10F13389   6.214   6.716   7.774 -0.4144  0.7319 -0.4088
  125OSM   H10F13390   6.125   6.773   7.803  0.5112  1.8653  0.3064
  125OSM   C11F13391   6.320   6.701   7.884 -0.0129  0.7498 -0.4994
  125OSM   H11F13392   6.364   6.799   7.915  1.6987 -0.3624  0.7850
  125OSM   H11G13393   6.399   6.633   7.847 -0.9695 -1.8018  1.8300
  125OSM   C12F13394   6.264   6.634   8.011  0.7561 -0.3917  0.2694
  125OSM   H12F13395   6.188   6.701   8.058  1.1283 -0.0741  0.4260
  125OSM   H12G13396   6.347   6.621   8.085  0.5545 -1.5870  0.3055
  125OSM   C13F13397   6.202   6.495   7.986 -0.1328 -0.0387  0.0101
  125OSM   H13F13398   6.282   6.418   7.973 -0.5350 -0.2056 -1.7102
  125OSM   H13G13399   6.150   6.497   7.887  1.0248  2.5877 -0.6518
  125OSM   C14F13400   6.104   6.464   8.104 -0.7095  0.5966 -0.1742
  125OSM   H14F13401   6.045   6.371   8.093 -0.0379 -0.0931  1.7704
  125OSM   H14G13402   6.030   6.547   8.099 -1.0478  0.3188  0.1764
  125OSM   C15F13403   6.166   6.457   8.249 -0.4056 -0.5423 -0.1912
  125OSM   H15F13404   6.214   6.550   8.286 -1.7233  0.2257 -0.3871
  125OSM   H15G13405   6.241   6.374   8.245  0.2891  0.0066  0.8917
  125OSM   C16F13406   6.062   6.429   8.356  0.6462 -0.5732  0.1267
  125OSM   H16F13407   6.043   6.320   8.343 -0.4769 -0.3221 -0.4768
  125OSM   H16G13408   5.974   6.493   8.335  1.2772  0.8858  1.6970
  125OSM   C17F13409   6.098   6.448   8.503 -0.4141  0.1556  0.7154
  125OSM   H17F13410   6.008   6.417   8.561 -0.5139 -0.4355  0.2470
  125OSM   H17G13411   6.114   6.555   8.531 -0.9477  0.8987 -1.5921
  125OSM   C18F13412   6.222   6.369   8.553 -0.0392  0.2615 -0.0734
  125OSM   H18F13413   6.313   6.430   8.570  1.3185 -1.4602 -0.8224
  125OSM   H18G13414   6.238   6.291   8.476 -2.6800  0.8510 -1.3473
  125OSM   H18H13415   6.191   6.313   8.644 -1.7702 -0.2846 -0.9441
  126OSM      N13416   4.047   5.088   6.269  0.4414  0.5179 -0.1511
  126OSM    C1513417   4.142   4.978   6.230  0.1093 -0.7886 -0.6676
  126OSM   H15A13418   4.238   5.001   6.275 -0.8220  0.6123  0.7305
  126OSM   H15B13419   4.150   4.969   6.123  1.5182 -0.4434 -0.6133
  126OSM   H15C13420   4.109   4.886   6.276 -0.8089 -0.2875 -0.2944
  126OSM    C1413421   4.109   5.212   6.228 -0.0986  0.7173 -0.2836
  126OSM   H14A13422   4.053   5.299   6.261  0.6789  1.0287  0.2367
  126OSM   H14B13423   4.110   5.227   6.121  3.3233 -0.3925 -0.5074
  126OSM   H14C13424   4.213   5.215   6.255 -0.6464  0.4743  2.0679
  126OSM    C1313425   3.919   5.070   6.200 -0.0869  0.2217  0.5107
  126OSM   H13A13426   3.877   4.976   6.234  0.6166  0.8826  3.4816
  126OSM   H13B13427   3.938   5.085   6.095 -0.9488 -0.7955  0.1952
  126OSM   H13C13428   3.852   5.149   6.231  1.1896  1.6495 -0.2279
  126OSM    C1213429   4.013   5.084   6.414  0.6166  0.1615 -0.4066
  126OSM   H12A13430   4.104   5.077   6.472 -0.4120 -1.7482  1.1251
  126OSM   H12B13431   3.958   4.991   6.419 -1.4689  1.2660 -1.8178
  126OSM    C1113432   3.936   5.204   6.476 -0.4491  0.2058 -0.1910
  126OSM   H11A13433   4.013   5.284   6.466  0.8554 -1.2382 -2.8963
  126OSM   H11B13434   3.916   5.170   6.580  2.2699 -0.8604  0.0773
  126OSM      P13435   3.739   5.365   6.478  0.1297  0.2635 -0.1780
  126OSM    O1313436   3.823   5.481   6.464  0.0595  0.5277  0.3198
  126OSM    O1413437   3.599   5.372   6.429  0.7810  0.1983  0.2223
  126OSM    O1113438   3.734   5.319   6.628  0.4223  0.5646  0.0414
  126OSM    O1213439   3.815   5.240   6.408  0.1862 -0.1765  0.0365
  126OSM    C1S13440   3.689   5.406   6.732  0.1457 -0.0147 -0.1631
  126OSM    H1S13441   3.583   5.428   6.707  0.0296  1.1525  1.2232
  126OSM    H1T13442   3.756   5.494   6.743 -1.6970  1.7978 -2.4530
  126OSM     NF13443   3.624   5.430   6.956 -0.7255 -0.6132 -0.7752
  126OSM    HNF13444   3.679   5.468   7.029 -0.9200  0.2216 -1.0441
  126OSM    C2S13445   3.691   5.336   6.877 -0.0864 -0.1912 -0.7072
  126OSM    H2S13446   3.628   5.245   6.863  0.0255 -0.4833  0.5641
  126OSM    C3S13447   3.841   5.307   6.918 -0.6656  0.5910 -0.1017
  126OSM    H3S13448   3.887   5.408   6.921  0.9912 -0.1142  2.9002
  126OSM     O313449   3.912   5.223   6.832 -0.2081 -0.3526  0.8027
  126OSM    HO313450   3.882   5.245   6.743  1.6498 -1.1722 -0.0865
  126OSM    C4S13451   3.852   5.257   7.061  0.1008 -0.8092 -0.3470
  126OSM    H4S13452   3.897   5.335   7.123 -0.0690  0.1196 -1.3545
  126OSM    C5S13453   3.843   5.131   7.108 -0.3798  0.3792 -0.6115
  126OSM    H5S13454   3.830   5.050   7.034 -0.7079  0.6297 -0.8315
  126OSM    C6S13455   3.866   5.076   7.255 -0.1354 -0.2554  0.2288
  126OSM    H6S13456   3.966   5.029   7.262  0.2903  0.7116  0.8254
  126OSM    H6T13457   3.776   5.013   7.277  0.7114 -2.0252 -1.1711
  126OSM    C7S13458   3.866   5.190   7.361 -0.1689  0.3164  0.6480
  126OSM    H7S13459   3.767   5.241   7.356 -1.1015 -1.5069 -1.8461
  126OSM    H7T13460   3.942   5.270   7.345  2.5955 -2.4067 -0.7590
  126OSM    C8S13461   3.890   5.129   7.499 -0.5937  0.7341 -0.6342
  126OSM    H8S13462   3.984   5.070   7.492  0.0114  1.2995  1.6881
  126OSM    H8T13463   3.805   5.062   7.526 -1.1436  1.1469 -1.3290
  126OSM    C9S13464   3.904   5.238   7.598  0.0747 -0.3743  0.4633
  126OSM    H9S13465   3.822   5.314   7.596 -0.2497 -0.5989  2.7427
  126OSM    H9T13466   4.001   5.291   7.606  1.3457 -2.0809 -2.0418
  126OSM   C10S13467   3.871   5.174   7.735 -0.0681  0.3172  0.3156
  126OSM   H10S13468   3.938   5.086   7.745  1.4383  1.6531  3.4585
  126OSM   H10T13469   3.765   5.145   7.720 -0.3798  1.2868  0.5275
  126OSM   C11S13470   3.861   5.258   7.865  0.3825  0.1480  0.1893
  126OSM   H11S13471   3.809   5.199   7.944 -0.2878  1.4210  0.7237
  126OSM   H11T13472   3.782   5.333   7.847  0.5686 -0.0604 -1.7462
  126OSM   C12S13473   3.993   5.319   7.897 -0.2838  0.3577 -0.4524
  126OSM   H12S13474   4.028   5.396   7.825  2.2869 -1.6782 -1.5421
  126OSM   H12T13475   4.065   5.236   7.880  0.0700  0.4643  0.5063
  126OSM   C13S13476   4.004   5.368   8.037  0.3188 -0.3675  0.5559
  126OSM   H13S13477   4.007   5.287   8.113  0.7410 -1.3131 -0.4418
  126OSM   H13T13478   3.917   5.436   8.047 -0.7801 -1.4908 -0.9813
  126OSM   C14S13479   4.134   5.455   8.044 -0.3050  0.5144  0.4647
  126OSM   H14S13480   4.125   5.525   7.958 -1.6560 -1.5915 -1.2128
  126OSM   H14T13481   4.218   5.387   8.017 -1.3685  0.2072 -2.4037
  126OSM   C15S13482   4.157   5.520   8.176  0.1035  0.3708 -0.4101
  126OSM   H15S13483   4.061   5.567   8.207 -1.2164 -2.3589 -0.0369
  126OSM   H15T13484   4.236   5.595   8.155 -0.1737  0.5295 -0.8845
  126OSM   C16S13485   4.198   5.428   8.290 -0.4010  0.1174 -0.2513
  126OSM   H16S13486   4.296   5.391   8.252 -1.5453 -2.6274 -0.7987
  126OSM   H16T13487   4.152   5.327   8.292 -0.8525  0.3267  0.0404
  126OSM   C17S13488   4.209   5.491   8.438  0.4380 -0.1585  0.2681
  126OSM   H17S13489   4.107   5.507   8.479  0.0622 -1.4880 -0.1043
  126OSM   H17T13490   4.253   5.593   8.438  1.8739 -0.7206 -1.3646
  126OSM   C18S13491   4.284   5.394   8.525  0.4041 -0.3936 -0.3525
  126OSM   H18S13492   4.229   5.298   8.520 -2.6993  1.2401 -0.6885
  126OSM   H18T13493   4.298   5.431   8.629  1.8051 -0.9417 -0.3297
  126OSM   H18U13494   4.389   5.394   8.488 -0.0630 -0.3114 -1.7480
  126OSM    C1F13495   3.491   5.458   6.952 -0.3583  0.1411  0.3095
  126OSM     OF13496   3.419   5.388   6.882  1.5018 -0.8721  0.4882
  126OSM    C2F13497   3.441   5.567   7.038 -0.4016  0.3696 -0.4512
  126OSM    H2F13498   3.476   5.659   6.987 -0.8025  0.5965 -0.3225
  126OSM    H2G13499   3.495   5.567   7.135  0.3689 -1.7171 -0.8325
  126OSM    C3F13500   3.292   5.579   7.061  0.1431 -0.2615 -0.0923
  126OSM    H3F13501   3.249   5.483   7.099 -0.2396  0.0352  0.2288
  126OSM    H3G13502   3.246   5.580   6.960  0.2412  0.8010 -0.1324
  126OSM    C4F13503   3.252   5.686   7.159  0.0378 -0.5932 -0.2017
  126OSM    H4F13504   3.142   5.690   7.171  0.2107  1.3731  1.1798
  126OSM    H4G13505   3.295   5.783   7.126 -0.4344 -0.0916  0.6229
  126OSM    C5F13506   3.318   5.671   7.302  0.2354  0.5732 -0.1029
  126OSM    H5F13507   3.425   5.689   7.280 -0.5532  2.3159 -3.2584
  126OSM    H5G13508   3.298   5.577   7.357  0.9225 -0.5641 -1.7288
  126OSM    C6F13509   3.285   5.801   7.388 -0.0083 -0.0954  0.0904
  126OSM    H6F13510   3.184   5.773   7.425  1.0396 -2.9802  1.0216
  126OSM    H6G13511   3.292   5.899   7.337  0.0472  1.1718  2.3759
  126OSM    C7F13512   3.390   5.820   7.501  0.6127 -0.3845  0.2926
  126OSM    H7F13513   3.470   5.883   7.456  2.1504 -3.3521 -1.4124
  126OSM    H7G13514   3.422   5.719   7.534 -0.9760 -0.4942  1.6125
  126OSM    C8F13515   3.331   5.902   7.620  0.3721  0.6055  0.3600
  126OSM    H8F13516   3.414   5.912   7.693 -0.7201  0.3874  1.6726
  126OSM    H8G13517   3.264   5.828   7.670  0.4161 -0.9414 -1.7006
  126OSM    C9F13518   3.260   6.032   7.587 -0.2769  0.1634 -0.1121
  126OSM    H9F13519   3.241   6.059   7.482  0.8977  1.5387  0.0047
  126OSM   C10F13520   3.193   6.111   7.677  0.3126 -0.5449  0.4282
  126OSM   H10F13521   3.157   6.206   7.636  1.1720 -0.6294 -0.5535
  126OSM   C11F13522   3.184   6.097   7.826 -0.8503  0.2390  0.1714
  126OSM   H11F13523   3.186   6.191   7.884 -0.0020  0.6538 -0.5046
  126OSM   H11G13524   3.252   6.023   7.875  0.1517  1.3730  0.5574
  126OSM   C12F13525   3.046   6.039   7.856 -0.1351  0.3075  0.3905
  126OSM   H12F13526   3.024   5.949   7.794 -0.7208  1.0012 -0.4280
  126OSM   H12G13527   2.967   6.107   7.819  0.9462  1.0103 -0.6711
  126OSM   C13F13528   3.019   6.008   8.008  0.1970  0.2680 -0.3721
  126OSM   H13F13529   3.099   5.939   8.043 -1.6892 -1.4191  0.9008
  126OSM   H13G13530   2.927   5.945   8.017 -0.0975  0.8943  1.5718
  126OSM   C14F13531   3.019   6.132   8.095  0.5406  0.1870 -0.7751
  126OSM   H14F13532   2.953   6.212   8.055  1.2687  0.4745 -1.4155
  126OSM   H14G13533   3.121   6.169   8.118  1.1574 -1.3264 -1.0022
  126OSM   C15F13534   2.961   6.094   8.240 -0.1250  0.2586 -0.4593
  126OSM   H15F13535   3.031   6.025   8.293  0.5198  1.1725 -0.0855
  126OSM   H15G13536   2.862   6.045   8.227 -0.7196  1.5272 -0.8407
  126OSM   C16F13537   2.941   6.215   8.332 -0.0647  0.0549  0.0748
  126OSM   H16F13538   2.868   6.286   8.288  1.0264  1.4042  0.4062
  126OSM   H16G13539   3.037   6.269   8.328 -0.0727  0.0150 -2.7942
  126OSM   C17F13540   2.910   6.179   8.472  0.3402  0.2946 -0.6739
  126OSM   H17F13541   2.898   6.265   8.541 -0.7921  0.1628 -0.6971
  126OSM   H17G13542   2.996   6.119   8.509 -0.8112 -2.1720 -1.8351
  126OSM   C18F13543   2.792   6.081   8.502 -0.1414  0.3341 -0.1644
  126OSM   H18F13544   2.808   5.986   8.446  1.6600  0.2182  0.4960
  126OSM   H18G13545   2.697   6.126   8.465 -0.4433 -0.4003 -0.3020
  126OSM   H18H13546   2.774   6.067   8.611 -2.0130  3.6022  0.0576
  127OSM      N13547   5.737   4.711   5.865 -0.1168  0.0403 -0.2136
  127OSM    C1513548   5.744   4.818   5.761  1.1305 -0.0336  0.0056
  127OSM   H15A13549   5.647   4.836   5.718  1.0311 -0.0240  0.2326
  127OSM   H15B13550   5.808   4.783   5.682 -1.3279 -2.5348 -1.0501
  127OSM   H15C13551   5.778   4.914   5.797 -0.4265  0.6712 -0.3410
  127OSM    C1413552   5.681   4.587   5.806  0.4665 -0.2024  0.5370
  127OSM   H14A13553   5.731   4.569   5.712  1.4423 -1.2619  1.2362
  127OSM   H14B13554   5.580   4.609   5.775  1.0691  0.5391 -1.0410
  127OSM   H14C13555   5.685   4.505   5.876  0.3720  0.2004  1.0211
  127OSM    C1313556   5.876   4.674   5.898 -0.1347  0.0257 -0.1637
  127OSM   H13A13557   5.922   4.748   5.962 -1.8715  0.0780  1.1140
  127OSM   H13B13558   5.937   4.657   5.811 -1.9964 -0.3315 -1.4724
  127OSM   H13C13559   5.879   4.577   5.946 -1.3360 -1.1860 -2.3755
  127OSM    C1213560   5.669   4.761   5.994  0.1600  0.3295  0.2255
  127OSM   H12A13561   5.577   4.812   5.971 -0.0597 -0.3729 -0.4811
  127OSM   H12B13562   5.730   4.839   6.037  1.5855  0.0167 -1.1419
  127OSM    C1113563   5.625   4.665   6.114  0.3714  0.1764 -0.2480
  127OSM   H11A13564   5.584   4.735   6.190 -1.7401  0.2980 -1.4218
  127OSM   H11B13565   5.702   4.601   6.163 -0.9133 -0.0086  1.6436
  127OSM      P13566   5.449   4.472   6.133 -0.0857 -0.2431 -0.1210
  127OSM    O1313567   5.313   4.470   6.066 -0.1980 -0.2869 -0.0216
  127OSM    O1413568   5.532   4.350   6.125 -0.4368  0.5315  0.0800
  127OSM    O1113569   5.446   4.536   6.274  0.2836 -0.3474 -0.0940
  127OSM    O1213570   5.516   4.593   6.060  0.2597  0.5881 -0.3250
  127OSM    C1S13571   5.399   4.478   6.396  0.5047  0.1454  0.8432
  127OSM    H1S13572   5.439   4.374   6.408  0.8551  0.3258  1.2978
  127OSM    H1T13573   5.288   4.479   6.399  0.5057  1.1083  0.9239
  127OSM     NF13574   5.424   4.466   6.641  0.1687  0.1025  0.3768
  127OSM    HNF13575   5.338   4.482   6.689 -0.6719  0.2714 -1.1122
  127OSM    C2S13576   5.447   4.555   6.526 -0.1856 -0.4747 -0.0572
  127OSM    H2S13577   5.556   4.575   6.522 -0.4461  0.8645 -1.4248
  127OSM    C3S13578   5.372   4.691   6.539  0.1232  0.5328 -0.0087
  127OSM    H3S13579   5.263   4.673   6.528  0.0470  0.4090  0.8501
  127OSM     O313580   5.410   4.776   6.431  0.2637 -0.5534 -0.2475
  127OSM    HO313581   5.452   4.721   6.364 -0.5088 -1.9608  0.3897
  127OSM    C4S13582   5.391   4.757   6.678 -0.3417  0.2269 -0.2905
  127OSM    H4S13583   5.330   4.733   6.766  2.7365  0.3143  2.0075
  127OSM    C5S13584   5.483   4.843   6.709 -0.0020 -0.2498  0.3858
  127OSM    H5S13585   5.546   4.876   6.625 -0.1171 -0.8569  0.0571
  127OSM    C6S13586   5.497   4.899   6.850 -0.4516  0.0271  0.2189
  127OSM    H6S13587   5.411   4.968   6.865  0.3118  0.3070  4.3781
  127OSM    H6T13588   5.589   4.962   6.857  0.0312 -0.6348 -0.1194
  127OSM    C7S13589   5.498   4.808   6.977  0.5000  0.2380 -0.6323
  127OSM    H7S13590   5.564   4.721   6.955  2.8749  2.1696 -1.6283
  127OSM    H7T13591   5.393   4.782   7.000 -0.0562  2.7290 -0.1140
  127OSM    C8S13592   5.533   4.875   7.115 -0.0364  0.1177  0.3033
  127OSM    H8S13593   5.454   4.949   7.140 -0.1024  0.3694 -0.6050
  127OSM    H8T13594   5.625   4.934   7.094  0.6988 -0.2253  2.3419
  127OSM    C9S13595   5.559   4.778   7.224  0.2542 -0.1461 -0.2541
  127OSM    H9S13596   5.650   4.717   7.208 -0.5319 -1.4829  0.1563
  127OSM    H9T13597   5.469   4.712   7.224  0.7673 -0.8589  0.1896
  127OSM   C10S13598   5.565   4.832   7.372  0.0273 -0.1412  0.9025
  127OSM   H10S13599   5.463   4.873   7.391 -0.7518 -1.9234  0.7418
  127OSM   H10T13600   5.639   4.914   7.359 -0.4132  0.1094 -0.0938
  127OSM   C11S13601   5.602   4.732   7.478 -0.2350  0.0226 -0.2934
  127OSM   H11S13602   5.692   4.676   7.446 -0.0376  0.7616 -1.0652
  127OSM   H11T13603   5.521   4.659   7.500 -0.8718  1.1232  1.2464
  127OSM   C12S13604   5.616   4.825   7.606 -0.4596  1.1553  0.7934
  127OSM   H12S13605   5.531   4.896   7.615 -1.2459  0.3429 -0.1008
  127OSM   H12T13606   5.703   4.891   7.584 -0.7278  0.8048 -1.5656
  127OSM   C13S13607   5.652   4.754   7.738 -0.2409  0.0463 -0.2405
  127OSM   H13S13608   5.745   4.698   7.718 -0.4355 -0.5384  0.4487
  127OSM   H13T13609   5.576   4.682   7.774  1.7322 -2.4513 -0.8210
  127OSM   C14S13610   5.674   4.851   7.857 -0.0671  0.6481  0.4972
  127OSM   H14S13611   5.580   4.905   7.882 -0.5839 -0.2259  0.4990
  127OSM   H14T13612   5.749   4.930   7.838  0.8550 -0.4732 -0.7549
  127OSM   C15S13613   5.733   4.772   7.972  0.1977 -0.3254  0.0002
  127OSM   H15S13614   5.835   4.815   7.981  0.9499 -1.8233 -0.9210
  127OSM   H15T13615   5.736   4.663   7.951 -1.6945 -0.9648  2.4875
  127OSM   C16S13616   5.661   4.787   8.111  0.6480  0.3372  0.1760
  127OSM   H16S13617   5.551   4.775   8.097  0.6054 -0.4417  1.0728
  127OSM   H16T13618   5.676   4.889   8.152  3.1614 -0.2024  0.7650
  127OSM   C17S13619   5.718   4.680   8.211  0.0538  0.1519  0.4637
  127OSM   H17S13620   5.719   4.580   8.164 -0.5473  0.3542  0.0024
  127OSM   H17T13621   5.657   4.670   8.304 -0.1893  0.4663  0.3380
  127OSM   C18S13622   5.860   4.723   8.252 -0.5996 -0.4245  0.4843
  127OSM   H18S13623   5.833   4.824   8.289 -2.2134 -0.6057 -0.1382
  127OSM   H18T13624   5.936   4.728   8.171  0.9978  2.9953  2.0153
  127OSM   H18U13625   5.895   4.642   8.320 -0.3011 -1.0761 -0.4247
  127OSM    C1F13626   5.502   4.360   6.670 -0.1559 -0.1095 -1.2888
  127OSM     OF13627   5.594   4.324   6.603  0.1534  0.8912 -0.3970
  127OSM    C2F13628   5.482   4.303   6.800  0.5229  0.0749 -0.1838
  127OSM    H2F13629   5.491   4.192   6.798  1.6969  0.1559  0.2491
  127OSM    H2G13630   5.382   4.338   6.834  0.8770 -0.0881  1.0724
  127OSM    C3F13631   5.597   4.345   6.889  0.0866 -0.8900 -0.5893
  127OSM    H3F13632   5.611   4.455   6.890  1.0892 -0.9312  2.4075
  127OSM    H3G13633   5.700   4.318   6.856  0.8434  0.6390  0.3929
  127OSM    C4F13634   5.555   4.316   7.043  0.0548 -0.6165  0.3671
  127OSM    H4F13635   5.566   4.207   7.067  1.1987 -0.6746 -0.3493
  127OSM    H4G13636   5.447   4.339   7.058  0.4115  0.3230  1.6581
  127OSM    C5F13637   5.646   4.386   7.135 -0.1771 -0.9403 -0.5559
  127OSM    H5F13638   5.667   4.488   7.096  0.6292 -0.8994 -0.0537
  127OSM    H5G13639   5.741   4.328   7.141 -0.2854 -1.0027  1.3092
  127OSM    C6F13640   5.583   4.402   7.275 -0.1736  1.2516  0.1486
  127OSM    H6F13641   5.485   4.452   7.280 -0.9135 -0.1768  0.5137
  127OSM    H6G13642   5.647   4.479   7.323 -0.1611  1.3274  0.0085
  127OSM    C7F13643   5.574   4.280   7.370 -0.6588 -0.1543 -0.9233
  127OSM    H7F13644   5.681   4.249   7.371 -0.0606  1.7536  0.3965
  127OSM    H7G13645   5.510   4.200   7.329 -1.3110 -1.1255  1.7937
  127OSM    C8F13646   5.521   4.309   7.514 -0.6229 -0.4495 -0.5712
  127OSM    H8F13647   5.412   4.306   7.494 -0.0838 -0.7462 -3.9115
  127OSM    H8G13648   5.555   4.407   7.553  0.5488 -1.2361  0.4959
  127OSM    C9F13649   5.550   4.193   7.607 -0.3244  0.3207 -0.2089
  127OSM    H9F13650   5.529   4.095   7.563 -0.1975  0.0028  0.4190
  127OSM   C10F13651   5.599   4.197   7.731  0.1752 -0.6801  0.0128
  127OSM   H10F13652   5.612   4.101   7.784  2.5509  0.0736  0.9283
  127OSM   C11F13653   5.641   4.328   7.793 -0.9051 -0.4716 -0.4956
  127OSM   H11F13654   5.611   4.417   7.735  4.8282  1.4492 -1.1339
  127OSM   H11G13655   5.752   4.330   7.788 -0.8700 -1.5117 -0.5110
  127OSM   C12F13656   5.609   4.324   7.946 -0.8292  0.2355  0.3979
  127OSM   H12F13657   5.670   4.406   7.989  0.9379 -0.2331 -1.1345
  127OSM   H12G13658   5.637   4.227   7.993 -3.5064 -0.6286  0.4093
  127OSM   C13F13659   5.465   4.355   7.968 -0.2431 -0.4884  0.1123
  127OSM   H13F13660   5.408   4.300   7.890  2.3705 -0.1857 -2.1792
  127OSM   H13G13661   5.449   4.465   7.963  1.3950 -0.2184  0.2120
  127OSM   C14F13662   5.403   4.326   8.100 -0.0160  0.2284 -0.7411
  127OSM   H14F13663   5.410   4.216   8.115  0.4080  0.4935  1.2933
  127OSM   H14G13664   5.300   4.363   8.113  0.1803  1.0189 -1.3409
  127OSM   C15F13665   5.479   4.373   8.229 -0.6457  0.9211  0.0663
  127OSM   H15F13666   5.464   4.483   8.239  1.1012  1.3330 -1.4133
  127OSM   H15G13667   5.587   4.352   8.221 -0.9798 -0.1133 -3.0953
  127OSM   C16F13668   5.425   4.314   8.358  0.5061 -0.2178 -1.1188
  127OSM   H16F13669   5.443   4.204   8.360 -2.3708 -0.8352  2.2097
  127OSM   H16G13670   5.314   4.311   8.362  0.5327 -2.2036 -0.4280
  127OSM   C17F13671   5.480   4.372   8.492  0.1517  0.5225 -0.3930
  127OSM   H17F13672   5.591   4.365   8.486  0.0787 -0.9276 -0.3803
  127OSM   H17G13673   5.440   4.309   8.574 -0.5034 -1.2719 -2.0159
  127OSM   C18F13674   5.442   4.513   8.517 -0.5683  0.2817  0.1398
  127OSM   H18F13675   5.505   4.582   8.456  0.3158 -1.1855 -0.6763
  127OSM   H18G13676   5.449   4.535   8.625 -2.1847  0.4681  0.2275
  127OSM   H18H13677   5.338   4.543   8.493 -0.7624 -0.7801 -0.4056
  128OSM      N13678   1.274   2.939   6.139  0.3143 -0.4957 -0.5151
  128OSM    C1513679   1.195   3.061   6.114 -0.3404  0.3458  0.1612
  128OSM   H15A13680   1.162   3.064   6.011 -1.2590 -0.6506  0.4056
  128OSM   H15B13681   1.255   3.150   6.127 -0.8689  0.7995 -0.4755
  128OSM   H15C13682   1.115   3.066   6.187  0.5137 -1.2954  1.2720
  128OSM    C1413683   1.362   2.929   6.017  0.1653  0.1868 -0.1325
  128OSM   H14A13684   1.437   3.007   6.017 -1.0068  1.3709  1.0162
  128OSM   H14B13685   1.303   2.929   5.927 -2.7991  0.5232  1.6709
  128OSM   H14C13686   1.416   2.836   6.021  0.8837  0.5871 -0.3734
  128OSM    C1313687   1.365   2.954   6.256  0.2554  0.0099 -0.0673
  128OSM   H13A13688   1.311   2.925   6.345  0.5047 -0.2129  0.0127
  128OSM   H13B13689   1.417   3.049   6.254  0.7011 -0.2330 -0.2200
  128OSM   H13C13690   1.444   2.881   6.253  0.4016  0.1878 -0.6159
  128OSM    C1213691   1.195   2.806   6.148  0.4271 -0.5011 -0.0216
  128OSM   H12A13692   1.266   2.726   6.161  1.6889  0.6950  0.7418
  128OSM   H12B13693   1.150   2.780   6.054 -0.6663 -1.5733  0.7651
  128OSM    C1113694   1.087   2.791   6.259 -0.5299 -0.3852 -0.5265
  128OSM   H11A13695   1.126   2.798   6.362 -3.2877 -0.3177  0.5954
  128OSM   H11B13696   1.042   2.690   6.250  1.6821 -1.4763 -0.1090
  128OSM      P13697   0.863   2.917   6.164  0.1161  0.0462  0.2863
  128OSM    O1313698   0.841   3.060   6.128 -0.6146  0.2502  0.3373
  128OSM    O1413699   0.857   2.818   6.059 -0.0431 -0.2229 -0.3588
  128OSM    O1113700   0.751   2.878   6.263 -0.5272  0.5740 -0.1489
  128OSM    O1213701   0.993   2.899   6.237 -0.6609 -0.4233 -0.2560
  128OSM    C1S13702   0.760   2.788   6.369 -0.4200  0.3284 -0.0559
  128OSM    H1S13703   0.854   2.730   6.367 -1.4347 -1.3866 -0.1872
  128OSM    H1T13704   0.669   2.724   6.365 -0.5411  0.5566 -1.5892
  128OSM     NF13705   0.746   2.758   6.618 -0.2614  0.5096  0.0211
  128OSM    HNF13706   0.674   2.768   6.686 -0.0235  0.6023  0.2613
  128OSM    C2S13707   0.762   2.859   6.514  0.6720  0.1570  0.1885
  128OSM    H2S13708   0.856   2.913   6.536  1.1123 -0.5388  0.0457
  128OSM    C3S13709   0.647   2.964   6.509  0.3863  0.2909  0.7416
  128OSM    H3S13710   0.570   2.914   6.445  1.6942 -0.3175 -0.4161
  128OSM     O313711   0.675   3.082   6.428 -0.3171  0.5445  0.0025
  128OSM    HO313712   0.738   3.061   6.359 -1.0554 -0.5417 -0.3746
  128OSM    C4S13713   0.598   3.003   6.652  0.0011 -0.0361 -0.7180
  128OSM    H4S13714   0.496   2.967   6.671 -0.0391  0.8892  0.9653
  128OSM    C5S13715   0.657   3.083   6.740  0.0813 -0.3077 -0.1395
  128OSM    H5S13716   0.752   3.138   6.735  0.1316 -0.2838  0.8098
  128OSM    C6S13717   0.602   3.108   6.877  0.8163 -0.3552  0.0725
  128OSM    H6S13718   0.558   3.210   6.874 -0.1386 -0.7629 -0.1253
  128OSM    H6T13719   0.684   3.104   6.951  0.1695 -2.3930  0.7575
  128OSM    C7S13720   0.494   3.010   6.933 -0.7506 -0.4632  0.0618
  128OSM    H7S13721   0.527   2.904   6.941 -0.2537 -0.1901  2.3354
  128OSM    H7T13722   0.415   3.020   6.855 -1.1608 -0.3240  0.4902
  128OSM    C8S13723   0.434   3.052   7.072  0.5227 -0.1343  0.4502
  128OSM    H8S13724   0.419   3.162   7.068 -0.6600 -0.3162 -0.5176
  128OSM    H8T13725   0.519   3.029   7.140  0.1084  1.0588  1.4096
  128OSM    C9S13726   0.309   2.981   7.099  0.1296  0.1001 -0.2455
  128OSM    H9S13727   0.337   2.874   7.092 -0.3050  0.0205 -0.9521
  128OSM    H9T13728   0.239   2.997   7.014 -0.8082 -1.1065  0.2646
  128OSM   C10S13729   0.242   3.012   7.235  0.0536  0.2190 -0.1926
  128OSM   H10S13730   0.136   3.005   7.203 -0.3269 -0.8768  1.2210
  128OSM   H10T13731   0.252   3.120   7.262 -3.4918  0.4769  0.5254
  128OSM   C11S13732   0.271   2.913   7.341  0.4288 -0.2848  0.5128
  128OSM   H11S13733   0.379   2.934   7.354  0.5920  0.3639 -1.5357
  128OSM   H11T13734   0.255   2.811   7.299  1.3648  0.8907 -3.0475
  128OSM   C12S13735   0.188   2.942   7.465  0.1269  0.0274 -0.2699
  128OSM   H12S13736   0.079   2.921   7.456 -0.1847  1.4431 -0.0698
  128OSM   H12T13737   0.198   3.044   7.509 -0.5242  1.3957 -3.0563
  128OSM   C13S13738   0.239   2.855   7.579  0.3099 -0.4435 -0.0029
  128OSM   H13S13739   0.344   2.882   7.600  0.8200 -2.5314  0.4176
  128OSM   H13T13740   0.238   2.748   7.547  1.8656 -0.2140 -0.9362
  128OSM   C14S13741   0.175   2.888   7.714  0.7066 -0.3401  0.8092
  128OSM   H14S13742   0.066   2.874   7.698  0.6780 -0.8492  1.4118
  128OSM   H14T13743   0.186   2.998   7.730 -1.7015  0.7546 -3.4641
  128OSM   C15S13744   0.241   2.818   7.834  0.0076 -0.0210 -0.3914
  128OSM   H15S13745   0.352   2.816   7.837  0.0607 -3.8678 -0.2783
  128OSM   H15T13746   0.204   2.713   7.829 -1.5133  0.4681 -0.0306
  128OSM   C16S13747   0.196   2.881   7.967 -0.2121  0.0527  0.2855
  128OSM   H16S13748   0.086   2.877   7.953 -0.3001 -4.6950  0.9681
  128OSM   H16T13749   0.232   2.986   7.969 -3.1643  1.1857 -0.5592
  128OSM   C17S13750   0.231   2.797   8.082  0.2248 -0.2185 -1.1680
  128OSM   H17S13751   0.180   2.838   8.172 -1.0708 -2.4845 -0.7910
  128OSM   H17T13752   0.342   2.794   8.083  0.2094 -0.7050 -0.9555
  128OSM   C18S13753   0.184   2.653   8.078  0.0810  0.4443 -0.1905
  128OSM   H18S13754   0.073   2.655   8.086 -0.0599 -0.7165 -1.5456
  128OSM   H18T13755   0.233   2.601   8.163  1.2539 -0.4082 -1.3508
  128OSM   H18U13756   0.207   2.598   7.985 -2.1090 -1.6316  0.3931
  128OSM    C1F13757   0.854   2.687   6.645  0.3899 -0.5695  0.4612
  128OSM     OF13758   0.959   2.698   6.582  0.7265  0.1137  0.5103
  128OSM    C2F13759   0.838   2.596   6.765  0.5935  0.2196  1.0264
  128OSM    H2F13760   0.847   2.491   6.728  0.2678  0.4061  0.4039
  128OSM    H2G13761   0.731   2.608   6.793  0.5829  1.2197  0.5767
  128OSM    C3F13762   0.936   2.627   6.879 -0.0685  0.3033 -0.4918
  128OSM    H3F13763   1.038   2.612   6.839  0.1634 -0.2859  0.2854
  128OSM    H3G13764   0.918   2.551   6.958 -0.4031  0.4614 -0.4165
  128OSM    C4F13765   0.938   2.765   6.950 -0.1461  0.5501 -0.4600
  128OSM    H4F13766   0.959   2.843   6.873  1.2103  1.0256  0.3594
  128OSM    H4G13767   1.021   2.762   7.024 -0.4546  1.3131 -0.0704
  128OSM    C5F13768   0.805   2.799   7.022  0.3422 -0.1582 -0.3094
  128OSM    H5F13769   0.729   2.776   6.945 -0.8198  1.0687  0.4403
  128OSM    H5G13770   0.800   2.906   7.053  0.9660 -0.3086  0.3364
  128OSM    C6F13771   0.764   2.712   7.141  0.7657 -0.2122  0.0430
  128OSM    H6F13772   0.750   2.609   7.102 -3.4624  0.7782 -1.5190
  128OSM    H6G13773   0.665   2.750   7.174 -0.0625 -0.9133 -1.5408
  128OSM    C7F13774   0.864   2.730   7.258 -0.3077  0.1926  0.2866
  128OSM    H7F13775   0.871   2.841   7.270  1.0837 -0.0377  2.0115
  128OSM    H7G13776   0.965   2.691   7.235 -0.0768  1.0892 -0.2962
  128OSM    C8F13777   0.825   2.667   7.387 -0.7614 -0.5312  0.3756
  128OSM    H8F13778   0.907   2.690   7.459 -1.5720 -0.6294  1.3599
  128OSM    H8G13779   0.820   2.557   7.372  1.1298 -0.4669 -0.9828
  128OSM    C9F13780   0.693   2.719   7.445 -0.0727  0.5561  0.3442
  128OSM    H9F13781   0.612   2.713   7.371  0.1190  1.7102  0.0171
  128OSM   C10F13782   0.680   2.770   7.573  0.1271  0.2386 -0.4687
  128OSM   H10F13783   0.581   2.812   7.598  0.7598  2.0910 -0.9506
  128OSM   C11F13784   0.784   2.785   7.679 -0.5387 -0.0721  0.1427
  128OSM   H11F13785   0.799   2.895   7.684 -0.8645  0.1141 -2.0947
  128OSM   H11G13786   0.882   2.737   7.661 -0.5583 -0.7466  1.7105
  128OSM   C12F13787   0.732   2.750   7.812 -0.6733 -0.3051  0.1772
  128OSM   H12F13788   0.638   2.804   7.835 -1.9434 -2.3595  0.1206
  128OSM   H12G13789   0.796   2.786   7.895  0.8123  0.7003 -1.3410
  128OSM   C13F13790   0.710   2.598   7.837  0.0648  0.5956  0.1855
  128OSM   H13F13791   0.803   2.549   7.872  0.0112 -0.1229 -0.6325
  128OSM   H13G13792   0.667   2.549   7.747 -2.2745  0.9439  1.0545
  128OSM   C14F13793   0.617   2.574   7.962  0.0527  0.1295  0.4478
  128OSM   H14F13794   0.603   2.467   7.986 -1.3145 -0.0230 -0.8911
  128OSM   H14G13795   0.514   2.609   7.940  1.0111  1.5931 -2.1420
  128OSM   C15F13796   0.663   2.650   8.086 -0.2627  0.3443  0.5132
  128OSM   H15F13797   0.645   2.758   8.066  1.2463  0.7250  1.0909
  128OSM   H15G13798   0.769   2.632   8.117  0.6236  1.4803 -1.6926
  128OSM   C16F13799   0.575   2.612   8.216  0.7882 -0.1966 -0.3365
  128OSM   H16F13800   0.577   2.502   8.233 -0.7338 -0.6684 -2.7402
  128OSM   H16G13801   0.468   2.629   8.191  0.0424  1.4022  3.2131
  128OSM   C17F13802   0.604   2.695   8.334  0.2393  0.4045 -0.7254
  128OSM   H17F13803   0.552   2.651   8.422  0.8892  0.2615 -0.4106
  128OSM   H17G13804   0.561   2.797   8.329 -0.0119  0.3431  0.0233
  128OSM   C18F13805   0.752   2.718   8.356  0.4285 -0.5056 -0.8638
  128OSM   H18F13806   0.799   2.780   8.276  0.9152  0.7879  0.3949
  128OSM   H18G13807   0.813   2.625   8.359 -0.3926 -1.0198  0.2668
  128OSM   H18H13808   0.777   2.761   8.455 -0.5143 -0.5136 -0.6173
  129OSM      N13809   5.013   4.747   6.195  0.0251 -0.2553  0.5601
  129OSM    C1513810   4.922   4.781   6.312  0.1009 -0.0131 -0.0707
  129OSM   H15A13811   4.820   4.745   6.299 -0.4176  1.3810  0.0303
  129OSM   H15B13812   4.919   4.884   6.342  1.0095  0.0875 -0.3017
  129OSM   H15C13813   4.961   4.726   6.396  1.1950 -0.0315 -0.5789
  129OSM    C1413814   4.954   4.818   6.077 -0.4579  0.1823  0.3084
  129OSM   H14A13815   4.937   4.921   6.104  0.6581  0.4159  0.1776
  129OSM   H14B13816   4.854   4.782   6.058 -0.2699 -1.5234  2.1471
  129OSM   H14C13817   5.016   4.812   5.989 -0.6509 -2.5020  0.2554
  129OSM    C1313818   5.148   4.799   6.221  0.5274 -0.3704  0.6452
  129OSM   H13A13819   5.190   4.760   6.313  1.2282 -0.1544  0.4275
  129OSM   H13B13820   5.141   4.907   6.233  2.8575 -0.2631  1.6093
  129OSM   H13C13821   5.213   4.768   6.141 -0.3882 -1.5204  0.3355
  129OSM    C1213822   5.027   4.602   6.165  0.6543  0.6409  0.1373
  129OSM   H12A13823   5.087   4.564   6.246 -0.6133 -0.8678  0.4135
  129OSM   H12B13824   5.075   4.576   6.072  0.8726 -2.3538  1.0157
  129OSM    C1113825   4.891   4.526   6.161 -0.5779  0.5109  0.1752
  129OSM   H11A13826   4.901   4.434   6.099  2.3539 -1.2286  2.9239
  129OSM   H11B13827   4.815   4.578   6.098 -1.6974  0.5252  1.4809
  129OSM      P13828   4.946   4.401   6.371  0.1295 -0.1861 -0.0453
  129OSM    O1313829   5.006   4.290   6.297  0.3396 -0.2914  0.0943
  129OSM    O1413830   5.026   4.484   6.463 -0.4633 -0.8668  0.0959
  129OSM    O1113831   4.836   4.329   6.460  0.3912  0.2280 -0.2363
  129OSM    O1213832   4.843   4.486   6.288 -0.4908 -0.0873  0.2759
  129OSM    C1S13833   4.874   4.227   6.555  0.1798  1.0922 -0.2005
  129OSM    H1S13834   4.980   4.194   6.559 -0.6513 -1.7155  1.5613
  129OSM    H1T13835   4.825   4.130   6.532  0.5946  1.5828 -3.6356
  129OSM     NF13836   4.852   4.179   6.804  0.7289  0.1713 -0.0360
  129OSM    HNF13837   4.791   4.103   6.827  1.0308 -0.1646 -0.3354
  129OSM    C2S13838   4.807   4.269   6.696 -1.5330 -0.4982 -0.4200
  129OSM    H2S13839   4.842   4.373   6.711  0.8150 -1.1174 -1.1042
  129OSM    C3S13840   4.653   4.282   6.680  0.3306  0.0255  0.1329
  129OSM    H3S13841   4.608   4.183   6.657  0.5096 -0.1564  0.5554
  129OSM     O313842   4.616   4.363   6.563  0.2380 -0.4612 -0.1624
  129OSM    HO313843   4.688   4.354   6.500 -1.2575  0.5145 -2.1178
  129OSM    C4S13844   4.604   4.332   6.813  0.2925  0.4938 -0.1389
  129OSM    H4S13845   4.611   4.261   6.897  0.6482 -1.5125 -1.7881
  129OSM    C5S13846   4.555   4.452   6.836 -0.4882 -0.7635 -0.9922
  129OSM    H5S13847   4.546   4.516   6.747  1.9603  2.1822  0.7051
  129OSM    C6S13848   4.514   4.515   6.963 -0.6642  0.1838 -0.5948
  129OSM    H6S13849   4.404   4.526   6.973 -0.6231  1.9407 -1.5641
  129OSM    H6T13850   4.554   4.619   6.963 -1.2875  0.4345 -1.4905
  129OSM    C7S13851   4.570   4.451   7.092  0.1054  1.1650 -0.3090
  129OSM    H7S13852   4.681   4.448   7.083  0.1741  1.2362  0.4458
  129OSM    H7T13853   4.533   4.347   7.095  1.4175  0.7045  1.8891
  129OSM    C8S13854   4.537   4.525   7.223  0.1458 -0.6566  0.3205
  129OSM    H8S13855   4.426   4.530   7.229 -0.1014  0.2601 -3.0174
  129OSM    H8T13856   4.547   4.635   7.213 -2.7176 -0.2223  1.3418
  129OSM    C9S13857   4.589   4.465   7.354 -0.3288 -0.2963 -0.5554
  129OSM    H9S13858   4.543   4.365   7.370 -2.6133  0.9079  1.1775
  129OSM    H9T13859   4.552   4.519   7.444  3.5839 -2.4201  2.6623
  129OSM   C10S13860   4.746   4.446   7.364  0.5605  0.2136  0.1387
  129OSM   H10S13861   4.785   4.544   7.330  1.0116 -0.7846 -2.3935
  129OSM   H10T13862   4.776   4.369   7.290  0.2209 -0.4366  0.6601
  129OSM   C11S13863   4.786   4.400   7.507  0.1087 -0.5434 -0.2050
  129OSM   H11S13864   4.887   4.355   7.515  0.2146 -0.3203 -0.2748
  129OSM   H11T13865   4.718   4.319   7.541  0.1200 -2.0555 -3.4161
  129OSM   C12S13866   4.771   4.512   7.612 -0.1859 -0.2451  1.3285
  129OSM   H12S13867   4.670   4.557   7.602  0.5641  1.8187  2.5857
  129OSM   H12T13868   4.842   4.590   7.578 -0.4886 -0.1393  0.9188
  129OSM   C13S13869   4.801   4.473   7.758 -0.3124 -0.2530  0.3682
  129OSM   H13S13870   4.804   4.570   7.814 -3.0482 -1.0500  2.0681
  129OSM   H13T13871   4.896   4.421   7.783  0.1866  0.2165 -0.4778
  129OSM   C14S13872   4.686   4.392   7.809 -0.1094  0.0452  0.3002
  129OSM   H14S13873   4.708   4.290   7.771 -0.1642  0.8366 -2.0311
  129OSM   H14T13874   4.589   4.438   7.779 -0.1466 -1.0396 -1.4429
  129OSM   C15S13875   4.688   4.382   7.962  0.3477 -0.0925 -0.0497
  129OSM   H15S13876   4.699   4.486   8.002 -2.1755 -0.0276  0.6561
  129OSM   H15T13877   4.786   4.341   7.992  0.1513 -2.2812 -2.1341
  129OSM   C16S13878   4.573   4.311   8.026 -0.0311  0.0234 -0.9461
  129OSM   H16S13879   4.603   4.204   8.022 -0.7924 -0.2243 -0.4340
  129OSM   H16T13880   4.483   4.326   7.963 -0.4044 -2.0249 -0.9691
  129OSM   C17S13881   4.540   4.354   8.176 -0.2944  0.6614  0.0942
  129OSM   H17S13882   4.541   4.464   8.185 -0.9323  0.7996 -1.2114
  129OSM   H17T13883   4.627   4.329   8.239 -1.5337  3.3329  3.1325
  129OSM   C18S13884   4.415   4.287   8.230 -0.4725 -0.8181 -0.3542
  129OSM   H18S13885   4.372   4.345   8.315 -1.0224 -0.0429 -1.1423
  129OSM   H18T13886   4.423   4.184   8.273 -2.9062 -1.3167 -0.9512
  129OSM   H18U13887   4.336   4.284   8.152 -1.8769 -1.1436  1.0088
  129OSM    C1F13888   4.969   4.190   6.854  0.0881  0.8785  0.6647
  129OSM     OF13889   5.041   4.270   6.797 -0.7676 -0.0869 -0.3745
  129OSM    C2F13890   5.018   4.104   6.972 -0.1650 -0.9202  0.3073
  129OSM    H2F13891   5.074   4.016   6.934 -1.2158 -1.1482 -0.7742
  129OSM    H2G13892   4.933   4.070   7.035 -1.0925  0.9886  0.1658
  129OSM    C3F13893   5.138   4.181   7.047 -0.0244  0.1863 -0.0650
  129OSM    H3F13894   5.121   4.290   7.037 -3.8333 -0.0795  1.9135
  129OSM    H3G13895   5.227   4.161   6.982 -0.2581 -3.1256  0.4733
  129OSM    C4F13896   5.173   4.150   7.190  0.2735 -0.3212  0.4988
  129OSM    H4F13897   5.271   4.194   7.218  0.2543 -0.3384  0.5965
  129OSM    H4G13898   5.192   4.041   7.203  0.5395 -0.1959  1.1818
  129OSM    C5F13899   5.065   4.190   7.288 -0.4613 -0.2228 -0.4865
  129OSM    H5F13900   4.969   4.200   7.233 -0.7329  3.4808  0.3687
  129OSM    H5G13901   5.091   4.294   7.320  2.4871 -0.5412 -1.5342
  129OSM    C6F13902   5.054   4.112   7.421  0.1402  0.8263  0.2527
  129OSM    H6F13903   5.052   4.003   7.403  2.3092  0.3205  2.4941
  129OSM    H6G13904   4.950   4.123   7.460 -0.6066 -1.1216 -1.0384
  129OSM    C7F13905   5.155   4.140   7.536  0.2255 -0.0133 -0.5413
  129OSM    H7F13906   5.125   4.235   7.584  1.1573  1.2708 -2.3655
  129OSM    H7G13907   5.256   4.169   7.499  0.3320  2.6183  1.5018
  129OSM    C8F13908   5.166   4.020   7.626  0.5540  0.1448 -0.5128
  129OSM    H8F13909   5.236   3.944   7.583  0.0964 -0.0934 -0.8491
  129OSM    H8G13910   5.070   3.965   7.635  1.5026 -1.7293 -1.1681
  129OSM    C9F13911   5.219   4.059   7.759 -0.1711 -0.7432 -1.1718
  129OSM    H9F13912   5.328   4.049   7.774 -0.4149 -0.4712  1.0497
  129OSM   C10F13913   5.147   4.096   7.870 -0.0499  0.0493  0.3585
  129OSM   H10F13914   5.204   4.120   7.960 -0.1324 -0.3114  0.5061
  129OSM   C11F13915   4.992   4.129   7.869 -0.8129  0.0764  0.4085
  129OSM   H11F13916   4.940   4.129   7.771 -0.8143  0.4814  0.4072
  129OSM   H11G13917   4.988   4.239   7.885  0.7652  0.4172 -1.1572
  129OSM   C12F13918   4.911   4.048   7.966  0.5102 -0.6176  0.2123
  129OSM   H12F13919   4.909   3.947   7.920 -0.7009 -0.8860  0.8105
  129OSM   H12G13920   4.810   4.093   7.969 -0.4185 -2.3039 -2.5865
  129OSM   C13F13921   4.969   4.040   8.111 -0.0128  0.0277  0.4655
  129OSM   H13F13922   5.071   3.996   8.106  1.5132  3.1813  1.3079
  129OSM   H13G13923   4.902   3.969   8.164 -0.1859 -0.3020 -0.1888
  129OSM   C14F13924   4.974   4.178   8.175  0.5792  0.1656 -0.0454
  129OSM   H14F13925   4.875   4.224   8.155  0.0159 -1.2376 -0.6202
  129OSM   H14G13926   5.057   4.232   8.126  1.1321 -0.1285  0.5562
  129OSM   C15F13927   5.007   4.165   8.322 -0.3521  0.3795  0.5151
  129OSM   H15F13928   4.995   4.269   8.360  1.1471  1.0721 -0.7761
  129OSM   H15G13929   5.107   4.121   8.344 -0.6959  0.4755  2.4316
  129OSM   C16F13930   4.906   4.092   8.413  0.4862 -0.1854 -0.0884
  129OSM   H16F13931   4.956   4.121   8.508 -1.4904 -0.7845  1.2280
  129OSM   H16G13932   4.914   3.981   8.411  2.6027 -0.0739  0.4202
  129OSM   C17F13933   4.750   4.125   8.417  0.2238 -0.2628 -0.2400
  129OSM   H17F13934   4.719   4.080   8.320  0.7289 -1.7968  0.2712
  129OSM   H17G13935   4.742   4.235   8.408  2.2972 -0.1543 -1.4016
  129OSM   C18F13936   4.675   4.053   8.534 -0.0696 -0.8722 -0.4030
  129OSM   H18F13937   4.704   4.104   8.628 -0.7263  0.0200 -0.6729
  129OSM   H18G13938   4.705   3.946   8.535 -1.2936 -1.2540  1.3746
  129OSM   H18H13939   4.570   4.050   8.497  0.5633 -0.6848 -2.3472
  130OSM      N13940   0.260   0.979   6.000  0.3098 -0.2335 -0.1720
  130OSM    C1513941   0.275   1.105   5.927 -0.5642 -0.9007  0.5167
  130OSM   H15A13942   0.374   1.109   5.885 -1.2421 -0.9270 -1.1843
  130OSM   H15B13943   0.262   1.178   6.006 -0.2498 -0.4150  0.1248
  130OSM   H15C13944   0.202   1.116   5.848  0.1108 -0.5335 -0.0648
  130OSM    C1413945   0.122   0.968   6.045  0.9008 -0.6163 -0.2855
  130OSM   H14A13946   0.097   1.044   6.117  1.0489 -1.9760  1.2624
  130OSM   H14B13947   0.106   0.871   6.090 -0.6787  0.2988  1.2095
  130OSM   H14C13948   0.059   0.979   5.958  0.0806 -1.7607  0.1410
  130OSM    C1313949   0.291   0.869   5.898 -0.1107  0.0056  0.1636
  130OSM   H13A13950   0.247   0.894   5.803 -1.3590  1.8229  1.1470
  130OSM   H13B13951   0.256   0.772   5.929  2.2341 -1.9895 -2.8711
  130OSM   H13C13952   0.398   0.859   5.888  0.1046 -0.3250  2.3122
  130OSM    C1213953   0.358   0.972   6.114  0.5862  0.2538 -0.6388
  130OSM   H12A13954   0.455   0.957   6.067  2.0361 -0.8156  2.4566
  130OSM   H12B13955   0.350   0.878   6.165  0.4751 -0.7453 -2.4055
  130OSM    C1113956   0.372   1.096   6.202 -0.1458  0.3502  0.0986
  130OSM   H11A13957   0.413   1.064   6.301 -0.4302 -0.2147  0.0435
  130OSM   H11B13958   0.271   1.135   6.227 -1.1126 -0.9844 -1.4875
  130OSM      P13959   0.596   1.232   6.128 -0.0905 -0.3181  0.1477
  130OSM    O1313960   0.670   1.156   6.020 -0.0352 -0.1322  0.0039
  130OSM    O1413961   0.603   1.376   6.114 -0.2014 -0.1522 -0.6423
  130OSM    O1113962   0.661   1.192   6.269 -0.1400 -0.6340  0.5009
  130OSM    O1213963   0.447   1.194   6.132  0.3061 -0.3508 -0.4865
  130OSM    C1S13964   0.631   1.274   6.388 -0.1390  0.2002  0.1685
  130OSM    H1S13965   0.569   1.365   6.373 -1.1511 -0.8766 -2.8441
  130OSM    H1T13966   0.725   1.312   6.435 -0.5447  0.5017  0.7433
  130OSM     NF13967   0.606   1.270   6.633 -0.9705  0.4118 -0.0331
  130OSM    HNF13968   0.698   1.263   6.670 -1.8926 -1.8802  2.1315
  130OSM    C2S13969   0.580   1.190   6.513 -0.0852  0.4325  0.6145
  130OSM    H2S13970   0.473   1.167   6.499  0.1738  0.0023 -0.8817
  130OSM    C3S13971   0.664   1.057   6.519  0.7564  0.3844  0.1639
  130OSM    H3S13972   0.772   1.083   6.520  0.8548 -0.0005 -0.0829
  130OSM     O313973   0.654   0.972   6.404 -0.1520 -0.2147 -0.2438
  130OSM    HO313974   0.619   1.021   6.330  2.0326  2.1671  0.1252
  130OSM    C4S13975   0.630   0.970   6.641  0.3987 -0.0417  0.0747
  130OSM    H4S13976   0.676   1.018   6.729 -1.7040  0.0700  1.1657
  130OSM    C5S13977   0.557   0.852   6.656 -0.1602  0.0237 -0.1843
  130OSM    H5S13978   0.521   0.793   6.570 -1.6258  0.0129  0.3923
  130OSM    C6S13979   0.533   0.763   6.779  0.3182 -0.3571  0.3308
  130OSM    H6S13980   0.595   0.671   6.774  1.1025  0.1662  0.3021
  130OSM    H6T13981   0.424   0.740   6.785  0.7466 -2.3895  1.0641
  130OSM    C7S13982   0.575   0.834   6.913 -0.4532  0.4782  1.8046
  130OSM    H7S13983   0.519   0.931   6.911 -1.8957 -0.1704 -3.3922
  130OSM    H7T13984   0.684   0.851   6.906 -0.0944 -2.0714  0.1246
  130OSM    C8S13985   0.542   0.751   7.026  0.4863 -0.9995  0.5515
  130OSM    H8S13986   0.577   0.647   7.012  2.2553 -0.1538 -2.2857
  130OSM    H8T13987   0.431   0.749   7.026  0.4000  0.8696 -1.0115
  130OSM    C9S13988   0.614   0.800   7.162  0.3302  0.2362 -0.1706
  130OSM    H9S13989   0.602   0.910   7.174  0.6807  0.2573  0.0048
  130OSM    H9T13990   0.720   0.771   7.147  0.5708  1.4870 -1.1367
  130OSM   C10S13991   0.559   0.722   7.283 -0.5116 -1.0308  0.7902
  130OSM   H10S13992   0.555   0.613   7.264 -1.1977 -0.7162 -1.0619
  130OSM   H10T13993   0.454   0.752   7.304 -0.4999 -1.0095  0.8180
  130OSM   C11S13994   0.638   0.768   7.410  0.5607  0.2228  0.2657
  130OSM   H11S13995   0.632   0.879   7.410 -1.3636  0.1600 -0.2159
  130OSM   H11T13996   0.746   0.743   7.409  0.1969 -1.5126  0.0161
  130OSM   C12S13997   0.569   0.721   7.538  0.1600  0.6151  0.2552
  130OSM   H12S13998   0.546   0.613   7.531 -2.7680  1.1300  0.8225
  130OSM   H12T13999   0.471   0.772   7.540  0.0696  0.6418 -2.2277
  130OSM   C13S14000   0.650   0.736   7.662 -0.0343 -0.3253  0.6333
  130OSM   H13S14001   0.686   0.841   7.658 -1.3123  0.1724  1.7707
  130OSM   H13T14002   0.741   0.672   7.657 -0.8430 -1.4095 -0.9428
  130OSM   C14S14003   0.575   0.713   7.791 -0.0402  0.5261 -0.0450
  130OSM   H14S14004   0.576   0.602   7.798  0.4849  0.4695 -0.8352
  130OSM   H14T14005   0.469   0.740   7.778 -0.0865 -0.6532 -3.0028
  130OSM   C15S14006   0.647   0.773   7.905  0.5239  0.5321  0.2008
  130OSM   H15S14007   0.641   0.883   7.890 -0.8905  0.2557 -1.5646
  130OSM   H15T14008   0.751   0.738   7.887  0.4807  1.1472 -1.4335
  130OSM   C16S14009   0.586   0.726   8.040 -0.4165 -0.5090 -0.2964
  130OSM   H16S14010   0.582   0.615   8.031 -1.1122 -0.4364 -1.0925
  130OSM   H16T14011   0.482   0.764   8.052  0.2247  0.9197  1.0127
  130OSM   C17S14012   0.686   0.770   8.154  0.1096  0.4495  1.0644
  130OSM   H17S14013   0.785   0.739   8.115  0.4495 -0.3648  2.5052
  130OSM   H17T14014   0.666   0.707   8.244  0.2902  0.8915  1.4164
  130OSM   C18S14015   0.701   0.919   8.204 -0.3461  0.1059  0.2644
  130OSM   H18S14016   0.729   0.982   8.117  0.2738  1.7125  1.5939
  130OSM   H18T14017   0.763   0.946   8.292 -0.5532  0.6591  0.2417
  130OSM   H18U14018   0.605   0.962   8.238 -0.4013  0.3148 -0.1444
  130OSM    C1F14019   0.534   1.367   6.677 -0.8473 -0.3768 -0.1637
  130OSM     OF14020   0.433   1.402   6.619  0.0490 -0.6546 -0.1075
  130OSM    C2F14021   0.594   1.448   6.792 -0.0415 -0.3688  0.1204
  130OSM    H2F14022   0.591   1.555   6.765  1.0751 -0.1122  0.9336
  130OSM    H2G14023   0.700   1.415   6.789 -0.6248 -2.3898 -1.3552
  130OSM    C3F14024   0.516   1.437   6.921  0.4871 -0.2072  1.1249
  130OSM    H3F14025   0.405   1.443   6.916  0.5471  0.3615  0.3927
  130OSM    H3G14026   0.560   1.512   6.990 -0.2282  0.6890  0.6163
  130OSM    C4F14027   0.533   1.305   6.997 -0.5847 -0.0472 -0.1651
  130OSM    H4F14028   0.643   1.292   7.002 -0.5010  0.8905  0.9464
  130OSM    H4G14029   0.497   1.231   6.923 -2.6729  3.1914 -2.6659
  130OSM    C5F14030   0.463   1.293   7.124  0.8857  0.6209 -1.1678
  130OSM    H5F14031   0.358   1.325   7.106 -0.0669 -2.6882 -2.3785
  130OSM    H5G14032   0.510   1.368   7.191  1.6257  0.5334 -1.5798
  130OSM    C6F14033   0.465   1.156   7.199 -0.0694 -0.4935  0.4397
  130OSM    H6F14034   0.572   1.138   7.225  0.4909  1.6246 -0.2270
  130OSM    H6G14035   0.437   1.077   7.127  0.9179 -0.1553 -0.3373
  130OSM    C7F14036   0.368   1.142   7.313 -0.2646 -0.0014  0.3861
  130OSM    H7F14037   0.368   1.032   7.331  0.3457  0.0808  0.9345
  130OSM    H7G14038   0.274   1.176   7.265 -0.9701  0.4155  1.9961
  130OSM    C8F14039   0.404   1.226   7.438  0.0379  0.0408 -0.2511
  130OSM    H8F14040   0.326   1.223   7.516  0.8690  0.5872  0.6162
  130OSM    H8G14041   0.414   1.335   7.419 -1.5508  0.5945  1.7605
  130OSM    C9F14042   0.540   1.181   7.496 -0.1751  0.0239 -0.2189
  130OSM    H9F14043   0.627   1.207   7.434 -1.3794 -1.3235 -2.6309
  130OSM   C10F14044   0.570   1.133   7.625  0.5585 -0.0687  0.4878
  130OSM   H10F14045   0.674   1.119   7.658  0.5384  0.9379  0.9943
  130OSM   C11F14046   0.460   1.100   7.719  0.0103 -0.2272  0.3743
  130OSM   H11F14047   0.479   1.011   7.784 -1.6131 -2.1588 -1.6342
  130OSM   H11G14048   0.363   1.082   7.668 -0.8662  1.5857  1.3288
  130OSM   C12F14049   0.437   1.231   7.815  0.0120 -0.1504  0.2189
  130OSM   H12F14050   0.339   1.228   7.867  0.1099  2.9173  0.8021
  130OSM   H12G14051   0.417   1.318   7.749 -1.0676 -0.5002  0.0511
  130OSM   C13F14052   0.538   1.254   7.923 -0.3814 -1.0515 -0.5352
  130OSM   H13F14053   0.641   1.277   7.886  0.0572 -0.4927  0.9123
  130OSM   H13G14054   0.552   1.156   7.973 -0.8546 -0.4431  0.8337
  130OSM   C14F14055   0.500   1.350   8.037  0.5391 -0.1806  0.3710
  130OSM   H14F14056   0.390   1.351   8.056  0.7276 -2.9257  2.1132
  130OSM   H14G14057   0.539   1.452   8.014  0.3237  0.0704  1.0868
  130OSM   C15F14058   0.567   1.311   8.169  0.2728 -0.4717  0.3898
  130OSM   H15F14059   0.677   1.304   8.153  0.1743 -1.6035  0.1574
  130OSM   H15G14060   0.525   1.216   8.208 -1.3678  0.4685  1.0068
  130OSM   C16F14061   0.542   1.417   8.276  0.5513  0.7001 -0.1700
  130OSM   H16F14062   0.435   1.428   8.302 -0.3823 -1.8662 -2.4331
  130OSM   H16G14063   0.579   1.514   8.237  0.1740 -0.3323 -3.3845
  130OSM   C17F14064   0.606   1.368   8.404 -0.4300 -0.1218 -0.6273
  130OSM   H17F14065   0.706   1.330   8.375  0.1050  0.6439  0.1762
  130OSM   H17G14066   0.548   1.284   8.449  0.6356  0.4808  2.0457
  130OSM   C18F14067   0.631   1.474   8.517 -0.9004  0.2866 -0.6851
  130OSM   H18F14068   0.664   1.431   8.614 -0.8709  0.6900 -0.5167
  130OSM   H18G14069   0.538   1.520   8.556 -0.8170 -1.6584  2.1578
  130OSM   H18H14070   0.697   1.555   8.479  1.0976 -0.9943 -0.0954
  131OSM      N14071   6.394   4.442   6.377  0.1176  0.0189 -0.3430
  131OSM    C1514072   6.522   4.370   6.368  0.4426 -0.1937 -0.2509
  131OSM   H15A14073   6.592   4.426   6.308 -0.7444  1.3784 -0.2333
  131OSM   H15B14074   6.501   4.273   6.327 -1.0030 -0.1752  0.3979
  131OSM   H15C14075   6.574   4.359   6.462  1.4035  0.1633 -0.7286
  131OSM    C1414076   6.309   4.387   6.487 -0.2887  0.0746  0.3500
  131OSM   H14A14077   6.264   4.294   6.454  0.4158 -0.1437 -0.0260
  131OSM   H14B14078   6.228   4.446   6.527  0.3328  0.9629  0.3167
  131OSM   H14C14079   6.382   4.370   6.565  0.0735  1.9955  0.4582
  131OSM    C1314080   6.426   4.589   6.414 -0.8373  0.1928  0.1867
  131OSM   H13A14081   6.491   4.635   6.340  0.9431  1.6730  2.5347
  131OSM   H13B14082   6.491   4.595   6.500  0.9829 -0.9947 -1.0146
  131OSM   H13C14083   6.337   4.650   6.423 -1.5787 -1.0370  1.4283
  131OSM    C1214084   6.321   4.425   6.246  0.7330  0.5051 -0.2937
  131OSM   H12A14085   6.392   4.439   6.165  1.0538 -0.4752 -0.2009
  131OSM   H12B14086   6.243   4.498   6.234  0.6875  0.8991  2.0047
  131OSM    C1114087   6.243   4.293   6.217  0.1025  0.5371 -0.1345
  131OSM   H11A14088   6.182   4.264   6.305  4.1924 -2.9933  1.8650
  131OSM   H11B14089   6.319   4.214   6.206 -0.2719  0.0566  0.6748
  131OSM      P14090   6.056   4.437   6.077  0.0921 -0.7572  0.0777
  131OSM    O1314091   6.131   4.560   6.041  0.1980  0.3508  0.1978
  131OSM    O1414092   5.950   4.394   5.988  0.6707  0.7815  0.2491
  131OSM    O1114093   6.003   4.455   6.224 -0.3763 -0.2121 -0.4476
  131OSM    O1214094   6.163   4.317   6.095 -0.6559  0.2294  0.1496
  131OSM    C1S14095   5.924   4.361   6.286  0.1236 -0.2346 -0.5282
  131OSM    H1S14096   5.981   4.266   6.289  2.2436  0.9962  1.8171
  131OSM    H1T14097   5.823   4.343   6.242  0.0799 -0.0935 -0.4882
  131OSM     NF14098   5.842   4.278   6.497  0.3671 -0.5707 -0.0852
  131OSM    HNF14099   5.745   4.287   6.520  0.2044 -0.4983 -0.7939
  131OSM    C2S14100   5.904   4.395   6.441 -0.3568 -0.2558 -0.4579
  131OSM    H2S14101   6.002   4.404   6.492 -0.6625  0.7068 -0.0065
  131OSM    C3S14102   5.833   4.531   6.462 -0.0894 -0.0293 -0.6064
  131OSM    H3S14103   5.739   4.520   6.404  0.3681 -0.9030 -1.1881
  131OSM     O314104   5.882   4.636   6.378 -0.3684 -0.2170  0.2278
  131OSM    HO314105   5.927   4.580   6.314 -0.4307 -1.5549  1.2913
  131OSM    C4S14106   5.819   4.571   6.607  0.9547  0.2532  0.3044
  131OSM    H4S14107   5.747   4.508   6.660  2.6441 -1.6248  0.5159
  131OSM    C5S14108   5.889   4.659   6.683 -0.0301  0.0005 -0.2910
  131OSM    H5S14109   5.969   4.727   6.650 -1.0239  0.2031 -2.4940
  131OSM    C6S14110   5.853   4.664   6.831  0.2875 -0.4059  0.1097
  131OSM    H6S14111   5.836   4.562   6.870  0.3864  0.3197  2.2068
  131OSM    H6T14112   5.767   4.731   6.851  1.4794  1.2150  0.1154
  131OSM    C7S14113   5.965   4.719   6.916 -0.3913 -0.5027  1.0427
  131OSM    H7S14114   5.982   4.827   6.901  0.7402 -0.7126  0.6860
  131OSM    H7T14115   6.060   4.663   6.906 -0.2297 -0.8214  3.6909
  131OSM    C8S14116   5.940   4.699   7.068  0.5486  0.8912 -0.1325
  131OSM    H8S14117   5.939   4.589   7.085 -0.1700  1.0542  1.0023
  131OSM    H8T14118   5.841   4.738   7.100  1.4344  0.6461  3.3835
  131OSM    C9S14119   6.053   4.753   7.155 -0.3288  0.6580 -0.4815
  131OSM    H9S14120   6.057   4.862   7.135  0.4813  1.8665  4.7716
  131OSM    H9T14121   6.145   4.702   7.118  0.5502  1.1031  1.0145
  131OSM   C10S14122   6.043   4.729   7.312  0.4378 -0.0844  0.1291
  131OSM   H10S14123   5.938   4.751   7.343 -0.8468 -1.0115 -3.1382
  131OSM   H10T14124   6.113   4.799   7.362  0.9373 -0.2173 -0.3768
  131OSM   C11S14125   6.086   4.586   7.357 -0.3527 -0.0666  0.6598
  131OSM   H11S14126   6.167   4.617   7.427 -1.3837  4.2766  0.2406
  131OSM   H11T14127   6.125   4.525   7.273 -1.3141 -2.0166  1.5741
  131OSM   C12S14128   5.972   4.506   7.420  0.3084  0.1448  0.3972
  131OSM   H12S14129   6.000   4.399   7.418  1.8281  0.4903 -2.6802
  131OSM   H12T14130   5.875   4.505   7.365  0.4937  0.7017  0.0413
  131OSM   C13S14131   5.929   4.561   7.561  0.6068  0.0025  0.3891
  131OSM   H13S14132   5.840   4.501   7.589  2.0177 -1.2681  2.4124
  131OSM   H13T14133   5.893   4.664   7.542 -0.9854 -0.7719 -1.1224
  131OSM   C14S14134   6.031   4.557   7.676  0.0567  0.1040  0.1258
  131OSM   H14S14135   6.075   4.659   7.683  2.6743 -0.9505  0.1706
  131OSM   H14T14136   6.114   4.488   7.652 -2.1637 -1.6623 -3.3905
  131OSM   C15S14137   5.974   4.492   7.804 -0.0720  0.8002 -0.0040
  131OSM   H15S14138   5.953   4.385   7.781  0.8443  0.3519  1.1464
  131OSM   H15T14139   5.880   4.545   7.831  0.6701  1.6023  1.0842
  131OSM   C16S14140   6.065   4.485   7.932 -0.3872  0.0680  0.6110
  131OSM   H16S14141   6.077   4.584   7.982  3.7442 -0.6506  1.3706
  131OSM   H16T14142   6.167   4.460   7.897 -0.7318 -1.3011  0.5337
  131OSM   C17S14143   5.998   4.401   8.038 -0.4168  0.5105 -0.4398
  131OSM   H17S14144   5.984   4.301   7.993 -1.8597  1.8166 -3.1011
  131OSM   H17T14145   5.897   4.438   8.064 -0.0146  0.5132  1.2211
  131OSM   C18S14146   6.083   4.388   8.164 -0.3685  0.6048  0.2389
  131OSM   H18S14147   6.116   4.488   8.197 -1.7589  0.5408  1.9112
  131OSM   H18T14148   6.176   4.331   8.141  0.4513  1.8779  0.3602
  131OSM   H18U14149   6.032   4.324   8.239 -0.1171  0.5955  0.4023
  131OSM    C1F14150   5.913   4.167   6.515  0.0074 -0.0715 -0.2774
  131OSM     OF14151   6.036   4.159   6.500 -0.1707 -0.7723  0.6380
  131OSM    C2F14152   5.835   4.049   6.564  0.2524  0.9521  0.4310
  131OSM    H2F14153   5.870   3.955   6.516 -1.6677  0.6159 -0.3747
  131OSM    H2G14154   5.726   4.068   6.565 -0.2553 -1.6414  1.9486
  131OSM    C3F14155   5.856   4.021   6.723 -0.2588 -0.3584 -0.2587
  131OSM    H3F14156   5.845   4.119   6.775  0.4428 -1.4339  2.0613
  131OSM    H3G14157   5.956   3.974   6.734 -0.1879 -0.5078 -1.4260
  131OSM    C4F14158   5.745   3.928   6.783  0.3804  0.0070  0.6514
  131OSM    H4F14159   5.748   3.823   6.748 -2.6862  0.8018 -2.5980
  131OSM    H4G14160   5.650   3.970   6.742  0.3242  2.1945  2.7619
  131OSM    C5F14161   5.750   3.927   6.938  0.4988 -0.7823 -0.5562
  131OSM    H5F14162   5.757   4.033   6.970  3.1113 -1.3097  0.8591
  131OSM    H5G14163   5.842   3.874   6.968  1.0370 -0.7345 -2.0567
  131OSM    C6F14164   5.622   3.855   6.997  0.1567  0.0931  0.9161
  131OSM    H6F14165   5.630   3.751   6.959 -0.3429 -0.5724  2.5679
  131OSM    H6G14166   5.524   3.900   6.969 -0.8401 -1.2535  2.0611
  131OSM    C7F14167   5.636   3.843   7.150 -0.1791  0.9372  0.4977
  131OSM    H7F14168   5.615   3.940   7.200 -0.9984  0.6746  0.6755
  131OSM    H7G14169   5.743   3.816   7.167  0.4137  0.1240 -3.5548
  131OSM    C8F14170   5.547   3.732   7.204 -0.0212 -0.3235 -0.1832
  131OSM    H8F14171   5.604   3.675   7.281 -0.1624 -0.9138 -0.5060
  131OSM    H8G14172   5.534   3.654   7.126 -0.1258  1.1357 -1.6774
  131OSM    C9F14173   5.413   3.780   7.257  0.0195  0.5109 -0.7798
  131OSM    H9F14174   5.343   3.818   7.180  0.3618  0.1610 -1.2681
  131OSM   C10F14175   5.381   3.787   7.390  0.4715 -0.6467 -0.4057
  131OSM   H10F14176   5.278   3.819   7.413  1.2602  1.4229  0.4695
  131OSM   C11F14177   5.466   3.748   7.509  0.1426  0.1781  0.3321
  131OSM   H11F14178   5.464   3.820   7.593  0.7344  0.1763  0.3546
  131OSM   H11G14179   5.572   3.743   7.474 -0.9738 -2.8276 -3.3980
  131OSM   C12F14180   5.445   3.607   7.571  0.7373  0.3341 -0.0953
  131OSM   H12F14181   5.448   3.523   7.499  2.3628  1.6780 -1.6982
  131OSM   H12G14182   5.349   3.609   7.626  1.3342  1.0743  0.9746
  131OSM   C13F14183   5.557   3.572   7.671 -0.3234 -0.1001 -0.5045
  131OSM   H13F14184   5.564   3.661   7.737 -1.3163  0.7090 -1.4524
  131OSM   H13G14185   5.658   3.574   7.625 -0.1579  1.2344 -0.1433
  131OSM   C14F14186   5.537   3.457   7.765 -1.0471 -0.0385 -0.2825
  131OSM   H14F14187   5.514   3.365   7.707  2.1768  0.0120 -1.8626
  131OSM   H14G14188   5.456   3.494   7.831  0.2951  0.4229  1.1931
  131OSM   C15F14189   5.650   3.417   7.858 -0.0585  0.2108 -0.0257
  131OSM   H15F14190   5.687   3.518   7.888  2.3467 -0.1108 -1.5830
  131OSM   H15G14191   5.732   3.376   7.796 -0.4333  1.4147 -1.3662
  131OSM   C16F14192   5.618   3.314   7.967  0.2768  0.0722 -0.2785
  131OSM   H16F14193   5.579   3.221   7.920  0.8214  0.7403 -2.1456
  131OSM   H16G14194   5.532   3.361   8.020 -0.2476 -1.3463  0.1774
  131OSM   C17F14195   5.743   3.278   8.047 -0.0902  0.0494  0.6630
  131OSM   H17F14196   5.791   3.376   8.066 -2.8764  1.5629  0.5712
  131OSM   H17G14197   5.810   3.219   7.982 -1.9790  0.7256 -2.0769
  131OSM   C18F14198   5.699   3.216   8.177  0.8112  0.1586  0.2626
  131OSM   H18F14199   5.613   3.278   8.214 -1.8806 -1.9615 -1.9849
  131OSM   H18G14200   5.776   3.207   8.257  0.8572 -0.9949  0.1036
  131OSM   H18H14201   5.678   3.110   8.153  0.7674  0.6584 -2.0690
  132OSM      N14202   0.827   4.957   6.228  0.0691 -0.1382 -0.0734
  132OSM    C1514203   0.677   4.939   6.215 -0.6781  0.1532 -0.4566
  132OSM   H15A14204   0.651   4.836   6.197  0.5781 -0.1962 -0.3492
  132OSM   H15B14205   0.638   5.009   6.142  1.9261  1.3907 -0.7858
  132OSM   H15C14206   0.633   4.975   6.306 -2.1016  2.7000 -2.0149
  132OSM    C1414207   0.901   4.946   6.099 -0.3791 -0.2088  0.1497
  132OSM   H14A14208   1.007   4.946   6.117 -0.1858 -0.8578 -0.8895
  132OSM   H14B14209   0.885   5.025   6.027  2.2851 -1.2239 -1.7026
  132OSM   H14C14210   0.885   4.855   6.043 -0.9519  0.2880 -0.5141
  132OSM    C1314211   0.831   5.101   6.269  1.0160 -0.1506  0.1096
  132OSM   H13A14212   0.783   5.159   6.192  1.6893  1.0968  0.6156
  132OSM   H13B14213   0.936   5.121   6.279  1.0192 -0.8415  1.9382
  132OSM   H13C14214   0.791   5.120   6.368 -0.9407 -1.6619 -0.3264
  132OSM    C1214215   0.885   4.859   6.336  0.1906 -0.4383  0.4408
  132OSM   H12A14216   0.989   4.890   6.341 -0.4541  1.7827  1.9586
  132OSM   H12B14217   0.887   4.762   6.288  0.1065  0.5898 -1.7708
  132OSM    C1114218   0.827   4.849   6.485 -0.9357  0.4432  0.3080
  132OSM   H11A14219   0.856   4.940   6.542  2.7517 -1.5423  1.9735
  132OSM   H11B14220   0.886   4.770   6.538  0.6914  2.6043  1.9016
  132OSM      P14221   0.616   4.702   6.511 -0.2142  0.4096  0.0650
  132OSM    O1314222   0.479   4.706   6.451 -0.3393 -1.2642  0.3241
  132OSM    O1414223   0.710   4.596   6.483  0.2441  0.8910  0.1785
  132OSM    O1114224   0.607   4.712   6.668  0.3095  0.9409 -0.3736
  132OSM    O1214225   0.688   4.835   6.492 -0.4748 -0.4582 -0.1253
  132OSM    C1S14226   0.501   4.789   6.721  0.3635  0.4186 -0.5945
  132OSM    H1S14227   0.410   4.726   6.712  0.1473  0.5525  0.4995
  132OSM    H1T14228   0.492   4.891   6.678  1.0601  0.2655 -1.1086
  132OSM     NF14229   0.400   4.863   6.938 -0.0022 -0.3626 -0.2855
  132OSM    HNF14230   0.405   4.962   6.951  2.7371 -0.4681  0.2100
  132OSM    C2S14231   0.519   4.812   6.875 -0.4675  0.1386 -0.7065
  132OSM    H2S14232   0.545   4.715   6.923  0.3068  0.9934  0.6571
  132OSM    C3S14233   0.646   4.893   6.891  0.1907 -0.5372  0.0180
  132OSM    H3S14234   0.622   4.998   6.863 -0.1772  0.3353  3.2751
  132OSM     O314235   0.755   4.867   6.801  0.3361 -0.2792  0.5082
  132OSM    HO314236   0.712   4.829   6.724  1.1097  1.8822 -1.0787
  132OSM    C4S14237   0.701   4.881   7.024  0.0714 -0.3400  0.2033
  132OSM    H4S14238   0.732   4.778   7.048  0.0705 -0.0748  1.3774
  132OSM    C5S14239   0.724   4.980   7.109 -0.1018  0.0600  0.0815
  132OSM    H5S14240   0.676   5.076   7.085 -1.8779 -0.3885  1.6283
  132OSM    C6S14241   0.786   4.970   7.246 -0.5602  0.2028  0.0832
  132OSM    H6S14242   0.741   5.038   7.321 -2.3111 -0.9474  0.1534
  132OSM    H6T14243   0.890   5.006   7.234 -0.7514  0.1419 -2.1268
  132OSM    C7S14244   0.769   4.832   7.306 -0.4870  0.0404  0.2648
  132OSM    H7S14245   0.814   4.755   7.239 -2.6799 -0.3029 -0.8946
  132OSM    H7T14246   0.661   4.807   7.310 -0.2072 -1.0856  1.5363
  132OSM    C8S14247   0.837   4.834   7.446 -0.0421  0.2189  0.0026
  132OSM    H8S14248   0.795   4.915   7.509  1.0186 -0.6833  1.9748
  132OSM    H8T14249   0.941   4.869   7.432 -0.2603  1.1874  0.7086
  132OSM    C9S14250   0.821   4.700   7.527 -0.1987  0.4354  1.1385
  132OSM    H9S14251   0.881   4.619   7.480 -1.2061 -0.2767  1.0483
  132OSM    H9T14252   0.719   4.659   7.513  0.1663  0.5834 -3.5978
  132OSM   C10S14253   0.868   4.709   7.668 -0.8003  0.0106  0.0416
  132OSM   H10S14254   0.831   4.799   7.723 -0.1180  0.3418 -0.0286
  132OSM   H10T14255   0.978   4.709   7.659 -0.9572  1.6139 -3.2960
  132OSM   C11S14256   0.814   4.589   7.751 -0.2951  0.4805  0.0832
  132OSM   H11S14257   0.834   4.496   7.692  1.7882  1.2758 -0.5569
  132OSM   H11T14258   0.706   4.607   7.770 -0.0384  0.9972  1.1191
  132OSM   C12S14259   0.874   4.577   7.893  0.6624  0.2045 -0.2272
  132OSM   H12S14260   0.833   4.665   7.946  1.1557  0.6208 -0.5360
  132OSM   H12T14261   0.981   4.592   7.867  0.7027  0.8920  0.3136
  132OSM   C13S14262   0.845   4.446   7.965  0.5877 -0.3783  1.1689
  132OSM   H13S14263   0.866   4.365   7.892  1.0604 -0.6090  1.5583
  132OSM   H13T14264   0.735   4.435   7.981  0.2364 -1.6626 -1.5018
  132OSM   C14S14265   0.917   4.434   8.100 -0.4524 -0.6788  0.8945
  132OSM   H14S14266   1.018   4.480   8.100 -0.3799 -0.7831 -0.8087
  132OSM   H14T14267   0.923   4.323   8.102 -3.3725 -0.9937 -0.7232
  132OSM   C15S14268   0.839   4.466   8.231  0.0929  0.3791  0.4654
  132OSM   H15S14269   0.896   4.418   8.314 -0.0934 -3.2769 -1.3195
  132OSM   H15T14270   0.737   4.423   8.231  0.5495 -0.7871 -0.6701
  132OSM   C16S14271   0.813   4.615   8.258 -0.3024  0.1629  0.2954
  132OSM   H16S14272   0.732   4.620   8.333 -1.3890  0.3365 -0.8542
  132OSM   H16T14273   0.767   4.655   8.165  0.5237  0.9070  0.1947
  132OSM   C17S14274   0.943   4.700   8.288  0.5270  0.2126  0.0214
  132OSM   H17S14275   1.020   4.695   8.208 -0.5000  1.5891 -1.1136
  132OSM   H17T14276   1.000   4.653   8.371 -0.2788  2.9387  2.2849
  132OSM   C18S14277   0.905   4.849   8.312 -0.4055  0.8750 -0.2599
  132OSM   H18S14278   0.861   4.894   8.221 -1.1376 -0.5874 -0.6666
  132OSM   H18T14279   0.996   4.907   8.337 -1.0973  1.3325  1.3874
  132OSM   H18U14280   0.834   4.850   8.398  0.5366 -1.6940  0.6490
  132OSM    C1F14281   0.298   4.789   6.952  0.0772  0.0808 -0.5559
  132OSM     OF14282   0.308   4.668   6.921  0.5372 -0.1198  0.5370
  132OSM    C2F14283   0.172   4.861   7.001  0.4212 -0.1978  0.0398
  132OSM    H2F14284   0.091   4.847   6.927 -1.3269  0.6481  1.7182
  132OSM    H2G14285   0.194   4.970   6.992 -0.0887 -0.1413 -0.6009
  132OSM    C3F14286   0.131   4.808   7.142  0.0092  0.3173 -0.2917
  132OSM    H3F14287   0.122   4.697   7.150  4.4031 -0.1490  0.5940
  132OSM    H3G14288   0.035   4.857   7.168  0.6153  1.4424 -0.1001
  132OSM    C4F14289   0.229   4.852   7.249 -0.8414  0.0356 -1.4062
  132OSM    H4F14290   0.232   4.963   7.249 -1.5729  0.0726 -0.4265
  132OSM    H4G14291   0.336   4.828   7.231 -0.6931 -2.2976  1.7271
  132OSM    C5F14292   0.175   4.804   7.389 -0.0893  0.7890 -0.7868
  132OSM    H5F14293   0.183   4.693   7.390 -2.0205  0.6116  0.0801
  132OSM    H5G14294   0.065   4.819   7.387 -0.2328 -0.1960 -0.7887
  132OSM    C6F14295   0.250   4.848   7.514 -0.2017 -0.6675  0.1806
  132OSM    H6F14296   0.224   4.955   7.526 -1.3710 -0.5842 -2.5068
  132OSM    H6G14297   0.358   4.840   7.488 -0.8018 -1.1531 -2.4412
  132OSM    C7F14298   0.212   4.772   7.644 -0.1049  0.1725  0.3629
  132OSM    H7F14299   0.216   4.662   7.630 -0.5570  0.3955 -1.9825
  132OSM    H7G14300   0.109   4.791   7.679  0.7143  0.3822  2.8764
  132OSM    C8F14301   0.304   4.821   7.758  0.5719  0.2347 -0.2568
  132OSM    H8F14302   0.280   4.925   7.789  2.0701  1.0682 -1.7453
  132OSM    H8G14303   0.408   4.833   7.721  0.4456  0.7235 -0.4574
  132OSM    C9F14304   0.302   4.729   7.879 -0.3912 -0.0147 -0.2603
  132OSM    H9F14305   0.208   4.672   7.887 -0.7096  0.7292  1.8546
  132OSM   C10F14306   0.396   4.711   7.973  0.0038 -0.3898 -0.1491
  132OSM   H10F14307   0.381   4.645   8.060  0.2796  0.9225  0.9385
  132OSM   C11F14308   0.525   4.794   7.978  0.1326 -0.3994  0.2280
  132OSM   H11F14309   0.533   4.871   7.899 -1.5268 -0.5301 -0.1020
  132OSM   H11G14310   0.614   4.728   7.968  0.8501  0.4105  1.1121
  132OSM   C12F14311   0.537   4.849   8.117  0.0795 -0.4245 -0.3013
  132OSM   H12F14312   0.624   4.918   8.127 -1.6234  1.8762 -0.7158
  132OSM   H12G14313   0.529   4.762   8.186 -1.5372 -0.6419 -0.7240
  132OSM   C13F14314   0.411   4.930   8.171  0.3968 -0.1935  0.2190
  132OSM   H13F14315   0.315   4.875   8.157  0.6838 -1.0655  1.5176
  132OSM   H13G14316   0.387   5.017   8.106  0.3560 -0.7557 -0.5341
  132OSM   C14F14317   0.425   4.963   8.322  0.2452 -0.5537 -0.1114
  132OSM   H14F14318   0.482   4.882   8.372  3.9092  1.6133 -0.3989
  132OSM   H14G14319   0.337   4.981   8.387  1.1813 -0.1598  1.0754
  132OSM   C15F14320   0.518   5.090   8.340  0.2868 -0.0890 -0.3953
  132OSM   H15F14321   0.458   5.183   8.336  1.0913  0.5171  0.8276
  132OSM   H15G14322   0.596   5.095   8.261  0.3501  0.4288 -0.3007
  132OSM   C16F14323   0.605   5.075   8.468  1.0551 -0.2234  0.7347
  132OSM   H16F14324   0.671   4.986   8.458  0.5039 -0.5530 -0.1196
  132OSM   H16G14325   0.537   5.058   8.554  0.0606  2.6553  0.6179
  132OSM   C17F14326   0.683   5.203   8.501  0.0517  0.3167 -0.4081
  132OSM   H17F14327   0.622   5.287   8.541  1.0429  0.3158  1.1665
  132OSM   H17G14328   0.727   5.239   8.405 -0.1556  0.0631 -0.6009
  132OSM   C18F14329   0.802   5.200   8.592  0.0827 -0.1483 -0.7765
  132OSM   H18F14330   0.834   5.304   8.617 -1.7759  0.4835 -0.7955
  132OSM   H18G14331   0.878   5.143   8.536 -0.3833  0.1232 -1.7152
  132OSM   H18H14332   0.774   5.153   8.689 -0.1320 -1.6388 -1.5452
  133OSM      N14333   6.355   3.168   6.112  0.2070 -0.0902  0.1081
  133OSM    C1514334   6.418   3.084   6.009 -0.2290  0.3795 -0.2321
  133OSM   H15A14335   6.405   3.133   5.914 -0.8094 -0.2514 -0.4878
  133OSM   H15B14336   6.370   2.988   5.995  0.4375 -0.7139  3.7924
  133OSM   H15C14337   6.521   3.055   6.023  0.0660  0.4316 -2.0703
  133OSM    C1414338   6.206   3.171   6.087 -0.7037  0.0344 -0.4173
  133OSM   H14A14339   6.167   3.071   6.094 -1.5801  0.3735 -0.3663
  133OSM   H14B14340   6.185   3.222   5.993  1.2734 -1.2458 -1.6191
  133OSM   H14C14341   6.161   3.226   6.168  0.0965  1.2363 -0.7467
  133OSM    C1314342   6.386   3.114   6.251 -0.2866 -0.6452 -0.4239
  133OSM   H13A14343   6.370   3.007   6.262 -0.2135 -0.5861  0.2821
  133OSM   H13B14344   6.324   3.157   6.328 -0.5627 -0.3293 -0.8173
  133OSM   H13C14345   6.493   3.118   6.268 -0.1096 -0.6813 -1.4505
  133OSM    C1214346   6.410   3.309   6.098 -0.9890 -0.1802  0.4707
  133OSM   H12A14347   6.399   3.338   5.995 -0.2520  1.5435  0.8299
  133OSM   H12B14348   6.516   3.307   6.121 -1.3434  1.2108  2.5073
  133OSM    C1114349   6.347   3.422   6.186  0.0932  0.0700  0.1663
  133OSM   H11A14350   6.425   3.499   6.203  1.8256 -1.0417 -2.1212
  133OSM   H11B14351   6.321   3.377   6.284  1.5940  2.6761  1.8928
  133OSM      P14352   6.167   3.595   6.153 -0.0128 -0.0698 -0.3926
  133OSM    O1314353   6.252   3.693   6.090 -0.4147  0.0886 -0.2643
  133OSM    O1414354   6.029   3.579   6.108 -0.7659 -0.1785 -0.0595
  133OSM    O1114355   6.175   3.593   6.311  0.3288 -0.4103 -0.2701
  133OSM    O1214356   6.233   3.463   6.112 -0.5611 -0.3967 -0.4523
  133OSM    C1S14357   6.106   3.494   6.394  0.0838 -0.0403 -0.3584
  133OSM    H1S14358   6.132   3.392   6.359 -2.5209 -0.2226 -2.0596
  133OSM    H1T14359   5.995   3.501   6.396  0.0562  0.3820 -2.0530
  133OSM     NF14360   6.070   3.391   6.607  0.0724  0.3003  0.2640
  133OSM    HNF14361   5.977   3.394   6.641  0.1297 -1.2821  0.6509
  133OSM    C2S14362   6.129   3.511   6.549 -0.6119 -0.0953 -0.4580
  133OSM    H2S14363   6.238   3.507   6.565 -0.5015 -1.3926 -1.3826
  133OSM    C3S14364   6.050   3.645   6.600  0.1014 -0.2933 -0.1404
  133OSM    H3S14365   5.942   3.636   6.573 -0.2152 -0.6070  1.1498
  133OSM     O314366   6.106   3.756   6.539  0.1930  0.4228  0.6221
  133OSM    HO314367   6.105   3.728   6.447 -1.6171 -0.6707  0.9124
  133OSM    C4S14368   6.058   3.666   6.747 -0.1317  0.4704 -0.3104
  133OSM    H4S14369   5.962   3.642   6.795  0.4206 -2.0034 -0.3220
  133OSM    C5S14370   6.159   3.719   6.826  0.1901 -0.4189  0.5177
  133OSM    H5S14371   6.251   3.759   6.781 -0.3433  1.6326  1.1696
  133OSM    C6S14372   6.141   3.735   6.974  0.0759  0.1313  0.0581
  133OSM    H6S14373   6.036   3.710   7.002 -0.2863  0.3813 -0.9968
  133OSM    H6T14374   6.151   3.839   7.013  0.7318 -0.6159  1.9895
  133OSM    C7S14375   6.231   3.631   7.051 -0.6035 -0.8423  0.1859
  133OSM    H7S14376   6.337   3.633   7.018 -0.1428 -1.5586  1.5657
  133OSM    H7T14377   6.194   3.527   7.041 -3.3209  0.0053  0.5780
  133OSM    C8S14378   6.233   3.658   7.201 -0.1454  0.2616 -0.6341
  133OSM    H8S14379   6.302   3.590   7.256 -1.2630 -0.4905 -0.1368
  133OSM    H8T14380   6.130   3.648   7.241 -0.0284  0.8231 -0.1583
  133OSM    C9S14381   6.273   3.805   7.256  0.1062 -0.4230  0.0293
  133OSM    H9S14382   6.208   3.884   7.214  0.7066  0.0978  0.0783
  133OSM    H9T14383   6.376   3.830   7.223  0.3058 -1.2844 -0.0238
  133OSM   C10S14384   6.271   3.809   7.409  0.7926  0.3458  0.1391
  133OSM   H10S14385   6.185   3.753   7.452  1.2821  0.3752  1.1947
  133OSM   H10T14386   6.271   3.913   7.446 -2.4843 -0.1284  1.7994
  133OSM   C11S14387   6.405   3.745   7.472 -0.0683 -0.1914 -0.3426
  133OSM   H11S14388   6.489   3.817   7.460 -1.0535  1.0546  0.0212
  133OSM   H11T14389   6.414   3.642   7.432 -0.1508  0.1168 -1.1629
  133OSM   C12S14390   6.387   3.737   7.621  0.4342 -0.1852  0.3282
  133OSM   H12S14391   6.300   3.668   7.633  1.3719 -1.6950 -1.2355
  133OSM   H12T14392   6.369   3.834   7.673  0.5731 -0.7954  1.5544
  133OSM   C13S14393   6.506   3.675   7.690 -0.9013 -0.2965  0.9152
  133OSM   H13S14394   6.593   3.742   7.702 -0.6580 -0.3971 -0.1566
  133OSM   H13T14395   6.538   3.593   7.622 -0.4890 -0.8381  1.7477
  133OSM   C14S14396   6.465   3.605   7.820 -0.0166  0.5074  0.9438
  133OSM   H14S14397   6.422   3.504   7.803 -0.1611  0.4082  1.8662
  133OSM   H14T14398   6.383   3.666   7.862 -1.4446 -0.1087 -0.8079
  133OSM   C15S14399   6.574   3.573   7.917 -0.3288 -0.1329  0.0277
  133OSM   H15S14400   6.648   3.656   7.924 -2.2275  1.7072 -0.6172
  133OSM   H15T14401   6.634   3.482   7.893 -1.2341 -0.4328 -1.1996
  133OSM   C16S14402   6.509   3.557   8.055 -0.1370 -0.0262 -0.4748
  133OSM   H16S14403   6.470   3.454   8.069  0.8790 -0.2082  1.2222
  133OSM   H16T14404   6.423   3.626   8.074 -0.1932  0.0881 -1.1179
  133OSM   C17S14405   6.613   3.575   8.176  0.1086 -0.1238 -0.3986
  133OSM   H17S14406   6.682   3.659   8.152 -2.4218  2.4652  0.7703
  133OSM   H17T14407   6.684   3.491   8.194  0.4213  0.1653 -0.2722
  133OSM   C18S14408   6.552   3.612   8.312 -0.0489  0.7252 -0.6627
  133OSM   H18S14409   6.454   3.559   8.316  0.6883 -0.6087  1.0919
  133OSM   H18T14410   6.535   3.721   8.321  0.5733  0.7516  0.3676
  133OSM   H18U14411   6.615   3.582   8.398 -0.6610  2.1035  0.2833
  133OSM    C1F14412   6.127   3.274   6.614  0.0189  1.1205 -0.3331
  133OSM     OF14413   6.236   3.253   6.557  0.3298 -0.0281  0.1964
  133OSM    C2F14414   6.051   3.159   6.686 -0.3791 -0.8220  0.2336
  133OSM    H2F14415   6.012   3.092   6.606  0.5027  0.5498 -1.4057
  133OSM    H2G14416   5.964   3.195   6.745 -0.6359  0.8584 -1.0907
  133OSM    C3F14417   6.140   3.071   6.778  0.0597  0.2144 -0.3787
  133OSM    H3F14418   6.249   3.063   6.758  0.1823 -3.3772  0.9356
  133OSM    H3G14419   6.099   2.969   6.759  2.2222 -1.0852  1.3756
  133OSM    C4F14420   6.132   3.115   6.930 -0.1047 -0.3411  0.7218
  133OSM    H4F14421   6.024   3.106   6.958 -0.0090 -0.8481  0.9521
  133OSM    H4G14422   6.163   3.221   6.935  1.3749 -0.7606  0.7295
  133OSM    C5F14423   6.209   3.025   7.024  0.4326 -0.4271 -0.0188
  133OSM    H5F14424   6.317   3.034   7.001  0.5881 -0.4052  0.6975
  133OSM    H5G14425   6.198   2.916   7.002 -1.7824 -0.4346  0.8353
  133OSM    C6F14426   6.197   3.052   7.173  0.6247  0.0241 -0.5783
  133OSM    H6F14427   6.093   3.027   7.204  0.2798  0.5709 -1.2591
  133OSM    H6G14428   6.200   3.160   7.198 -3.4858  0.2087 -0.1835
  133OSM    C7F14429   6.291   2.956   7.261 -0.0796 -0.2682  0.8482
  133OSM    H7F14430   6.397   2.977   7.233  0.2384 -3.1566 -0.5922
  133OSM    H7G14431   6.270   2.854   7.221  2.3328 -1.1826  1.7245
  133OSM    C8F14432   6.253   2.952   7.407  0.3830 -0.0111 -0.0428
  133OSM    H8F14433   6.155   2.899   7.405  0.0274  0.6545 -1.1820
  133OSM    H8G14434   6.237   3.050   7.456 -3.2457 -0.0123 -0.9199
  133OSM    C9F14435   6.351   2.872   7.485 -0.0010  0.7066 -0.5504
  133OSM    H9F14436   6.441   2.838   7.432 -0.7511 -0.9694 -0.8225
  133OSM   C10F14437   6.346   2.839   7.613 -0.7063  0.0845 -0.1479
  133OSM   H10F14438   6.433   2.791   7.660  0.8223  1.5753 -1.3322
  133OSM   C11F14439   6.236   2.872   7.713 -0.2468 -0.4014  0.1172
  133OSM   H11F14440   6.184   2.775   7.730 -1.9153  0.1962 -1.2788
  133OSM   H11G14441   6.169   2.943   7.660  4.0355  1.1817 -3.7939
  133OSM   C12F14442   6.282   2.954   7.829  0.1142  0.2805 -0.7106
  133OSM   H12F14443   6.341   3.045   7.802 -0.4381  0.3672 -1.6677
  133OSM   H12G14444   6.351   2.894   7.892  0.8673  0.4013 -1.4055
  133OSM   C13F14445   6.173   2.988   7.936 -0.4102  0.5129 -0.2060
  133OSM   H13F14446   6.103   3.065   7.896 -1.1990 -1.1904 -2.2642
  133OSM   H13G14447   6.223   3.032   8.026 -0.7336  2.1350 -0.7924
  133OSM   C14F14448   6.075   2.873   7.967 -0.4648  0.4646  0.3225
  133OSM   H14F14449   6.129   2.782   8.000 -1.7872  0.1768  1.7394
  133OSM   H14G14450   6.025   2.856   7.869  1.7486 -0.3900 -0.7324
  133OSM   C15F14451   5.969   2.896   8.080 -0.7637  0.8530 -0.2758
  133OSM   H15F14452   5.896   2.814   8.064 -2.0656  2.1303 -1.1598
  133OSM   H15G14453   5.913   2.991   8.072 -0.0702  1.2726 -0.2292
  133OSM   C16F14454   6.013   2.889   8.225 -0.2508 -0.1452 -0.3144
  133OSM   H16F14455   6.090   2.960   8.261  0.4278 -1.2935  0.5681
  133OSM   H16G14456   6.051   2.785   8.236  0.7079  0.0548 -1.5660
  133OSM   C17F14457   5.886   2.891   8.316 -0.4724 -0.8135 -0.7330
  133OSM   H17F14458   5.824   2.812   8.269 -0.6150 -0.2635 -1.4953
  133OSM   H17G14459   5.832   2.988   8.312  1.2177  0.1529 -1.2498
  133OSM   C18F14460   5.906   2.855   8.465 -0.4393  0.1808  0.1932
  133OSM   H18F14461   5.821   2.872   8.533  2.0454  1.1118  3.2801
  133OSM   H18G14462   6.001   2.905   8.493  0.0165  0.4636 -1.6659
  133OSM   H18H14463   5.941   2.749   8.465  0.2338  0.3832 -0.7483
  134OSM      N14464   1.939   1.024   6.330 -0.1848 -0.3876 -0.4471
  134OSM    C1514465   1.999   1.080   6.203  0.2870  0.3436 -0.6012
  134OSM   H15A14466   2.104   1.105   6.207  1.3346 -3.5028  0.4584
  134OSM   H15B14467   1.941   1.167   6.175 -2.3636 -1.1096  0.0335
  134OSM   H15C14468   1.976   1.013   6.122 -1.6903  1.6737 -1.2147
  134OSM    C1414469   1.994   0.893   6.354  0.0345 -0.5059  0.5545
  134OSM   H14A14470   2.098   0.905   6.378  0.1430  3.8792 -1.2011
  134OSM   H14B14471   1.971   0.826   6.273 -0.2221 -1.1144  1.1181
  134OSM   H14C14472   1.948   0.848   6.441 -2.7656 -1.5103 -1.2921
  134OSM    C1314473   1.973   1.117   6.436 -0.3190 -1.1093 -0.6815
  134OSM   H13A14474   1.923   1.089   6.528 -1.9967 -1.5527 -1.6858
  134OSM   H13B14475   1.942   1.216   6.407 -1.1115 -1.0618  0.2971
  134OSM   H13C14476   2.076   1.118   6.468 -0.8547 -2.3141  1.3069
  134OSM    C1214477   1.795   1.010   6.300 -0.3701  0.3509 -0.2794
  134OSM   H12A14478   1.794   0.957   6.206  1.4568 -1.0630  0.4284
  134OSM   H12B14479   1.746   1.105   6.283 -1.3654  0.5500  3.0143
  134OSM    C1114480   1.706   0.925   6.399 -0.2163 -0.1762 -0.3295
  134OSM   H11A14481   1.726   0.816   6.396  1.6954  0.1731 -2.1622
  134OSM   H11B14482   1.606   0.930   6.350  0.2663  1.1532 -1.2244
  134OSM      P14483   1.610   1.116   6.558 -0.4520  0.1036  0.1248
  134OSM    O1314484   1.703   1.210   6.625 -0.0423  0.0762  0.3170
  134OSM    O1414485   1.550   1.160   6.429  0.5276  0.2878 -0.6897
  134OSM    O1114486   1.493   1.078   6.657  0.1438  0.2464 -0.9202
  134OSM    O1214487   1.694   0.980   6.539 -0.4664  0.0670  0.4907
  134OSM    C1S14488   1.499   0.978   6.763  0.7571 -0.0484  0.3942
  134OSM    H1S14489   1.543   1.012   6.859  3.1413 -1.8812  0.0515
  134OSM    H1T14490   1.567   0.894   6.735  0.1072 -1.2879  2.3208
  134OSM     NF14491   1.377   0.842   6.918  0.0975  0.2046  0.0882
  134OSM    HNF14492   1.447   0.771   6.910  0.9396  1.1277 -1.1379
  134OSM    C2S14493   1.355   0.915   6.790 -0.2845 -0.2032 -0.5181
  134OSM    H2S14494   1.278   0.992   6.812  0.5436 -0.1347  2.6243
  134OSM    C3S14495   1.302   0.831   6.671 -1.0793 -0.6306 -0.4802
  134OSM    H3S14496   1.372   0.748   6.649 -0.9603 -0.5254 -0.4982
  134OSM     O314497   1.303   0.901   6.553  0.3385  0.2233  0.2024
  134OSM    HO314498   1.342   0.988   6.566 -0.9566  1.2906 -2.2472
  134OSM    C4S14499   1.169   0.769   6.706  0.4559  0.2326 -0.1188
  134OSM    H4S14500   1.172   0.690   6.782  2.1981 -0.3004 -0.7032
  134OSM    C5S14501   1.045   0.811   6.670 -0.2486 -0.4400 -0.2511
  134OSM    H5S14502   1.036   0.906   6.616  1.5248  0.0471  0.2634
  134OSM    C6S14503   0.917   0.749   6.721  0.0762  0.0533 -0.6844
  134OSM    H6S14504   0.872   0.706   6.629  2.8518 -1.3702 -1.4830
  134OSM    H6T14505   0.853   0.829   6.763  0.2092  0.4264 -1.1946
  134OSM    C7S14506   0.925   0.652   6.846  0.0722  0.3347  0.0647
  134OSM    H7S14507   0.995   0.575   6.808 -2.3863 -0.9564 -2.2084
  134OSM    H7T14508   0.824   0.608   6.863  0.0431 -1.2685 -3.3527
  134OSM    C8S14509   0.966   0.732   6.973 -1.3602 -0.4580  0.5373
  134OSM    H8S14510   0.892   0.808   7.004  1.3332  2.7937 -0.3297
  134OSM    H8T14511   1.062   0.784   6.948 -0.5455 -2.9774 -2.1134
  134OSM    C9S14512   0.995   0.635   7.085  0.6074 -0.1704 -0.6132
  134OSM    H9S14513   1.084   0.568   7.083  2.3445  2.0187 -0.8421
  134OSM    H9T14514   0.906   0.569   7.094  0.4412  0.3056  2.0168
  134OSM   C10S14515   1.028   0.705   7.223  0.3628 -0.5159 -0.0207
  134OSM   H10S14516   0.944   0.764   7.266  0.2493  1.0141 -2.1651
  134OSM   H10T14517   1.114   0.772   7.209  0.3472 -0.3525  0.6513
  134OSM   C11S14518   1.049   0.603   7.339  0.2046  0.4163 -0.4992
  134OSM   H11S14519   1.148   0.555   7.328 -0.0069 -0.2366  0.2584
  134OSM   H11T14520   0.966   0.529   7.337  0.5066  0.0891 -0.9182
  134OSM   C12S14521   1.049   0.676   7.480  1.1598  0.0028 -0.3895
  134OSM   H12S14522   0.944   0.710   7.494  0.1473 -3.7252  2.9864
  134OSM   H12T14523   1.111   0.767   7.460  0.8227  0.2598 -0.2676
  134OSM   C13S14524   1.111   0.585   7.594  0.2181 -0.2957 -0.0845
  134OSM   H13S14525   1.215   0.552   7.574 -0.1961 -1.7433  0.0656
  134OSM   H13T14526   1.045   0.496   7.597 -2.4385  1.4509 -1.8618
  134OSM   C14S14527   1.091   0.648   7.736  0.2263  0.3538 -0.0438
  134OSM   H14S14528   0.985   0.681   7.747 -0.3212 -1.8259  2.0216
  134OSM   H14T14529   1.152   0.740   7.726  3.1013 -1.2869  1.3992
  134OSM   C15S14530   1.132   0.565   7.855 -0.6485  0.2091 -0.2549
  134OSM   H15S14531   1.242   0.560   7.839 -0.5946 -0.8644  0.3319
  134OSM   H15T14532   1.100   0.459   7.844 -0.4442 -0.1229  1.9230
  134OSM   C16S14533   1.101   0.625   7.993 -0.3234 -0.5331  0.0335
  134OSM   H16S14534   0.997   0.664   7.997 -0.7521 -1.7046  0.8359
  134OSM   H16T14535   1.173   0.710   8.002 -1.9371  1.0252 -1.0923
  134OSM   C17S14536   1.147   0.538   8.115  0.0858 -0.2922  0.4301
  134OSM   H17S14537   1.253   0.506   8.104  0.1177 -0.1335  0.2834
  134OSM   H17T14538   1.082   0.448   8.123 -1.4385  0.5901 -1.2829
  134OSM   C18S14539   1.128   0.615   8.243  0.1737 -0.0226 -0.5116
  134OSM   H18S14540   1.187   0.708   8.247 -1.4103  0.9842  0.4654
  134OSM   H18T14541   1.141   0.553   8.334 -0.5480  2.7742  1.6144
  134OSM   H18U14542   1.024   0.653   8.244  0.5889  1.1442 -0.1630
  134OSM    C1F14543   1.366   0.911   7.038  0.5947  0.4732 -0.1658
  134OSM     OF14544   1.308   1.022   7.044  0.4640  0.5336  0.1052
  134OSM    C2F14545   1.424   0.847   7.155  0.2165 -0.2278  0.1142
  134OSM    H2F14546   1.523   0.807   7.126  0.1815  0.0176 -0.3615
  134OSM    H2G14547   1.369   0.753   7.177 -0.7400 -0.3014 -2.2222
  134OSM    C3F14548   1.435   0.940   7.275  0.3933  0.6673  0.6218
  134OSM    H3F14549   1.340   0.995   7.289  0.9050  1.3013  1.7439
  134OSM    H3G14550   1.517   1.014   7.266  1.3150 -0.2269  1.3988
  134OSM    C4F14551   1.445   0.869   7.416 -0.2954  0.7113  0.0860
  134OSM    H4F14552   1.354   0.805   7.424  0.3178 -0.2816 -0.6621
  134OSM    H4G14553   1.436   0.947   7.494 -1.8024  0.0874  0.5808
  134OSM    C5F14554   1.581   0.795   7.441  0.2922  0.2201 -0.4170
  134OSM    H5F14555   1.588   0.702   7.380 -0.9839 -0.4499  0.4114
  134OSM    H5G14556   1.583   0.754   7.545  1.6544  0.1232 -0.4670
  134OSM    C6F14557   1.700   0.883   7.426 -0.4446  0.4746 -0.6093
  134OSM    H6F14558   1.711   0.969   7.496 -1.7225 -0.3370  0.6323
  134OSM    H6G14559   1.709   0.936   7.328 -1.6136 -0.0054 -0.9894
  134OSM    C7F14560   1.837   0.800   7.440  0.1905 -0.2841  0.4016
  134OSM    H7F14561   1.912   0.861   7.386  0.3810 -1.3412 -0.5519
  134OSM    H7G14562   1.815   0.710   7.379 -0.7870  0.4301 -0.3289
  134OSM    C8F14563   1.879   0.774   7.583  0.0780 -0.4563  0.0034
  134OSM    H8F14564   1.969   0.708   7.581  0.8166  0.4910  1.0220
  134OSM    H8G14565   1.785   0.731   7.624 -0.2545 -0.1142 -0.3920
  134OSM    C9F14566   1.920   0.900   7.655  0.1290  0.1466  0.0090
  134OSM    H9F14567   1.914   0.993   7.596 -0.2185 -0.2612 -0.6109
  134OSM   C10F14568   1.944   0.909   7.787  0.6445  0.0385 -0.5835
  134OSM   H10F14569   1.985   1.002   7.829  0.9571  0.2141 -1.2483
  134OSM   C11F14570   1.954   0.791   7.883  0.6688  0.0134 -0.0762
  134OSM   H11F14571   1.937   0.690   7.841  2.4550 -0.7931  1.0183
  134OSM   H11G14572   1.863   0.791   7.948 -0.7456 -3.5483 -1.8112
  134OSM   C12F14573   2.075   0.784   7.981 -0.1549  0.1039  0.7095
  134OSM   H12F14574   2.168   0.797   7.922  0.8823  0.2270  2.3194
  134OSM   H12G14575   2.089   0.691   8.040  1.3033 -1.3570 -1.7485
  134OSM   C13F14576   2.082   0.910   8.072  0.0554 -0.8646  0.0410
  134OSM   H13F14577   2.000   0.905   8.146  0.6458 -2.0849  0.6596
  134OSM   H13G14578   2.091   1.009   8.022 -2.3071 -0.4381  0.3621
  134OSM   C14F14579   2.227   0.907   8.144 -0.3103 -0.6666  0.6957
  134OSM   H14F14580   2.298   0.929   8.062 -1.5378 -0.9869 -0.4854
  134OSM   H14G14581   2.233   0.799   8.166 -1.4948 -1.7160 -3.4027
  134OSM   C15F14582   2.246   1.014   8.256 -0.6152  0.8422 -0.0523
  134OSM   H15F14583   2.176   0.982   8.336 -2.0715  4.1578  0.1222
  134OSM   H15G14584   2.225   1.118   8.224 -1.7176  0.8046  0.5018
  134OSM   C16F14585   2.384   1.012   8.315  0.2098 -0.1526  0.5844
  134OSM   H16F14586   2.403   1.104   8.373  1.5394  0.9354 -1.4724
  134OSM   H16G14587   2.457   1.007   8.232  2.4855  0.1401  2.4580
  134OSM   C17F14588   2.419   0.892   8.416 -0.5386 -0.3030  0.4791
  134OSM   H17F14589   2.331   0.828   8.395  0.0489 -0.0640 -3.5527
  134OSM   H17G14590   2.427   0.915   8.524  2.1130  2.1083 -0.0939
  134OSM   C18F14591   2.558   0.830   8.375  0.2864 -0.7227 -0.0295
  134OSM   H18F14592   2.597   0.759   8.452  0.7070 -1.2404 -0.7103
  134OSM   H18G14593   2.633   0.910   8.357  0.9479 -0.9197  1.6600
  134OSM   H18H14594   2.554   0.784   8.274 -2.5001 -1.5329  0.3607
  135OSM      N14595   1.298   1.581   6.182  0.4656  0.3279  0.0380
  135OSM    C1514596   1.257   1.606   6.038 -0.1623 -0.0111  0.1096
  135OSM   H15A14597   1.162   1.560   6.015 -1.4057  2.4143  0.1010
  135OSM   H15B14598   1.337   1.565   5.978 -0.1604 -0.6430  0.5396
  135OSM   H15C14599   1.247   1.710   6.010 -0.1164 -0.6501 -2.5739
  135OSM    C1414600   1.441   1.574   6.192 -0.7092  0.2687  0.1700
  135OSM   H14A14601   1.496   1.665   6.171 -1.3755  0.7893  0.6215
  135OSM   H14B14602   1.473   1.501   6.119 -1.8373 -0.5733  0.4911
  135OSM   H14C14603   1.480   1.550   6.289  1.2364  0.2377 -0.5767
  135OSM    C1314604   1.244   1.693   6.275 -0.2580  0.8075 -0.3116
  135OSM   H13A14605   1.139   1.709   6.258 -0.5929  0.7259  1.4863
  135OSM   H13B14606   1.304   1.781   6.258 -1.3825  1.8825  1.0495
  135OSM   H13C14607   1.250   1.664   6.379  2.0553 -2.0333 -1.0820
  135OSM    C1214608   1.240   1.442   6.224 -0.0466 -0.0109 -0.0652
  135OSM   H12A14609   1.274   1.366   6.156 -1.3746 -0.1066 -0.6547
  135OSM   H12B14610   1.133   1.430   6.211  0.5525 -3.8295 -3.1883
  135OSM    C1114611   1.271   1.391   6.374  0.4601  0.1034  0.2027
  135OSM   H11A14612   1.379   1.396   6.397  0.5315  1.3407 -0.2683
  135OSM   H11B14613   1.250   1.282   6.377  1.5772 -0.3558 -3.3494
  135OSM      P14614   1.041   1.430   6.499 -0.0876 -0.2112  0.2345
  135OSM    O1314615   0.987   1.534   6.593 -0.0144  0.0992 -0.2007
  135OSM    O1414616   0.972   1.403   6.371  0.0142  0.3833  0.6892
  135OSM    O1114617   1.050   1.289   6.583 -0.5214 -0.5926  0.6893
  135OSM    O1214618   1.193   1.469   6.468 -0.5575 -1.0027  0.2661
  135OSM    C1S14619   1.151   1.267   6.680 -0.9099 -0.8745 -0.2082
  135OSM    H1S14620   1.231   1.344   6.675 -2.4051  0.7119 -0.6815
  135OSM    H1T14621   1.189   1.163   6.666 -0.7720 -0.5058 -3.2951
  135OSM     NF14622   1.209   1.258   6.918  0.8860  0.2090 -0.0152
  135OSM    HNF14623   1.205   1.172   6.968  2.6638  0.0073 -0.1627
  135OSM    C2S14624   1.097   1.272   6.826 -0.2047  0.0747  0.2048
  135OSM    H2S14625   1.046   1.370   6.837 -1.3022 -0.5230  0.5856
  135OSM    C3S14626   0.993   1.164   6.849  0.2155  0.0446  0.2464
  135OSM    H3S14627   1.040   1.064   6.839 -0.2926 -0.0929 -0.9457
  135OSM     O314628   0.887   1.172   6.758  0.0407 -0.1162  0.8382
  135OSM    HO314629   0.932   1.214   6.685  1.7040 -1.2139  1.1832
  135OSM    C4S14630   0.922   1.173   6.984 -0.4230  0.1277 -0.2653
  135OSM    H4S14631   0.861   1.263   7.002 -0.2181 -0.1397  2.0630
  135OSM    C5S14632   0.940   1.082   7.078  0.2568  0.0092 -0.5514
  135OSM    H5S14633   1.002   0.993   7.063 -0.0374 -0.5439  1.2817
  135OSM    C6S14634   0.871   1.102   7.210  0.1393  0.0628 -0.2823
  135OSM    H6S14635   0.790   1.026   7.208  0.2579 -0.0701 -2.7594
  135OSM    H6T14636   0.828   1.203   7.226 -0.6871 -0.1446 -1.1004
  135OSM    C7S14637   0.983   1.100   7.318  0.5485  0.1501  0.2348
  135OSM    H7S14638   1.050   1.188   7.307 -0.2755  0.8787  0.9006
  135OSM    H7T14639   1.040   1.005   7.315 -2.0539 -1.5374  1.1183
  135OSM    C8S14640   0.925   1.105   7.462 -0.7240  0.3687 -0.1583
  135OSM    H8S14641   0.862   1.016   7.483  0.9962 -0.9067 -0.1336
  135OSM    H8T14642   0.861   1.192   7.484  0.4846  0.8161  1.9429
  135OSM    C9S14643   1.039   1.109   7.569  0.7503 -0.1459  0.3082
  135OSM    H9S14644   1.119   1.183   7.548  1.3270 -0.3217  1.7759
  135OSM    H9T14645   1.100   1.017   7.584  1.4557  0.3758  0.6946
  135OSM   C10S14646   0.973   1.139   7.706  0.4477  0.1377 -0.6039
  135OSM   H10S14647   0.910   1.051   7.732 -1.3664  1.7529  0.7100
  135OSM   H10T14648   0.905   1.226   7.707 -0.2268 -0.3499  1.6860
  135OSM   C11S14649   1.074   1.145   7.825 -0.2579  0.2179  0.0152
  135OSM   H11S14650   1.131   1.240   7.826  0.3412 -0.0925  2.8059
  135OSM   H11T14651   1.152   1.067   7.815 -1.7775 -1.1554 -1.9933
  135OSM   C12S14652   1.009   1.134   7.967 -0.4510  0.2095 -0.4126
  135OSM   H12S14653   0.958   1.035   7.967 -1.3617  0.6741 -0.5268
  135OSM   H12T14654   0.930   1.206   7.993 -1.9620 -1.1744 -1.0087
  135OSM   C13S14655   1.123   1.126   8.073 -0.3224 -0.3498  0.3162
  135OSM   H13S14656   1.073   1.136   8.172  0.6687 -0.8440  0.8808
  135OSM   H13T14657   1.185   1.218   8.070  1.8181 -1.5108  3.5008
  135OSM   C14S14658   1.206   0.996   8.076 -0.7162 -0.1479  0.6251
  135OSM   H14S14659   1.245   0.984   7.973  1.3371 -1.5796  1.4916
  135OSM   H14T14660   1.139   0.910   8.096  0.0520 -1.1829 -1.0336
  135OSM   C15S14661   1.316   0.997   8.180 -0.3518  0.4138  0.2002
  135OSM   H15S14662   1.266   0.994   8.279  0.0346 -2.7765  0.3987
  135OSM   H15T14663   1.370   1.094   8.174  0.1401  0.0839 -1.3083
  135OSM   C16S14664   1.411   0.882   8.167  0.2954  0.7066 -0.3429
  135OSM   H16S14665   1.364   0.781   8.166  1.6707  0.0104  0.7616
  135OSM   H16T14666   1.454   0.873   8.269  0.0623 -2.0388 -0.4034
  135OSM   C17S14667   1.511   0.878   8.055 -0.9709  0.0609  0.1566
  135OSM   H17S14668   1.477   0.927   7.961 -1.5189 -2.0715 -0.8019
  135OSM   H17T14669   1.534   0.771   8.040 -0.3006  0.5201 -2.6491
  135OSM   C18S14670   1.644   0.950   8.100  0.2911  0.1298 -0.3026
  135OSM   H18S14671   1.638   1.059   8.079  2.1740  0.3934  0.3027
  135OSM   H18T14672   1.728   0.918   8.034  0.1065 -0.6455 -0.1705
  135OSM   H18U14673   1.672   0.933   8.206 -0.6196 -0.8116 -0.2007
  135OSM    C1F14674   1.297   1.351   6.943 -0.0211 -0.0963 -1.2822
  135OSM     OF14675   1.308   1.449   6.875 -0.4546 -0.7198  0.0950
  135OSM    C2F14676   1.392   1.327   7.058 -0.2525  0.2191  0.1964
  135OSM    H2F14677   1.473   1.403   7.053 -0.7457  0.6509 -1.8177
  135OSM    H2G14678   1.434   1.228   7.033 -0.8384  0.2321 -0.9154
  135OSM    C3F14679   1.331   1.319   7.203 -0.3336 -0.3219 -0.0517
  135OSM    H3F14680   1.260   1.234   7.216 -0.0732 -0.5516 -0.1090
  135OSM    H3G14681   1.276   1.413   7.222 -1.5297 -0.5324 -2.1641
  135OSM    C4F14682   1.441   1.304   7.310  0.2988 -0.3364  0.3438
  135OSM    H4F14683   1.502   1.397   7.309  0.6377 -0.4521 -3.3538
  135OSM    H4G14684   1.516   1.227   7.282  1.4402  1.2568 -1.2375
  135OSM    C5F14685   1.380   1.294   7.454 -0.3668 -0.0645  0.4839
  135OSM    H5F14686   1.315   1.206   7.475  1.9578 -1.5917  1.8500
  135OSM    H5G14687   1.321   1.385   7.476  2.7677  1.8912  1.5338
  135OSM    C6F14688   1.488   1.288   7.552  0.4493 -0.5458 -0.6326
  135OSM    H6F14689   1.554   1.378   7.553 -0.1652 -0.0474  1.5606
  135OSM    H6G14690   1.550   1.198   7.532  2.2174  0.9755 -2.5823
  135OSM    C7F14691   1.435   1.268   7.699  0.2489 -0.1153  0.1476
  135OSM    H7F14692   1.390   1.167   7.703  1.1713 -0.5217  0.6762
  135OSM    H7G14693   1.361   1.349   7.718 -1.2636 -1.1292 -1.1638
  135OSM    C8F14694   1.548   1.285   7.798  0.4440 -0.5240  0.0453
  135OSM    H8F14695   1.590   1.388   7.798  0.0751 -0.3696 -0.1720
  135OSM    H8G14696   1.627   1.212   7.771 -0.5760 -1.1157 -1.4444
  135OSM    C9F14697   1.496   1.252   7.934 -1.7353  0.1981  0.4837
  135OSM    H9F14698   1.433   1.161   7.937  1.4552 -2.1927  0.0713
  135OSM   C10F14699   1.521   1.315   8.049 -0.0466 -0.1224 -0.0859
  135OSM   H10F14700   1.455   1.285   8.131 -0.5968  1.2878  0.0160
  135OSM   C11F14701   1.609   1.439   8.069  0.1848  0.0288 -0.5170
  135OSM   H11F14702   1.536   1.514   8.104  0.3536 -0.6921  1.5481
  135OSM   H11G14703   1.665   1.473   7.979  1.6093 -2.4239 -0.6494
  135OSM   C12F14704   1.710   1.398   8.186 -0.1126  0.1148  0.6932
  135OSM   H12F14705   1.780   1.484   8.190  1.3312 -0.9382 -0.7043
  135OSM   H12G14706   1.767   1.314   8.141 -0.9676  0.6208 -1.4732
  135OSM   C13F14707   1.639   1.360   8.316 -0.0960 -0.6997 -0.0232
  135OSM   H13F14708   1.580   1.269   8.293  0.4642 -0.7954 -1.1458
  135OSM   H13G14709   1.562   1.435   8.344  0.6089  0.6850 -1.6060
  135OSM   C14F14710   1.731   1.332   8.435 -0.2391 -0.9197  1.6380
  135OSM   H14F14711   1.787   1.420   8.473 -1.0340  1.3081 -1.9078
  135OSM   H14G14712   1.800   1.257   8.390  0.0888 -0.3848  1.2235
  135OSM   C15F14713   1.663   1.266   8.559  0.1322  0.2901 -0.0151
  135OSM   H15F14714   1.575   1.327   8.589  0.2873  0.4848  0.0529
  135OSM   H15G14715   1.740   1.274   8.639  2.7746  2.0356 -2.5183
  135OSM   C16F14716   1.636   1.116   8.537  0.1186 -0.3184  0.6458
  135OSM   H16F14717   1.730   1.062   8.513 -0.2064 -0.7250  0.2634
  135OSM   H16G14718   1.575   1.113   8.444  1.1558  0.8308 -0.0958
  135OSM   C17F14719   1.572   1.063   8.664  0.1710 -0.7220  0.9253
  135OSM   H17F14720   1.478   1.118   8.683  1.3223  2.0473 -0.7876
  135OSM   H17G14721   1.641   1.079   8.749 -1.2879  2.6694  1.6454
  135OSM   C18F14722   1.547   0.912   8.643 -0.3307  0.6200  0.1325
  135OSM   H18F14723   1.457   0.891   8.580  0.5679 -3.6319 -0.0228
  135OSM   H18G14724   1.525   0.864   8.740  0.1405  3.3474  1.7072
  135OSM   H18H14725   1.635   0.861   8.598 -1.5384  0.2661 -1.9823
  136OSM      N14726   0.415   2.859   6.078  0.6190 -0.0322 -0.1852
  136OSM    C1514727   0.300   2.900   5.991 -1.2730 -0.5373 -0.5409
  136OSM   H15A14728   0.278   2.808   5.938  2.3773 -2.2886  0.6377
  136OSM   H15B14729   0.334   2.984   5.932  0.0986 -0.9133 -0.3195
  136OSM   H15C14730   0.215   2.924   6.053 -0.6518 -1.1631  0.5916
  136OSM    C1414731   0.379   2.732   6.144 -0.0330  0.0700 -0.2433
  136OSM   H14A14732   0.308   2.756   6.221 -0.5095 -0.5919 -0.4691
  136OSM   H14B14733   0.457   2.673   6.189 -0.6139  0.6779  1.6297
  136OSM   H14C14734   0.339   2.658   6.077 -0.5508 -0.4049  0.5804
  136OSM    C1314735   0.534   2.827   5.992 -0.6384 -0.2785  0.2326
  136OSM   H13A14736   0.568   2.912   5.935 -2.6448 -0.7968 -1.9027
  136OSM   H13B14737   0.501   2.748   5.927  1.1010 -0.4503 -0.4969
  136OSM   H13C14738   0.615   2.781   6.046  0.6779 -2.0279 -2.9937
  136OSM    C1214739   0.447   2.956   6.182 -0.4071 -0.4786 -0.2342
  136OSM   H12A14740   0.533   2.926   6.239 -0.4464  3.1375  2.0709
  136OSM   H12B14741   0.360   2.964   6.246  0.6152 -2.7109  1.5557
  136OSM    C1114742   0.479   3.101   6.141  0.2004 -0.3583  0.0803
  136OSM   H11A14743   0.554   3.101   6.059 -1.2159 -0.4522 -1.2504
  136OSM   H11B14744   0.520   3.134   6.239 -2.6669 -0.9342  1.5983
  136OSM      P14745   0.360   3.327   6.119  0.0389 -0.4834 -0.0231
  136OSM    O1314746   0.483   3.376   6.051  0.2805 -0.8610 -0.5329
  136OSM    O1414747   0.230   3.372   6.058 -0.2567 -0.4320 -0.1106
  136OSM    O1114748   0.363   3.364   6.276  0.4754  0.3096  0.4018
  136OSM    O1214749   0.353   3.168   6.103 -0.2960 -0.0575  0.1986
  136OSM    C1S14750   0.292   3.296   6.377  0.2666  0.0236  0.1850
  136OSM    H1S14751   0.291   3.186   6.360  0.7921 -0.2025  1.5447
  136OSM    H1T14752   0.185   3.326   6.369  0.0633 -0.2120  1.6966
  136OSM     NF14753   0.214   3.271   6.609  0.0308  0.3429 -0.4237
  136OSM    HNF14754   0.142   3.335   6.633 -0.5305  0.2909 -1.8948
  136OSM    C2S14755   0.324   3.325   6.530 -0.2934 -0.0254  0.3242
  136OSM    H2S14756   0.420   3.271   6.546  2.2329  3.2834 -2.1604
  136OSM    C3S14757   0.350   3.478   6.541 -0.5849 -0.3733  0.4372
  136OSM    H3S14758   0.254   3.524   6.509 -0.9873 -1.6228 -0.2258
  136OSM     O314759   0.449   3.531   6.448 -0.1327  0.2837 -0.4222
  136OSM    HO314760   0.439   3.472   6.373  0.7886  0.9583 -1.1058
  136OSM    C4S14761   0.381   3.527   6.685  0.2216  0.8904  0.1442
  136OSM    H4S14762   0.289   3.536   6.746 -0.8515 -1.8379 -0.9246
  136OSM    C5S14763   0.501   3.563   6.738 -0.2234  0.5697 -0.8717
  136OSM    H5S14764   0.597   3.542   6.687  0.9684  0.6116  1.2354
  136OSM    C6S14765   0.518   3.617   6.878 -0.0837  0.1526  0.3714
  136OSM    H6S14766   0.425   3.673   6.902 -0.2252  0.6724 -1.2654
  136OSM    H6T14767   0.604   3.687   6.874  0.0740 -0.0767 -1.8412
  136OSM    C7S14768   0.539   3.507   6.986 -0.5378  0.8298  0.4607
  136OSM    H7S14769   0.633   3.450   6.970 -0.5761  0.6278  0.9449
  136OSM    H7T14770   0.458   3.434   6.967  1.9452 -1.4696 -2.2420
  136OSM    C8S14771   0.532   3.559   7.129 -0.7467 -0.1525 -0.3743
  136OSM    H8S14772   0.448   3.626   7.156  0.6827  0.9743  1.4889
  136OSM    H8T14773   0.627   3.599   7.168 -0.1980 -1.1728 -0.6270
  136OSM    C9S14774   0.499   3.430   7.215 -0.1906 -0.6867  0.4247
  136OSM    H9S14775   0.543   3.344   7.159 -1.0966  1.0508 -3.3002
  136OSM    H9T14776   0.391   3.403   7.218 -0.2056 -1.0324 -1.6180
  136OSM   C10S14777   0.566   3.438   7.351 -0.2708 -0.1938 -0.0577
  136OSM   H10S14778   0.526   3.528   7.403  0.7935  0.9447 -1.1247
  136OSM   H10T14779   0.676   3.450   7.342 -0.5396  0.9551 -6.5422
  136OSM   C11S14780   0.535   3.314   7.429 -0.0708  0.1467  0.0844
  136OSM   H11S14781   0.609   3.241   7.390 -0.9328 -1.1209  0.7421
  136OSM   H11T14782   0.432   3.276   7.417 -0.7271  0.8682  2.7481
  136OSM   C12S14783   0.553   3.330   7.576 -0.2522 -0.1595  0.1450
  136OSM   H12S14784   0.480   3.405   7.611  1.0346  1.0454  0.2996
  136OSM   H12T14785   0.657   3.367   7.589 -0.4130  1.0861 -1.7047
  136OSM   C13S14786   0.546   3.198   7.659 -0.2832 -0.1856 -0.5522
  136OSM   H13S14787   0.622   3.125   7.625  0.1223  0.3332 -0.7750
  136OSM   H13T14788   0.442   3.161   7.643 -0.2768  0.5603 -2.5708
  136OSM   C14S14789   0.559   3.232   7.809 -0.0026 -0.4864 -0.1190
  136OSM   H14S14790   0.495   3.318   7.836  1.3101  0.7148 -0.7010
  136OSM   H14T14791   0.657   3.279   7.832 -0.8704  1.2439  0.1798
  136OSM   C15S14792   0.546   3.116   7.902  0.8062  0.4175 -0.1853
  136OSM   H15S14793   0.621   3.036   7.884  2.1805  1.2374  1.6250
  136OSM   H15T14794   0.444   3.072   7.904  1.5870 -1.6538 -1.8868
  136OSM   C16S14795   0.554   3.171   8.044  1.0510  0.3857 -0.1432
  136OSM   H16S14796   0.471   3.245   8.050  0.7930 -0.0233  1.7340
  136OSM   H16T14797   0.652   3.222   8.063  0.2418  1.7771  0.4485
  136OSM   C17S14798   0.539   3.053   8.142  0.2115 -0.2699 -0.4562
  136OSM   H17S14799   0.610   2.974   8.110  1.7411  0.4800  0.9284
  136OSM   H17T14800   0.436   3.011   8.139 -0.9243  2.3036 -1.4731
  136OSM   C18S14801   0.571   3.085   8.288 -0.1691  0.0866 -0.0726
  136OSM   H18S14802   0.590   2.991   8.343  2.0952  0.0747 -0.8029
  136OSM   H18T14803   0.490   3.151   8.328  0.8795  1.9916 -0.9406
  136OSM   H18U14804   0.664   3.144   8.301 -0.5067  1.3065 -2.6368
  136OSM    C1F14805   0.190   3.137   6.637  0.0557 -1.2341 -0.0253
  136OSM     OF14806   0.256   3.047   6.592 -0.4031  0.4079 -0.2529
  136OSM    C2F14807   0.081   3.112   6.735  0.0824 -0.6587 -0.2656
  136OSM    H2F14808  -0.006   3.175   6.708 -0.4429  0.1155  2.8956
  136OSM    H2G14809   0.113   3.159   6.830  2.8017 -0.6479 -1.0907
  136OSM    C3F14810   0.038   2.964   6.753 -0.5827  0.0515  0.0713
  136OSM    H3F14811   0.125   2.899   6.773 -0.4906  0.4548  1.0550
  136OSM    H3G14812  -0.022   2.936   6.663 -2.1884  2.2990  0.3463
  136OSM    C4F14813  -0.053   2.958   6.878 -0.0271  0.3924  0.1633
  136OSM    H4F14814  -0.148   3.013   6.859  0.2439  0.9959  0.5443
  136OSM    H4G14815  -0.010   3.001   6.971  0.5587 -4.1449  2.2527
  136OSM    C5F14816  -0.080   2.817   6.942 -0.2028  0.0801 -0.1794
  136OSM    H5F14817   0.023   2.777   6.959 -0.0768  1.0468  1.6222
  136OSM    H5G14818  -0.132   2.768   6.857 -0.0808  1.7619 -1.2730
  136OSM    C6F14819  -0.163   2.813   7.066  0.1807  0.3030 -0.3849
  136OSM    H6F14820  -0.256   2.871   7.050 -1.4956 -1.8724  0.8545
  136OSM    H6G14821  -0.109   2.869   7.145  0.7580 -1.0585  0.2037
  136OSM    C7F14822  -0.186   2.664   7.111  1.2127  0.0672 -0.5488
  136OSM    H7F14823  -0.258   2.635   7.031 -1.4964  0.5703  1.5481
  136OSM    H7G14824  -0.255   2.659   7.198  2.4775 -1.0466  0.4320
  136OSM    C8F14825  -0.069   2.566   7.129 -0.3481 -0.3222  0.3007
  136OSM    H8F14826  -0.014   2.559   7.033 -0.5800 -0.0299  0.1443
  136OSM    H8G14827  -0.108   2.467   7.158 -2.1148  0.6187  1.3233
  136OSM    C9F14828   0.032   2.626   7.224  0.6476 -0.2718  0.1114
  136OSM    H9F14829   0.107   2.697   7.187  1.6564 -0.4403  1.7285
  136OSM   C10F14830   0.035   2.590   7.354  0.4307 -0.0596 -0.4013
  136OSM   H10F14831   0.113   2.623   7.424 -1.0837  2.0913  0.3942
  136OSM   C11F14832  -0.065   2.499   7.427 -0.6650 -0.3943  0.3024
  136OSM   H11F14833  -0.090   2.406   7.371 -0.4454 -1.7049  2.2645
  136OSM   H11G14834  -0.169   2.535   7.444  0.4085  1.3618  4.6494
  136OSM   C12F14835  -0.015   2.462   7.567  0.0644  0.1889 -0.2215
  136OSM   H12F14836   0.079   2.404   7.560  1.0668  1.8241 -0.8381
  136OSM   H12G14837  -0.091   2.390   7.605  0.8355 -0.7460 -0.4043
  136OSM   C13F14838  -0.016   2.578   7.667  0.2869 -0.1843  0.1959
  136OSM   H13F14839  -0.024   2.673   7.610 -0.2953 -0.9333 -1.0286
  136OSM   H13G14840   0.071   2.581   7.736  2.2222 -4.9838 -1.5784
  136OSM   C14F14841  -0.134   2.567   7.766  0.0672  0.3513  1.5952
  136OSM   H14F14842  -0.132   2.471   7.823 -0.7739 -0.9369 -0.4054
  136OSM   H14G14843  -0.223   2.577   7.700  0.4591 -1.4975  0.7204
  136OSM   C15F14844  -0.156   2.679   7.858 -0.2156  0.7581 -0.4680
  136OSM   H15F14845  -0.168   2.770   7.795 -0.4121  0.3527 -1.0141
  136OSM   H15G14846  -0.066   2.687   7.923 -0.8202  1.0062  0.3456
  136OSM   C16F14847  -0.283   2.661   7.944  0.1862 -0.0044 -0.0983
  136OSM   H16F14848  -0.378   2.627   7.898 -0.5005 -2.8867  3.0252
  136OSM   H16G14849  -0.322   2.756   7.987 -1.9439 -1.1797  0.7144
  136OSM   C17F14850  -0.256   2.571   8.068 -0.3004 -0.7052  0.2189
  136OSM   H17F14851  -0.174   2.621   8.124  0.0393 -0.8834 -0.1167
  136OSM   H17G14852  -0.223   2.471   8.032  1.0472 -0.6250  1.1668
  136OSM   C18F14853  -0.387   2.559   8.141  0.0666 -0.5112 -0.1906
  136OSM   H18F14854  -0.446   2.653   8.145 -1.3900 -1.4434  1.7763
  136OSM   H18G14855  -0.367   2.527   8.246 -1.4525  0.0879  0.3172
  136OSM   H18H14856  -0.461   2.497   8.087 -1.3898  0.4635  0.6018
  137OSM      N14857   1.563   0.151   6.360 -0.2114 -0.0835  0.0233
  137OSM    C1514858   1.589   0.213   6.491 -0.1753 -0.2814 -0.0774
  137OSM   H15A14859   1.536   0.174   6.576  1.7983 -1.2622  0.7667
  137OSM   H15B14860   1.558   0.317   6.497 -0.7475 -0.5302  1.6246
  137OSM   H15C14861   1.691   0.199   6.523 -0.1387 -0.8901 -0.4482
  137OSM    C1414862   1.642   0.234   6.258  0.3986  0.7481 -0.1937
  137OSM   H14A14863   1.598   0.233   6.160 -0.4804 -0.6918  0.1935
  137OSM   H14B14864   1.743   0.196   6.257  1.5355  3.3586  1.8562
  137OSM   H14C14865   1.666   0.334   6.292  0.3939  0.8735 -0.5510
  137OSM    C1314866   1.624   0.018   6.351  0.4200 -0.0002 -0.2109
  137OSM   H13A14867   1.606  -0.025   6.254  0.3703  1.9076 -1.0948
  137OSM   H13B14868   1.572  -0.037   6.428  1.0180  0.5599  0.6156
  137OSM   H13C14869   1.732   0.008   6.355  0.3179 -1.4213 -0.6218
  137OSM    C1214870   1.419   0.143   6.332  0.1029 -0.2238 -1.0116
  137OSM   H12A14871   1.390   0.112   6.233 -1.7747 -1.5932 -0.0868
  137OSM   H12B14872   1.386   0.245   6.331 -0.1186 -0.2837 -0.3833
  137OSM    C1114873   1.336   0.062   6.440 -0.3335  0.1088 -0.0497
  137OSM   H11A14874   1.229   0.073   6.413  0.3467  2.3800 -2.1777
  137OSM   H11B14875   1.361   0.106   6.538 -2.0066  0.5057  0.2185
  137OSM      P14876   1.312  -0.169   6.556 -0.1387 -0.3346 -0.2857
  137OSM    O1314877   1.166  -0.158   6.552  0.6913 -0.0277  0.4007
  137OSM    O1414878   1.371  -0.301   6.531 -0.0781 -0.2855 -0.1124
  137OSM    O1114879   1.369  -0.093   6.680  0.4675 -0.2063  0.0860
  137OSM    O1214880   1.362  -0.078   6.440 -0.3436 -0.2809 -0.0839
  137OSM    C1S14881   1.512  -0.091   6.699  0.5445 -0.3511 -0.0891
  137OSM    H1S14882   1.553  -0.016   6.628  0.5568 -0.7628 -0.5176
  137OSM    H1T14883   1.559  -0.190   6.680 -1.4295 -1.3998  0.2235
  137OSM     NF14884   1.700  -0.057   6.836 -0.2148 -0.0187 -0.3366
  137OSM    HNF14885   1.751  -0.137   6.867  0.0508  0.5390  0.7151
  137OSM    C2S14886   1.556  -0.059   6.839  0.2628  0.1083  0.4372
  137OSM    H2S14887   1.520   0.042   6.867  2.3916  0.6935  1.1913
  137OSM    C3S14888   1.494  -0.165   6.933 -0.5025  0.6685 -0.0889
  137OSM    H3S14889   1.523  -0.265   6.895  0.1302  1.7000 -2.4772
  137OSM     O314890   1.352  -0.159   6.948 -0.3209 -0.3931  0.0922
  137OSM    HO314891   1.318  -0.117   6.869 -1.6277 -0.7545  0.4446
  137OSM    C4S14892   1.556  -0.145   7.062  0.4448  0.3705 -0.3841
  137OSM    H4S14893   1.509  -0.056   7.105  0.6483  0.9244 -1.2793
  137OSM    C5S14894   1.652  -0.219   7.126  0.1395  0.4794  0.4016
  137OSM    H5S14895   1.701  -0.298   7.068 -0.2857  0.8186 -0.4443
  137OSM    C6S14896   1.698  -0.193   7.276  0.7427  0.1613 -0.5205
  137OSM    H6S14897   1.610  -0.194   7.344 -0.2709  1.7687 -1.7079
  137OSM    H6T14898   1.726  -0.087   7.290 -3.5734  1.2156  1.8195
  137OSM    C7S14899   1.809  -0.283   7.329 -0.1206 -0.4262 -0.0028
  137OSM    H7S14900   1.882  -0.288   7.245 -0.6522  0.1503 -0.5009
  137OSM    H7T14901   1.767  -0.386   7.333 -2.3615  0.4720  1.6847
  137OSM    C8S14902   1.869  -0.238   7.462  0.3660 -0.2845  0.4021
  137OSM    H8S14903   1.883  -0.129   7.447  1.9840 -0.3743  0.9444
  137OSM    H8T14904   1.968  -0.286   7.477  0.6303  0.8108  2.7547
  137OSM    C9S14905   1.783  -0.257   7.592 -0.1436 -0.4734  0.1530
  137OSM    H9S14906   1.779  -0.367   7.611  3.2822 -0.4533  1.7905
  137OSM    H9T14907   1.678  -0.227   7.574  0.2669  0.8922 -0.0584
  137OSM   C10S14908   1.837  -0.181   7.711 -0.1284  0.1855 -0.2950
  137OSM   H10S14909   1.822  -0.071   7.699 -0.5710  0.1211 -0.3655
  137OSM   H10T14910   1.945  -0.205   7.720 -0.7262 -2.7617 -0.2844
  137OSM   C11S14911   1.772  -0.230   7.842 -0.3841  0.2137 -0.2585
  137OSM   H11S14912   1.847  -0.207   7.920  0.7799 -0.2881 -1.1881
  137OSM   H11T14913   1.757  -0.340   7.837  1.4229 -0.0612 -0.6188
  137OSM   C12S14914   1.644  -0.169   7.891  0.3597  0.2369 -0.4998
  137OSM   H12S14915   1.561  -0.223   7.842 -0.0274 -1.1168  1.5169
  137OSM   H12T14916   1.638  -0.064   7.854 -0.1313  0.3473 -0.1160
  137OSM   C13S14917   1.615  -0.175   8.046 -0.2039  0.2871  0.0237
  137OSM   H13S14918   1.546  -0.095   8.082  3.7249  4.0653 -0.0529
  137OSM   H13T14919   1.703  -0.158   8.111  0.4394  0.4824 -0.8859
  137OSM   C14S14920   1.547  -0.310   8.091 -0.4129 -0.4094 -0.0097
  137OSM   H14S14921   1.618  -0.396   8.087 -0.2009 -0.2052 -0.9619
  137OSM   H14T14922   1.477  -0.329   8.006 -0.7549  1.7782 -0.2723
  137OSM   C15S14923   1.464  -0.300   8.213 -0.0302 -0.4167 -0.1685
  137OSM   H15S14924   1.396  -0.213   8.204  1.0717  0.4638 -0.2257
  137OSM   H15T14925   1.534  -0.289   8.299 -0.1546  0.3907 -0.1622
  137OSM   C16S14926   1.374  -0.425   8.230 -0.0487 -0.0995  0.2250
  137OSM   H16S14927   1.443  -0.512   8.231  0.0384 -0.2365 -3.7533
  137OSM   H16T14928   1.296  -0.420   8.151 -1.2842  2.1580  1.4846
  137OSM   C17S14929   1.298  -0.420   8.372  0.1696  0.4222 -0.1546
  137OSM   H17S14930   1.236  -0.328   8.377 -1.1523 -0.3009 -2.0243
  137OSM   H17T14931   1.375  -0.407   8.451  2.2427  0.6394 -2.1227
  137OSM   C18S14932   1.204  -0.542   8.401 -0.3104  0.5078  0.3849
  137OSM   H18S14933   1.134  -0.556   8.316  0.8199 -1.3185 -0.3249
  137OSM   H18T14934   1.146  -0.512   8.491  1.3411  0.5354  1.4949
  137OSM   H18U14935   1.260  -0.637   8.421 -0.6307  0.0411 -0.8325
  137OSM    C1F14936   1.775   0.039   6.779  0.2481 -0.0924 -0.2138
  137OSM     OF14937   1.724   0.150   6.750 -0.5815  0.1445 -0.0462
  137OSM    C2F14938   1.916   0.006   6.749  0.1896  0.5110 -0.5404
  137OSM    H2F14939   1.950   0.040   6.649  0.6446 -0.4208 -0.7094
  137OSM    H2G14940   1.916  -0.105   6.757  1.5843  0.6728  3.9975
  137OSM    C3F14941   2.029   0.056   6.852  0.3289  0.2345  0.0075
  137OSM    H3F14942   2.040   0.166   6.851  1.4668  0.1595 -2.1133
  137OSM    H3G14943   2.129   0.015   6.824 -0.1570 -0.9689 -0.0166
  137OSM    C4F14944   2.010   0.001   6.992 -0.1462  0.1457 -0.6090
  137OSM    H4F14945   1.992  -0.109   6.987 -1.9123  0.3538  0.1952
  137OSM    H4G14946   1.913   0.032   7.037 -0.4856 -0.8381 -0.6313
  137OSM    C5F14947   2.123   0.029   7.086  0.1458 -0.0635 -0.1997
  137OSM    H5F14948   2.136   0.139   7.085 -0.7171  0.0999 -2.8106
  137OSM    H5G14949   2.218  -0.023   7.061 -0.8056 -3.3148  2.2084
  137OSM    C6F14950   2.078  -0.030   7.232 -0.7629 -0.4610 -0.0243
  137OSM    H6F14951   2.043  -0.133   7.213  1.8999 -1.3058 -0.8203
  137OSM    H6G14952   1.992   0.030   7.268 -1.3413 -1.2105 -0.1270
  137OSM    C7F14953   2.196  -0.022   7.323 -0.1306 -0.6392 -0.2548
  137OSM    H7F14954   2.239   0.080   7.312  2.5284 -1.8337 -2.0421
  137OSM    H7G14955   2.263  -0.094   7.272 -0.1408 -0.0568 -1.1230
  137OSM    C8F14956   2.173  -0.057   7.466  0.1444  0.2613  0.3550
  137OSM    H8F14957   2.161  -0.166   7.482  0.3799  0.2615  0.5262
  137OSM    H8G14958   2.071  -0.028   7.499  0.1267 -0.6901  1.1755
  137OSM    C9F14959   2.268   0.008   7.563 -0.0565  0.0034  0.5209
  137OSM    H9F14960   2.303   0.106   7.527 -2.0218  0.1356 -1.2114
  137OSM   C10F14961   2.308  -0.050   7.683  0.0707  0.0089 -0.0343
  137OSM   H10F14962   2.374   0.011   7.747 -1.5066  0.7678  0.9559
  137OSM   C11F14963   2.272  -0.183   7.742  0.9452  0.5227  0.1174
  137OSM   H11F14964   2.330  -0.268   7.699  1.6783  1.6816 -1.2527
  137OSM   H11G14965   2.164  -0.205   7.727  0.7704 -0.0734  1.9382
  137OSM   C12F14966   2.287  -0.190   7.896 -0.9052  0.1920 -0.1611
  137OSM   H12F14967   2.226  -0.264   7.951  0.2162 -0.0419  0.8095
  137OSM   H12G14968   2.259  -0.089   7.934  1.6130  0.9410 -0.1371
  137OSM   C13F14969   2.435  -0.230   7.931  0.0351 -0.1502  0.2796
  137OSM   H13F14970   2.496  -0.172   7.858  1.1785  0.2543  1.5059
  137OSM   H13G14971   2.450  -0.336   7.903  0.7971 -0.1914  0.8049
  137OSM   C14F14972   2.483  -0.206   8.074 -0.7785  0.4453 -0.1773
  137OSM   H14F14973   2.515  -0.101   8.092 -0.5864  0.3318  0.1523
  137OSM   H14G14974   2.572  -0.271   8.094 -0.6718  0.9913  1.2401
  137OSM   C15F14975   2.373  -0.228   8.172  0.2554  0.3703  0.2727
  137OSM   H15F14976   2.332  -0.331   8.160 -1.1514  0.9358  0.1019
  137OSM   H15G14977   2.293  -0.152   8.159  0.2827  0.4487  0.5543
  137OSM   C16F14978   2.434  -0.208   8.311  0.2722 -0.2933  0.3620
  137OSM   H16F14979   2.497  -0.117   8.312 -1.0792  0.6818  0.9954
  137OSM   H16G14980   2.490  -0.290   8.360 -0.5045 -0.3801  1.1341
  137OSM   C17F14981   2.317  -0.184   8.412  0.4722  0.1378 -0.1138
  137OSM   H17F14982   2.257  -0.094   8.384 -1.6619 -0.3486  2.4402
  137OSM   H17G14983   2.372  -0.161   8.506  2.3733 -1.4436 -0.7843
  137OSM   C18F14984   2.220  -0.299   8.429  0.5504  0.0949  0.7736
  137OSM   H18F14985   2.119  -0.262   8.457 -0.6262 -0.0782 -2.7160
  137OSM   H18G14986   2.271  -0.362   8.505 -0.6288 -1.8591  0.0395
  137OSM   H18H14987   2.209  -0.361   8.338 -1.9089 -0.3202  1.2874
  138OSM      N14988   3.759   0.969   5.970 -0.7201 -0.6065 -0.0707
  138OSM    C1514989   3.637   0.894   5.929 -0.5158 -0.0749  0.0182
  138OSM   H15A14990   3.555   0.963   5.923 -1.4490 -0.9991  1.4405
  138OSM   H15B14991   3.608   0.822   6.004  0.6952  0.3955  0.9635
  138OSM   H15C14992   3.655   0.845   5.834 -1.4742 -0.5359  0.0611
  138OSM    C1414993   3.875   0.879   5.961 -0.0194  0.3816 -0.1386
  138OSM   H14A14994   3.875   0.820   5.870 -1.4811 -1.1603  0.7984
  138OSM   H14B14995   3.860   0.805   6.037  1.0961  1.8600  1.5878
  138OSM   H14C14996   3.973   0.920   5.980  1.3566 -1.4325 -2.6018
  138OSM    C1314997   3.788   1.095   5.891  0.6004  0.3143 -0.3132
  138OSM   H13A14998   3.706   1.165   5.896 -0.7974 -1.3256  1.0082
  138OSM   H13B14999   3.805   1.062   5.790  1.1401 -0.5666  0.0458
  138OSM   H13C15000   3.878   1.146   5.923  0.3045  0.4870  0.2467
  138OSM    C1215001   3.752   1.017   6.117  0.0208 -0.6756 -0.2787
  138OSM   H12A15002   3.755   0.932   6.183 -0.2107  0.9831  1.9953
  138OSM   H12B15003   3.654   1.060   6.133 -0.8616 -0.8166 -4.1172
  138OSM    C1115004   3.862   1.118   6.178  0.3590  0.0704  0.1741
  138OSM   H11A15005   3.966   1.086   6.152 -0.1513 -1.1371 -0.4530
  138OSM   H11B15006   3.843   1.117   6.287 -2.3902  0.7056 -0.2264
  138OSM      P15007   3.712   1.339   6.166 -0.1322  0.0346 -0.1252
  138OSM    O1315008   3.745   1.464   6.089  0.1037  0.1273 -0.3957
  138OSM    O1415009   3.588   1.269   6.127  0.3128 -0.0022 -0.5624
  138OSM    O1115010   3.706   1.348   6.324  0.2519  0.1387 -0.0453
  138OSM    O1215011   3.840   1.253   6.142  0.3653 -0.5220 -0.0712
  138OSM    C1S15012   3.833   1.380   6.394  0.5026  0.0041 -0.5028
  138OSM    H1S15013   3.870   1.481   6.365  2.8301 -0.4189  0.7891
  138OSM    H1T15014   3.904   1.298   6.371  1.1695 -0.0733  1.6074
  138OSM     NF15015   3.947   1.417   6.607 -0.5167 -0.8416 -0.2326
  138OSM    HNF15016   4.004   1.339   6.629 -2.5049 -1.8565  1.5867
  138OSM    C2S15017   3.819   1.380   6.551 -0.3422  0.3921 -0.7190
  138OSM    H2S15018   3.756   1.462   6.590 -0.6633 -0.7053  1.2089
  138OSM    C3S15019   3.754   1.249   6.610 -0.4141  0.2933  0.2751
  138OSM    H3S15020   3.835   1.174   6.595  0.5758  0.3970  4.1223
  138OSM     O315021   3.634   1.187   6.537 -0.5003 -0.3964  0.2196
  138OSM    HO315022   3.634   1.243   6.459 -3.9784 -0.1057  0.2723
  138OSM    C4S15023   3.737   1.256   6.760  0.1012  0.1198 -0.9858
  138OSM    H4S15024   3.825   1.229   6.819 -0.6117  0.8252  0.4309
  138OSM    C5S15025   3.628   1.283   6.827 -0.4873 -0.6476  0.1463
  138OSM    H5S15026   3.537   1.295   6.766 -1.2444  2.3788  1.6587
  138OSM    C6S15027   3.611   1.300   6.976 -0.1087 -0.4065  0.2581
  138OSM    H6S15028   3.542   1.222   7.014 -0.7750 -0.6472 -1.3904
  138OSM    H6T15029   3.559   1.395   7.000 -1.0568 -1.1140  1.1065
  138OSM    C7S15030   3.739   1.320   7.055 -0.4767  0.1866  0.3691
  138OSM    H7S15031   3.796   1.411   7.025 -1.1157  0.9361  1.3360
  138OSM    H7T15032   3.793   1.228   7.026  1.3424  1.3357 -0.0614
  138OSM    C8S15033   3.704   1.327   7.206 -0.3274 -0.6350  0.4875
  138OSM    H8S15034   3.638   1.241   7.226 -2.0250  0.6137  0.4705
  138OSM    H8T15035   3.654   1.425   7.225  0.6193 -0.4188  2.0066
  138OSM    C9S15036   3.826   1.319   7.291 -0.2592  0.6160  0.5266
  138OSM    H9S15037   3.887   1.402   7.248 -0.2174  1.0488  1.3928
  138OSM    H9T15038   3.870   1.217   7.283  0.6839  1.0724 -0.4185
  138OSM   C10S15039   3.797   1.339   7.443  0.1527  0.3240  0.3039
  138OSM   H10S15040   3.726   1.260   7.479  0.5734 -0.1283  0.1519
  138OSM   H10T15041   3.752   1.439   7.459 -2.8395 -1.1691  2.3882
  138OSM   C11S15042   3.923   1.351   7.528 -0.4733 -0.3280  0.2563
  138OSM   H11S15043   3.976   1.433   7.476  0.3111 -0.5332  0.7226
  138OSM   H11T15044   3.987   1.261   7.515  3.8747  2.1359  2.3816
  138OSM   C12S15045   3.886   1.381   7.674 -0.6607  0.0724  0.3976
  138OSM   H12S15046   3.888   1.291   7.739 -2.2391 -1.1504 -1.1470
  138OSM   H12T15047   3.780   1.413   7.682 -0.4787  0.6190  0.7306
  138OSM   C13S15048   3.987   1.486   7.740  0.0089 -0.3595  0.3022
  138OSM   H13S15049   3.966   1.595   7.725 -1.5120 -0.6774 -0.0541
  138OSM   H13T15050   4.086   1.463   7.697  0.0271 -0.7619  0.5556
  138OSM   C14S15051   4.001   1.444   7.885  0.8565 -0.2890  0.0668
  138OSM   H14S15052   4.099   1.467   7.933  0.0862 -1.5524  2.4193
  138OSM   H14T15053   3.969   1.342   7.915 -1.0847 -1.4653 -4.9902
  138OSM   C15S15054   3.895   1.529   7.959  0.3278  0.2909  0.1880
  138OSM   H15S15055   3.791   1.504   7.931  0.0479  0.9564  0.6215
  138OSM   H15T15056   3.910   1.634   7.927  0.6713  0.5574  1.1925
  138OSM   C16S15057   3.912   1.529   8.111  0.4700  0.3236 -0.3971
  138OSM   H16S15058   3.843   1.603   8.158  0.3171 -0.4060  0.5670
  138OSM   H16T15059   4.015   1.556   8.142  0.7741 -2.3299  1.1662
  138OSM   C17S15060   3.883   1.404   8.185 -0.1581 -0.0186  0.3582
  138OSM   H17S15061   3.939   1.325   8.129 -2.7381 -2.3286  0.8046
  138OSM   H17T15062   3.775   1.378   8.181  0.4484 -2.8297 -0.7913
  138OSM   C18S15063   3.929   1.395   8.330 -0.5585 -0.2980 -0.1636
  138OSM   H18S15064   4.032   1.436   8.340 -0.8155  0.5312 -0.7493
  138OSM   H18T15065   3.926   1.292   8.372 -2.7974  0.6185  2.2083
  138OSM   H18U15066   3.862   1.451   8.398 -0.4569  0.0060 -0.3111
  138OSM    C1F15067   4.006   1.534   6.597 -0.4576 -0.1562  0.5209
  138OSM     OF15068   3.939   1.643   6.590  0.2272 -0.1316  0.1611
  138OSM    C2F15069   4.161   1.521   6.585  0.7202 -0.4251  0.1104
  138OSM    H2F15070   4.183   1.553   6.480  0.9326  2.2939  0.8941
  138OSM    H2G15071   4.197   1.418   6.604  0.2872 -0.3570  1.3774
  138OSM    C3F15072   4.245   1.599   6.684 -0.1691  0.5588 -0.5815
  138OSM    H3F15073   4.231   1.704   6.649 -0.6007 -0.3586 -3.4429
  138OSM    H3G15074   4.350   1.576   6.656 -0.7519 -2.0063 -0.8397
  138OSM    C4F15075   4.195   1.588   6.835 -0.6823  0.0624 -0.9723
  138OSM    H4F15076   4.096   1.639   6.841  0.5919  2.5853 -0.0052
  138OSM    H4G15077   4.256   1.665   6.886 -2.2189  2.3593 -2.3907
  138OSM    C5F15078   4.194   1.451   6.895 -1.1447  0.5705  0.0077
  138OSM    H5F15079   4.296   1.408   6.906 -1.6067 -0.5401  0.0757
  138OSM    H5G15080   4.138   1.385   6.825 -0.5811  0.7951 -0.6542
  138OSM    C6F15081   4.128   1.452   7.034 -0.1019 -0.1845 -0.1328
  138OSM    H6F15082   4.018   1.451   7.019 -0.3353 -0.4361  1.4142
  138OSM    H6G15083   4.152   1.551   7.079  1.4257  0.9722 -3.1826
  138OSM    C7F15084   4.182   1.347   7.133  0.1691 -0.7796  0.6036
  138OSM    H7F15085   4.132   1.372   7.229 -1.1913  2.6637 -0.8237
  138OSM    H7G15086   4.293   1.357   7.144  0.7639 -1.7289 -3.2886
  138OSM    C8F15087   4.150   1.203   7.087  0.9900  0.2101  0.2802
  138OSM    H8F15088   4.168   1.212   6.978 -1.3552  3.4515  0.0276
  138OSM    H8G15089   4.041   1.187   7.103  1.2330 -0.8411  1.0389
  138OSM    C9F15090   4.228   1.087   7.136  0.1623  0.4918 -0.5413
  138OSM    H9F15091   4.333   1.099   7.107 -0.4310  0.3553 -2.9440
  138OSM   C10F15092   4.190   0.979   7.206  0.6155  0.3897 -0.2589
  138OSM   H10F15093   4.265   0.903   7.234 -0.5769 -1.0264 -0.7762
  138OSM   C11F15094   4.052   0.935   7.247 -0.3166 -0.2494  0.1303
  138OSM   H11F15095   4.023   0.835   7.209 -0.4284 -0.0668 -0.2721
  138OSM   H11G15096   3.972   1.004   7.214 -1.5229 -1.1324  1.1271
  138OSM   C12F15097   4.054   0.939   7.390 -0.6464 -0.5579  0.3153
  138OSM   H12F15098   4.085   1.039   7.426 -0.7061 -1.3999  2.8956
  138OSM   H12G15099   4.128   0.864   7.424 -0.3199  0.1603  1.2162
  138OSM   C13F15100   3.921   0.913   7.466  0.2728 -0.1212 -0.2141
  138OSM   H13F15101   3.880   0.810   7.454  0.5607 -0.4581  1.4262
  138OSM   H13G15102   3.852   0.987   7.420  0.5209  0.5572  0.4941
  138OSM   C14F15103   3.928   0.934   7.622  0.3286  0.3280  0.3328
  138OSM   H14F15104   3.966   1.037   7.636  2.4151 -0.0115 -2.1868
  138OSM   H14G15105   3.996   0.858   7.666 -1.5679 -0.8025  1.4432
  138OSM   C15F15106   3.795   0.917   7.695 -0.7638 -0.1850  0.4911
  138OSM   H15F15107   3.742   0.826   7.661  0.2101  0.2508 -2.4429
  138OSM   H15G15108   3.722   0.994   7.665 -1.9794 -0.8281  1.6988
  138OSM   C16F15109   3.797   0.918   7.846 -0.6559 -0.1935 -0.9661
  138OSM   H16F15110   3.858   0.831   7.878  0.0748  0.5502 -0.2638
  138OSM   H16G15111   3.701   0.913   7.902 -1.5860 -0.1215 -2.5086
  138OSM   C17F15112   3.874   1.039   7.914  0.0382  0.3752 -0.3696
  138OSM   H17F15113   3.818   1.134   7.914 -4.1406 -1.7796 -3.1386
  138OSM   H17G15114   3.956   1.054   7.840  0.1909 -1.4477 -0.6206
  138OSM   C18F15115   3.942   1.008   8.047 -0.3301  0.3194 -0.6514
  138OSM   H18F15116   4.028   1.076   8.065  0.0664 -0.6085  1.3047
  138OSM   H18G15117   4.004   0.916   8.038  0.6738  1.0588 -1.4763
  138OSM   H18H15118   3.886   1.007   8.143 -0.7164 -0.4519 -0.8737
  139OSM      N15119   3.461   1.744   6.287 -0.6401  0.1313 -0.0617
  139OSM    C1515120   3.386   1.638   6.360  0.2909 -1.2010 -0.3974
  139OSM   H15A15121   3.380   1.542   6.310  1.4775 -1.1679 -0.6373
  139OSM   H15B15122   3.290   1.683   6.380  0.0469 -2.7354  2.1816
  139OSM   H15C15123   3.436   1.626   6.454 -0.7454 -0.0951  0.3322
  139OSM    C1415124   3.458   1.873   6.369  0.4326  0.1785 -0.0569
  139OSM   H14A15125   3.501   1.958   6.318 -0.3918  0.4547 -0.2969
  139OSM   H14B15126   3.502   1.852   6.466 -2.0102  0.3711  1.1734
  139OSM   H14C15127   3.355   1.901   6.383  0.7996  0.9356  1.3257
  139OSM    C1315128   3.598   1.695   6.267 -0.3296 -0.0770 -0.0110
  139OSM   H13A15129   3.586   1.608   6.203  0.5783  0.0472 -0.3643
  139OSM   H13B15130   3.656   1.672   6.355  0.5517 -1.3451 -0.8916
  139OSM   H13C15131   3.660   1.756   6.203  1.1598 -1.3595  0.1359
  139OSM    C1215132   3.396   1.769   6.152 -0.3816 -0.0122 -0.6611
  139OSM   H12A15133   3.409   1.680   6.092  0.8944 -0.1769 -0.1851
  139OSM   H12B15134   3.459   1.844   6.105  0.6614 -0.7973 -0.5628
  139OSM    C1115135   3.255   1.819   6.144 -0.1522 -0.0595  0.4216
  139OSM   H11A15136   3.200   1.734   6.190 -1.0246  0.1829 -0.1605
  139OSM   H11B15137   3.225   1.823   6.037  0.2067  0.1836  0.3293
  139OSM      P15138   3.097   1.979   6.287  0.2419  0.4738  0.1971
  139OSM    O1315139   3.089   2.124   6.312 -0.4966 -0.3242  0.2119
  139OSM    O1415140   2.977   1.920   6.212 -0.4005 -0.5840  0.3572
  139OSM    O1115141   3.101   1.904   6.428  0.1332 -0.7218 -0.1362
  139OSM    O1215142   3.239   1.942   6.211  0.5935  0.4329  0.1516
  139OSM    C1S15143   3.115   1.994   6.547 -0.3185 -0.0689  0.2590
  139OSM    H1S15144   3.038   2.073   6.534  0.0774  0.1152 -1.0946
  139OSM    H1T15145   3.218   2.038   6.544 -0.4155  0.2114  0.7814
  139OSM     NF15146   3.056   2.000   6.785 -0.5273  0.2014  0.0932
  139OSM    HNF15147   3.130   2.024   6.848  2.2160  1.1179 -3.2140
  139OSM    C2S15148   3.092   1.910   6.679 -0.3038 -0.2066 -0.5091
  139OSM    H2S15149   3.007   1.839   6.670 -0.5562  0.1112 -0.6495
  139OSM    C3S15150   3.219   1.827   6.711  0.2999 -0.6927  0.0673
  139OSM    H3S15151   3.307   1.896   6.719 -0.5425  0.2433  2.0822
  139OSM     O315152   3.247   1.732   6.604  0.2107  0.1056 -0.6923
  139OSM    HO315153   3.172   1.748   6.545 -0.1957  1.5421  0.1554
  139OSM    C4S15154   3.219   1.759   6.852 -0.0825  0.5756  0.0328
  139OSM    H4S15155   3.252   1.822   6.935 -2.3735 -0.1310  1.5739
  139OSM    C5S15156   3.185   1.632   6.877 -0.6339  0.2332  0.4181
  139OSM    H5S15157   3.154   1.572   6.790 -1.3689  1.5063 -0.2322
  139OSM    C6S15158   3.194   1.572   7.019 -0.7222  0.2150 -0.1256
  139OSM    H6S15159   3.102   1.515   7.044 -0.1565 -1.0194 -0.7707
  139OSM    H6T15160   3.207   1.654   7.092 -0.2465  0.9183 -0.9795
  139OSM    C7S15161   3.309   1.480   7.051 -0.4223 -0.3061 -0.0118
  139OSM    H7S15162   3.406   1.526   7.023  0.0170 -1.4707 -0.4706
  139OSM    H7T15163   3.289   1.386   6.995 -1.4382  0.2515 -0.6179
  139OSM    C8S15164   3.312   1.420   7.194 -0.2648  0.3992  0.2856
  139OSM    H8S15165   3.401   1.354   7.207  0.6679  1.1929 -1.6769
  139OSM    H8T15166   3.222   1.354   7.202 -0.4944  0.3163 -2.0976
  139OSM    C9S15167   3.316   1.530   7.300  0.2307 -0.9248  0.1957
  139OSM    H9S15168   3.217   1.581   7.292  1.4010  1.3539 -0.5911
  139OSM    H9T15169   3.388   1.606   7.262  0.1482 -0.5872  0.7111
  139OSM   C10S15170   3.364   1.488   7.437  0.2974  0.0009  0.0351
  139OSM   H10S15171   3.462   1.437   7.424  0.1988 -0.0834 -0.3879
  139OSM   H10T15172   3.297   1.405   7.469  1.8232 -0.9024  1.0495
  139OSM   C11S15173   3.371   1.607   7.536 -0.0325 -0.7212  0.0450
  139OSM   H11S15174   3.268   1.647   7.548  1.0626  1.5721  3.0042
  139OSM   H11T15175   3.419   1.693   7.485  1.2022 -1.4064  0.0186
  139OSM   C12S15176   3.433   1.575   7.677 -0.2894  0.1331  0.3502
  139OSM   H12S15177   3.544   1.576   7.667 -0.4324  1.2183 -1.7296
  139OSM   H12T15178   3.395   1.473   7.699 -2.3982  0.4385 -1.4788
  139OSM   C13S15179   3.398   1.684   7.787  0.0193  0.1710 -0.6654
  139OSM   H13S15180   3.287   1.684   7.798  0.0292  1.1813 -0.4514
  139OSM   H13T15181   3.427   1.785   7.751 -0.9289  0.7177  0.0754
  139OSM   C14S15182   3.470   1.660   7.921  0.8599 -0.9200  0.8541
  139OSM   H14S15183   3.575   1.633   7.898  0.5560 -2.5787  1.3489
  139OSM   H14T15184   3.435   1.561   7.955  0.6205 -0.3428  2.3304
  139OSM   C15S15185   3.452   1.765   8.032  0.0362 -0.9326  0.2265
  139OSM   H15S15186   3.479   1.866   7.995  2.1263 -1.8256 -0.8000
  139OSM   H15T15187   3.522   1.743   8.115 -0.1522  0.7860  0.8710
  139OSM   C16S15188   3.307   1.777   8.087  0.5118 -0.8258 -0.2586
  139OSM   H16S15189   3.248   1.829   8.008 -2.4948  1.1539  2.9724
  139OSM   H16T15190   3.313   1.833   8.183 -0.4349 -0.1495 -0.5749
  139OSM   C17S15191   3.233   1.653   8.131 -0.1593  0.0693 -0.0345
  139OSM   H17S15192   3.299   1.592   8.198  0.8756  0.4366 -0.6950
  139OSM   H17T15193   3.222   1.579   8.049  0.3665  0.1708 -0.2016
  139OSM   C18S15194   3.095   1.676   8.195 -0.9077 -0.0427 -0.0320
  139OSM   H18S15195   3.029   1.593   8.228  1.4578 -1.8626  0.3610
  139OSM   H18T15196   3.029   1.727   8.121 -0.7032  0.9473  0.4488
  139OSM   H18U15197   3.109   1.743   8.283  0.9293 -0.7549  0.2452
  139OSM    C1F15198   2.947   2.075   6.779 -0.1854  0.2371  0.2233
  139OSM     OF15199   2.855   2.049   6.702 -0.2888 -0.0845 -0.3422
  139OSM    C2F15200   2.932   2.183   6.887  0.0805 -0.3673  0.1611
  139OSM    H2F15201   3.017   2.255   6.887 -1.5925  1.6804  0.1933
  139OSM    H2G15202   2.924   2.133   6.986  1.1055 -0.3321  0.2759
  139OSM    C3F15203   2.814   2.281   6.854 -0.2772 -0.1557  0.2894
  139OSM    H3F15204   2.723   2.221   6.831 -0.6509  0.9546 -1.2547
  139OSM    H3G15205   2.836   2.341   6.763 -0.1616  0.2200  0.5665
  139OSM    C4F15206   2.779   2.387   6.958 -0.5495  0.5324 -0.0975
  139OSM    H4F15207   2.695   2.453   6.931 -2.0739 -1.7186 -1.1996
  139OSM    H4G15208   2.874   2.444   6.968 -0.2730 -0.0339  0.6387
  139OSM    C5F15209   2.752   2.329   7.100 -0.2595 -0.8055 -0.3484
  139OSM    H5F15210   2.842   2.277   7.137  1.0347 -1.0978 -3.5825
  139OSM    H5G15211   2.664   2.261   7.089 -0.7534  0.0075 -1.6082
  139OSM    C6F15212   2.700   2.443   7.196  0.0849  0.5308 -0.2379
  139OSM    H6F15213   2.677   2.397   7.294  2.9558 -0.7184 -0.0617
  139OSM    H6G15214   2.621   2.504   7.147 -1.1498 -0.6907  0.1537
  139OSM    C7F15215   2.806   2.554   7.246 -0.1166  0.2096  0.1917
  139OSM    H7F15216   2.851   2.593   7.152  0.0823  0.9706  0.5975
  139OSM    H7G15217   2.899   2.513   7.292  0.7236 -0.1209 -1.6922
  139OSM    C8F15218   2.743   2.678   7.327 -0.0160  0.5357  0.0162
  139OSM    H8F15219   2.694   2.750   7.258  0.2432 -0.9750 -1.8581
  139OSM    H8G15220   2.833   2.733   7.358 -0.2526  0.7315  0.3595
  139OSM    C9F15221   2.651   2.648   7.446  0.1852 -0.3290  0.1340
  139OSM    H9F15222   2.542   2.660   7.432  0.1718  1.2516  1.3674
  139OSM   C10F15223   2.686   2.619   7.568 -0.2302  0.4212 -1.2116
  139OSM   H10F15224   2.608   2.604   7.644  1.5600  0.4324  0.7120
  139OSM   C11F15225   2.820   2.593   7.617 -0.1850  0.0770 -0.6982
  139OSM   H11F15226   2.901   2.599   7.541  0.3930  0.1301 -0.0879
  139OSM   H11G15227   2.812   2.490   7.658 -2.6658  0.6856  0.5221
  139OSM   C12F15228   2.861   2.685   7.739 -0.3040 -0.3142  0.0292
  139OSM   H12F15229   2.823   2.788   7.723 -1.2025 -0.6404  0.0014
  139OSM   H12G15230   2.970   2.703   7.752 -0.6644  1.1769  1.3415
  139OSM   C13F15231   2.807   2.634   7.878 -0.0360 -0.8671  0.8304
  139OSM   H13F15232   2.842   2.529   7.890  2.9344 -0.4809 -2.6147
  139OSM   H13G15233   2.698   2.654   7.879  0.2821  1.0548  0.8226
  139OSM   C14F15234   2.872   2.711   7.992  0.4020 -0.9396  0.3157
  139OSM   H14F15235   2.839   2.815   7.976 -0.8419 -1.3964 -0.1950
  139OSM   H14G15236   2.982   2.708   7.976  0.3729 -2.9881  0.2220
  139OSM   C15F15237   2.839   2.677   8.133 -0.0506  0.3667 -0.3828
  139OSM   H15F15238   2.879   2.577   8.161  0.1832  1.4532  4.0074
  139OSM   H15G15239   2.732   2.652   8.143 -0.1262  0.1507 -1.6633
  139OSM   C16F15240   2.884   2.780   8.235 -1.5112  0.1293 -0.1947
  139OSM   H16F15241   2.856   2.742   8.336  0.1948 -1.7936 -0.3711
  139OSM   H16G15242   2.842   2.882   8.234 -2.3195 -0.1525  1.4742
  139OSM   C17F15243   3.036   2.782   8.258 -0.4692 -0.1585 -0.3754
  139OSM   H17F15244   3.090   2.785   8.161 -1.5975 -1.5535 -1.0729
  139OSM   H17G15245   3.075   2.695   8.315  2.5394 -0.4706 -2.6876
  139OSM   C18F15246   3.087   2.900   8.350  0.9593  0.0161  0.3713
  139OSM   H18F15247   3.056   3.003   8.322 -2.3453 -0.6393  1.1843
  139OSM   H18G15248   3.197   2.915   8.346  0.5803  3.8752  0.4994
  139OSM   H18H15249   3.061   2.881   8.456 -0.4057  1.6829  0.3908
  140OSM      N15250   3.001   5.038   6.120 -0.3961 -0.2180  0.3712
  140OSM    C1515251   2.934   5.161   6.167  0.1704 -0.1956 -0.2918
  140OSM   H15A15252   2.965   5.191   6.265  4.1405 -0.1271 -1.4166
  140OSM   H15B15253   2.827   5.143   6.172 -0.0709  1.3274  0.5116
  140OSM   H15C15254   2.953   5.248   6.105  2.0514  0.2682  0.8514
  140OSM    C1415255   2.997   5.033   5.970 -0.2634 -0.1329 -0.2462
  140OSM   H14A15256   3.064   4.956   5.935 -0.8144 -0.1841 -1.2040
  140OSM   H14B15257   3.041   5.122   5.927 -0.8090  0.3321  0.1316
  140OSM   H14C15258   2.900   5.002   5.935 -1.3312 -2.3548  3.9541
  140OSM    C1315259   3.142   5.068   6.159  0.2431  0.3238 -0.9013
  140OSM   H13A15260   3.179   5.140   6.087 -1.1653  1.2095 -0.7720
  140OSM   H13B15261   3.197   4.975   6.151  1.6611  1.1135 -0.8313
  140OSM   H13C15262   3.154   5.122   6.252  1.0760 -1.4271  0.0784
  140OSM    C1215263   2.942   4.916   6.180  0.3617 -0.2756  0.2700
  140OSM   H12A15264   2.837   4.913   6.154  0.2240 -1.3475  0.9016
  140OSM   H12B15265   2.933   4.913   6.287 -1.1980 -4.2138  0.1797
  140OSM    C1115266   3.002   4.777   6.139 -0.8019 -0.0782  0.6621
  140OSM   H11A15267   2.991   4.761   6.030  0.4855  0.9411  0.3622
  140OSM   H11B15268   2.957   4.691   6.194 -1.5209 -1.2613 -1.6252
  140OSM      P15269   3.206   4.707   6.292  0.2073  0.1520  0.0951
  140OSM    O1315270   3.235   4.567   6.268  0.1747 -0.2628  0.2121
  140OSM    O1415271   3.322   4.781   6.344  0.9277 -0.2381 -0.1823
  140OSM    O1115272   3.089   4.717   6.399  0.6013 -0.6750 -0.1872
  140OSM    O1215273   3.140   4.770   6.168 -0.1749 -0.2355  0.4345
  140OSM    C1S15274   3.107   4.653   6.526  0.8471 -0.3407  0.7959
  140OSM    H1S15275   3.200   4.680   6.580  1.1425 -1.2820  0.7690
  140OSM    H1T15276   3.106   4.543   6.513 -1.2357 -0.4774  1.7499
  140OSM     NF15277   3.004   4.640   6.749  0.1784  0.0145 -0.2886
  140OSM    HNF15278   2.944   4.564   6.772  3.1054 -2.7134 -0.9189
  140OSM    C2S15279   2.992   4.696   6.617 -0.5438  0.9920 -0.1481
  140OSM    H2S15280   2.988   4.806   6.628  0.9341  1.0527  0.0664
  140OSM    C3S15281   2.854   4.650   6.556 -1.2879 -0.6249 -0.0158
  140OSM    H3S15282   2.863   4.539   6.553  2.8568 -0.4155 -2.0523
  140OSM     O315283   2.831   4.707   6.430  0.8477 -0.7590 -0.0272
  140OSM    HO315284   2.916   4.744   6.407 -1.3078  3.5052 -2.3378
  140OSM    C4S15285   2.743   4.699   6.655 -0.2784 -0.5467  0.0647
  140OSM    H4S15286   2.721   4.807   6.651  3.6003  0.3989  0.4994
  140OSM    C5S15287   2.661   4.610   6.716 -0.4541 -0.4596 -0.0109
  140OSM    H5S15288   2.687   4.504   6.702  0.3147 -0.4900  1.4073
  140OSM    C6S15289   2.544   4.655   6.802 -0.1124 -0.0731 -0.7068
  140OSM    H6S15290   2.443   4.646   6.755 -0.1681 -1.2115 -0.3815
  140OSM    H6T15291   2.552   4.763   6.830 -0.4165  0.5194 -2.6861
  140OSM    C7S15292   2.535   4.556   6.924 -0.3307  0.0591  0.4202
  140OSM    H7S15293   2.511   4.455   6.885 -1.5878 -0.4895  2.4665
  140OSM    H7T15294   2.448   4.589   6.985 -1.4626 -1.4516 -0.3227
  140OSM    C8S15295   2.659   4.542   7.008 -0.4795 -0.2390  0.1290
  140OSM    H8S15296   2.702   4.639   7.042 -0.2254 -0.0138 -0.7861
  140OSM    H8T15297   2.736   4.480   6.956  0.3100 -0.6981  1.7725
  140OSM    C9S15298   2.648   4.455   7.140  0.0631 -0.4952  0.1271
  140OSM    H9S15299   2.629   4.349   7.115 -0.0692 -0.5591  0.4965
  140OSM    H9T15300   2.562   4.498   7.196 -0.0299 -2.0462  1.2139
  140OSM   C10S15301   2.782   4.444   7.221  0.1634  0.7213  0.4677
  140OSM   H10S15302   2.824   4.544   7.247  0.9655  0.1093  1.5885
  140OSM   H10T15303   2.855   4.410   7.144 -0.5897 -0.5449  0.2951
  140OSM   C11S15304   2.770   4.360   7.342 -0.8555 -0.7800  0.6020
  140OSM   H11S15305   2.704   4.275   7.314 -1.8415  0.0277  0.4215
  140OSM   H11T15306   2.717   4.429   7.411 -0.1268  1.0627 -0.6021
  140OSM   C12S15307   2.905   4.313   7.392 -0.0153  0.3004 -0.0609
  140OSM   H12S15308   2.958   4.326   7.295  1.2354 -2.7953  0.1158
  140OSM   H12T15309   2.886   4.211   7.431  1.4575  0.0827  0.1425
  140OSM   C13S15310   2.970   4.388   7.505  0.1263  0.1037 -0.1519
  140OSM   H13S15311   2.972   4.496   7.479 -1.4794 -0.4073 -2.8398
  140OSM   H13T15312   3.076   4.361   7.524 -0.3919 -2.0894 -0.1944
  140OSM   C14S15313   2.898   4.378   7.639  0.4672 -0.4479  0.8417
  140OSM   H14S15314   2.904   4.275   7.679 -0.1718 -0.6156  0.5176
  140OSM   H14T15315   2.792   4.389   7.607  0.2230  1.1088  2.0964
  140OSM   C15S15316   2.956   4.495   7.730 -0.2193  0.4608  0.3020
  140OSM   H15S15317   2.946   4.594   7.681 -0.2798  1.4126  2.1575
  140OSM   H15T15318   3.064   4.474   7.744  0.3720  1.0137 -2.6496
  140OSM   C16S15319   2.888   4.511   7.867 -0.0119 -0.1125 -0.0937
  140OSM   H16S15320   2.925   4.424   7.927 -0.4969 -0.3754 -0.1762
  140OSM   H16T15321   2.778   4.503   7.865  0.0565 -1.4285 -1.7292
  140OSM   C17S15322   2.928   4.643   7.935  0.5716 -0.7806 -0.0106
  140OSM   H17S15323   2.875   4.731   7.893  1.5677  0.6011  1.4749
  140OSM   H17T15324   3.036   4.653   7.911  0.3250 -0.3180 -0.9868
  140OSM   C18S15325   2.906   4.660   8.091 -0.0014 -0.7701 -0.0284
  140OSM   H18S15326   2.951   4.572   8.142 -1.7203 -1.1015  0.9964
  140OSM   H18T15327   2.799   4.662   8.118 -0.0253  1.5964 -0.0958
  140OSM   H18U15328   2.947   4.751   8.140 -3.7528  0.2924  1.4636
  140OSM    C1F15329   3.103   4.678   6.833 -0.1366  0.2726 -0.1614
  140OSM     OF15330   3.190   4.753   6.795  0.3253 -0.8205  0.1383
  140OSM    C2F15331   3.103   4.637   6.974  0.3064  0.0616  0.1685
  140OSM    H2F15332   3.169   4.549   6.994  1.4052  1.3075  2.4744
  140OSM    H2G15333   2.998   4.609   6.996  0.9825 -1.5677  1.6397
  140OSM    C3F15334   3.147   4.743   7.072  0.0128 -0.6891 -0.5504
  140OSM    H3F15335   3.089   4.834   7.048  1.5722  0.5336  0.1298
  140OSM    H3G15336   3.257   4.752   7.058  0.0900 -0.9856 -0.1620
  140OSM    C4F15337   3.105   4.709   7.221  0.2807 -0.5131  0.5004
  140OSM    H4F15338   3.165   4.617   7.241  2.0983  0.6640  0.7051
  140OSM    H4G15339   2.996   4.689   7.218 -0.5262  3.2819 -1.4876
  140OSM    C5F15340   3.142   4.813   7.326  0.1108  0.6389  0.8485
  140OSM    H5F15341   3.103   4.908   7.283  1.8397  2.1641  2.4796
  140OSM    H5G15342   3.252   4.813   7.343  0.1598 -1.0765  0.7168
  140OSM    C6F15343   3.078   4.793   7.460  0.5415  0.4767 -0.0745
  140OSM    H6F15344   3.132   4.710   7.510 -2.2273 -0.9279  0.8244
  140OSM    H6G15345   2.970   4.767   7.455  0.5831 -0.1872  1.6739
  140OSM    C7F15346   3.081   4.919   7.555 -0.1777 -0.2645  0.9576
  140OSM    H7F15347   3.031   5.001   7.499  1.3810  1.4723  1.9877
  140OSM    H7G15348   3.184   4.949   7.585  0.3456 -0.8905 -0.1650
  140OSM    C8F15349   2.985   4.897   7.679 -0.1918 -0.0466 -0.3123
  140OSM    H8F15350   3.035   4.826   7.749  0.2584  0.3571 -0.2173
  140OSM    H8G15351   2.891   4.847   7.649 -0.3288 -0.8941  1.4004
  140OSM    C9F15352   2.949   5.030   7.740  0.0297 -0.0527 -0.4429
  140OSM    H9F15353   2.875   5.091   7.687 -1.3510 -1.8131 -0.6434
  140OSM   C10F15354   3.003   5.082   7.849 -0.3772 -0.0272  0.1551
  140OSM   H10F15355   2.978   5.182   7.888  1.4412  1.3005 -1.8909
  140OSM   C11F15356   3.107   5.013   7.928 -0.1479 -0.0333  0.2264
  140OSM   H11F15357   3.205   5.059   7.903 -0.3566  0.6415  0.6154
  140OSM   H11G15358   3.108   4.902   7.924 -0.1695 -0.0470  0.5173
  140OSM   C12F15359   3.088   5.040   8.074  0.6096 -0.2141 -0.2690
  140OSM   H12F15360   2.997   4.983   8.102 -0.3394  1.9164  1.1700
  140OSM   H12G15361   3.089   5.146   8.106  0.3861 -0.8943  2.1993
  140OSM   C13F15362   3.207   4.990   8.155 -0.8831 -0.5183  0.2067
  140OSM   H13F15363   3.305   5.029   8.121 -0.0761 -3.3185 -0.9902
  140OSM   H13G15364   3.231   4.883   8.138  0.4687 -0.6919  2.6250
  140OSM   C14F15365   3.204   5.002   8.306 -0.5538  0.2577  0.2324
  140OSM   H14F15366   3.303   4.996   8.355 -0.3552 -1.5171 -0.3204
  140OSM   H14G15367   3.155   4.908   8.339 -1.3045  0.1567 -1.0677
  140OSM   C15F15368   3.118   5.108   8.373  0.0199 -0.2684  0.6525
  140OSM   H15F15369   3.012   5.088   8.347  0.6224  0.7117 -3.4036
  140OSM   H15G15370   3.139   5.208   8.328 -0.4794 -1.5031 -2.5923
  140OSM   C16F15371   3.138   5.117   8.525  0.0865  0.0981  0.7477
  140OSM   H16F15372   3.243   5.149   8.539  0.5487  0.1682 -2.2631
  140OSM   H16G15373   3.109   5.023   8.578 -2.7587  0.1646 -0.5132
  140OSM   C17F15374   3.038   5.218   8.581 -0.1393  0.2597 -0.5986
  140OSM   H17F15375   2.937   5.186   8.549 -0.4148 -0.6384  1.0718
  140OSM   H17G15376   3.067   5.319   8.543  2.3111  0.2349  0.9397
  140OSM   C18F15377   3.040   5.227   8.734 -0.1725  0.4135 -0.2033
  140OSM   H18F15378   3.142   5.237   8.776  0.3066 -0.5374 -1.1071
  140OSM   H18G15379   3.003   5.129   8.770  1.1150 -0.4883 -1.2298
  140OSM   H18H15380   2.973   5.308   8.770 -0.6276 -0.6349  1.3867
  141OSM      N15381   1.045   0.534   6.204 -0.2091 -0.2255 -0.8514
  141OSM    C1515382   1.099   0.661   6.165 -0.5926 -0.2441  0.3575
  141OSM   H15A15383   1.188   0.679   6.223 -1.6324  1.7099  1.4392
  141OSM   H15B15384   1.033   0.746   6.175  0.3648  0.4154  1.1644
  141OSM   H15C15385   1.133   0.663   6.062 -2.6309  0.6723 -0.3540
  141OSM    C1415386   1.008   0.531   6.347 -0.3595  0.5973 -0.3193
  141OSM   H14A15387   0.927   0.599   6.368 -1.2883  0.0145 -1.8271
  141OSM   H14B15388   1.089   0.556   6.414 -0.8400  1.9811 -0.2242
  141OSM   H14C15389   0.968   0.433   6.369 -0.8915  0.6930 -0.8408
  141OSM    C1315390   0.927   0.508   6.115 -0.9472 -0.0981  0.0774
  141OSM   H13A15391   0.884   0.410   6.131 -1.8328  0.1767 -0.5630
  141OSM   H13B15392   0.947   0.522   6.010  0.5359 -1.2276  0.1771
  141OSM   H13C15393   0.845   0.577   6.128 -2.1102 -1.6101  1.1538
  141OSM    C1215394   1.154   0.430   6.179  0.1866 -0.2257  0.4858
  141OSM   H12A15395   1.229   0.452   6.254  0.1626 -0.1745  0.4950
  141OSM   H12B15396   1.190   0.461   6.082 -2.1716 -0.1064 -0.4012
  141OSM    C1115397   1.119   0.279   6.160 -0.1387 -1.0767  0.4569
  141OSM   H11A15398   1.214   0.230   6.127 -1.3497 -1.8709 -2.1832
  141OSM   H11B15399   1.051   0.272   6.072  0.2929 -0.4613  0.0619
  141OSM      P15400   0.944   0.154   6.285  0.1587  0.0672 -0.1111
  141OSM    O1315401   0.844   0.213   6.197 -0.2103  0.0539 -0.1545
  141OSM    O1415402   0.981   0.014   6.246 -0.4930 -0.6317  0.1372
  141OSM    O1115403   0.898   0.154   6.435 -0.2045 -0.0718  0.1271
  141OSM    O1215404   1.081   0.234   6.278  0.0141 -0.2583 -0.4607
  141OSM    C1S15405   0.984   0.196   6.546  0.3869 -0.6565  0.0360
  141OSM    H1S15406   1.063   0.269   6.520 -0.1904  0.0331  0.1586
  141OSM    H1T15407   1.030   0.101   6.579 -2.2114 -1.3948  1.9558
  141OSM     NF15408   1.024   0.261   6.772  0.2621 -0.7676 -0.5928
  141OSM    HNF15409   1.030   0.199   6.850  1.7140 -0.4171 -0.4111
  141OSM    C2S15410   0.917   0.254   6.676 -0.0142 -0.2363  0.0139
  141OSM    H2S15411   0.880   0.356   6.652  0.1781  0.1398  1.2705
  141OSM    C3S15412   0.798   0.174   6.724 -0.5318 -0.1201 -0.9252
  141OSM    H3S15413   0.827   0.069   6.742 -0.3128  0.2716  1.3056
  141OSM     O315414   0.689   0.159   6.636 -0.0864  0.0940  0.0808
  141OSM    HO315415   0.727   0.198   6.557  1.0549  2.1254  1.5621
  141OSM    C4S15416   0.766   0.220   6.863 -0.4679  0.2633  0.0672
  141OSM    H4S15417   0.807   0.155   6.942  0.2492  2.1318  1.3051
  141OSM    C5S15418   0.691   0.327   6.900 -0.5471 -0.2503 -0.0292
  141OSM    H5S15419   0.630   0.373   6.821 -0.2362 -1.2599 -0.8886
  141OSM    C6S15420   0.646   0.361   7.038  0.0056 -0.8103 -0.8049
  141OSM    H6S15421   0.541   0.332   7.059 -0.2979  1.6573  1.5232
  141OSM    H6T15422   0.650   0.471   7.054  0.2740 -0.9651  0.2203
  141OSM    C7S15423   0.727   0.302   7.153  0.1849  0.1518  0.2181
  141OSM    H7S15424   0.833   0.304   7.119 -0.4884 -0.0672 -2.0194
  141OSM    H7T15425   0.712   0.192   7.157  1.4426 -0.2356 -2.9643
  141OSM    C8S15426   0.705   0.370   7.293 -0.4942  0.6179  0.0481
  141OSM    H8S15427   0.596   0.372   7.311 -0.2660  0.0728  1.5517
  141OSM    H8T15428   0.745   0.473   7.283  0.6954  0.5310  2.9599
  141OSM    C9S15429   0.772   0.298   7.409  0.4180  0.0016 -0.9834
  141OSM    H9S15430   0.878   0.283   7.379  1.5689  1.7077  1.8547
  141OSM    H9T15431   0.718   0.206   7.441  3.4879 -1.2796  0.9696
  141OSM   C10S15432   0.765   0.380   7.540  0.6262 -0.5842  0.4129
  141OSM   H10S15433   0.668   0.433   7.545  1.2366  0.4846  1.4690
  141OSM   H10T15434   0.842   0.460   7.543  1.4439 -0.9868 -3.7351
  141OSM   C11S15435   0.779   0.293   7.671 -0.3945  0.2378  0.4847
  141OSM   H11S15436   0.874   0.235   7.666 -0.7359 -0.2685 -0.7722
  141OSM   H11T15437   0.695   0.222   7.660 -0.7059  0.7694 -0.7966
  141OSM   C12S15438   0.773   0.373   7.798 -0.0165 -0.1804 -0.2000
  141OSM   H12S15439   0.671   0.417   7.810 -0.5804 -1.0027 -1.7684
  141OSM   H12T15440   0.849   0.453   7.802 -1.2949  1.0676  0.0981
  141OSM   C13S15441   0.790   0.291   7.931 -0.2066 -0.2008 -0.5873
  141OSM   H13S15442   0.894   0.253   7.944 -0.1097  0.3462  0.2796
  141OSM   H13T15443   0.732   0.197   7.935  1.1629 -1.2291 -2.6775
  141OSM   C14S15444   0.742   0.360   8.065 -0.3952  0.2799 -0.1932
  141OSM   H14S15445   0.631   0.355   8.071 -0.4722 -0.1130 -1.6378
  141OSM   H14T15446   0.776   0.465   8.055 -0.0334  0.2057  0.1940
  141OSM   C15S15447   0.792   0.292   8.195  0.2395 -0.2255  0.2918
  141OSM   H15S15448   0.897   0.270   8.167  0.7994  2.6536 -0.2235
  141OSM   H15T15449   0.735   0.197   8.203 -1.8308  0.7872 -1.2392
  141OSM   C16S15450   0.768   0.383   8.311  0.5752  0.1393  0.2475
  141OSM   H16S15451   0.669   0.357   8.354  0.5826 -1.7849 -0.8037
  141OSM   H16T15452   0.752   0.492   8.296 -1.0044 -0.0559  0.3388
  141OSM   C17S15453   0.870   0.354   8.418 -0.0165 -0.3275 -0.3332
  141OSM   H17S15454   0.963   0.407   8.389  0.9635 -0.2446  2.6133
  141OSM   H17T15455   0.899   0.246   8.418 -2.1035 -0.9255 -0.6652
  141OSM   C18S15456   0.819   0.363   8.561 -0.4186 -0.2883 -0.4942
  141OSM   H18S15457   0.914   0.358   8.619  0.9307 -0.6807 -2.6321
  141OSM   H18T15458   0.746   0.288   8.596 -2.4160  1.7466 -0.0723
  141OSM   H18U15459   0.764   0.459   8.565 -2.2137 -1.2289 -1.6404
  141OSM    C1F15460   1.134   0.335   6.770 -0.3450 -0.6757 -0.0907
  141OSM     OF15461   1.152   0.417   6.682 -0.3943 -0.8060 -0.5873
  141OSM    C2F15462   1.238   0.313   6.879  0.2477  0.4033  0.1507
  141OSM    H2F15463   1.282   0.212   6.866 -1.5992 -0.3853 -0.1614
  141OSM    H2G15464   1.182   0.314   6.975 -0.6528  0.6201 -0.3679
  141OSM    C3F15465   1.354   0.417   6.894  0.1576  0.4189 -1.1375
  141OSM    H3F15466   1.314   0.521   6.884 -0.0495  0.5524  0.7900
  141OSM    H3G15467   1.435   0.399   6.820  2.4968 -0.5503  1.4966
  141OSM    C4F15468   1.432   0.413   7.027  0.5425  0.3146  0.8322
  141OSM    H4F15469   1.367   0.415   7.117  0.6939 -1.3075  1.0181
  141OSM    H4G15470   1.503   0.498   7.025  1.7313 -0.6498  0.5035
  141OSM    C5F15471   1.516   0.284   7.035 -1.3503 -0.6697 -0.4299
  141OSM    H5F15472   1.578   0.275   6.943 -0.1998  0.2878  0.2175
  141OSM    H5G15473   1.453   0.193   7.032 -0.1048 -1.5614 -2.6422
  141OSM    C6F15474   1.614   0.275   7.154  0.0981 -0.7602  0.2496
  141OSM    H6F15475   1.650   0.376   7.185 -1.4662  0.2948 -1.1867
  141OSM    H6G15476   1.701   0.216   7.122  0.8391  0.5910 -0.3077
  141OSM    C7F15477   1.544   0.210   7.281  0.3905 -0.1007 -0.0356
  141OSM    H7F15478   1.528   0.101   7.263  0.0861 -0.0210 -0.2714
  141OSM    H7G15479   1.450   0.261   7.312  0.6825 -0.3590  1.3405
  141OSM    C8F15480   1.627   0.213   7.414  0.4829  0.4708 -0.5095
  141OSM    H8F15481   1.717   0.148   7.404 -0.3587 -0.4484 -2.8451
  141OSM    H8G15482   1.569   0.160   7.492  0.6423  2.1347  0.7647
  141OSM    C9F15483   1.672   0.351   7.448 -0.4854  0.1893  0.0668
  141OSM    H9F15484   1.733   0.390   7.365 -1.2658  0.7751 -0.2409
  141OSM   C10F15485   1.642   0.428   7.560  0.5357  0.1149  0.5943
  141OSM   H10F15486   1.672   0.534   7.564 -0.6711  0.5658 -1.0401
  141OSM   C11F15487   1.556   0.382   7.676 -0.0707  0.1647 -0.1167
  141OSM   H11F15488   1.500   0.290   7.648 -2.6039  1.1694  1.3264
  141OSM   H11G15489   1.481   0.458   7.706  0.6385  0.6097  0.5456
  141OSM   C12F15490   1.651   0.334   7.791 -0.2266  0.5030 -0.2372
  141OSM   H12F15491   1.706   0.408   7.854 -1.8675  0.4759  1.3333
  141OSM   H12G15492   1.723   0.259   7.752 -1.1712  0.5548 -2.1788
  141OSM   C13F15493   1.559   0.266   7.894  0.0815  0.6622 -0.2843
  141OSM   H13F15494   1.509   0.177   7.851 -0.0158 -0.3678  1.8414
  141OSM   H13G15495   1.476   0.340   7.899 -1.1755 -0.4039 -3.0920
  141OSM   C14F15496   1.610   0.232   8.038 -0.3579 -0.5231  0.2632
  141OSM   H14F15497   1.667   0.321   8.071  1.3118 -1.4530  0.0157
  141OSM   H14G15498   1.679   0.144   8.039 -2.2971 -2.1362 -0.8032
  141OSM   C15F15499   1.489   0.198   8.124  0.2245  0.5136  0.1667
  141OSM   H15F15500   1.428   0.123   8.069 -2.1973  2.0616  0.5637
  141OSM   H15G15501   1.427   0.290   8.136  0.0075  0.1951  1.6167
  141OSM   C16F15502   1.523   0.148   8.260  0.6526 -0.1423 -0.4873
  141OSM   H16F15503   1.564   0.234   8.319 -0.8058 -1.5236  2.7806
  141OSM   H16G15504   1.603   0.071   8.258  0.8022 -0.0990  1.4457
  141OSM   C17F15505   1.406   0.097   8.349  0.3262  0.1372 -0.1312
  141OSM   H17F15506   1.364   0.012   8.291  1.9902 -0.2196 -0.8838
  141OSM   H17G15507   1.340   0.185   8.364  0.3211  0.2337 -0.7038
  141OSM   C18F15508   1.466   0.043   8.487  0.1319 -0.2516 -0.0356
  141OSM   H18F15509   1.526   0.120   8.541  0.2344  0.5686 -1.2755
  141OSM   H18G15510   1.528  -0.044   8.459 -1.7041 -0.9377 -2.3507
  141OSM   H18H15511   1.374   0.003   8.535 -0.5783 -0.5643 -1.5723
  142OSM      N15512   2.691   1.224   6.126 -0.4277  0.1645  0.1508
  142OSM    C1515513   2.797   1.278   6.215  0.1231 -0.4604 -0.0994
  142OSM   H15A15514   2.853   1.353   6.161 -1.3725  0.9483  0.2127
  142OSM   H15B15515   2.858   1.196   6.250 -0.0206 -0.1006  1.0435
  142OSM   H15C15516   2.748   1.322   6.301 -1.7207 -1.6360 -0.4919
  142OSM    C1415517   2.588   1.319   6.097 -0.5247 -0.1976  0.0785
  142OSM   H14A15518   2.545   1.349   6.191  1.4858 -4.5201  2.6598
  142OSM   H14B15519   2.505   1.284   6.037  0.0331 -0.1572 -0.7335
  142OSM   H14C15520   2.620   1.410   6.047 -1.1234  0.2565  0.4989
  142OSM    C1315521   2.747   1.179   5.999  0.7782 -0.4223  0.3251
  142OSM   H13A15522   2.670   1.138   5.936 -0.3148 -0.1543  1.4459
  142OSM   H13B15523   2.820   1.099   6.004  0.5225 -0.6518  0.4044
  142OSM   H13C15524   2.790   1.266   5.953 -1.9672  1.1173  0.5194
  142OSM    C1215525   2.623   1.108   6.197 -0.1241  0.2021 -0.4710
  142OSM   H12A15526   2.685   1.021   6.180 -1.7490 -0.6413 -2.4349
  142OSM   H12B15527   2.526   1.094   6.152 -0.2978  1.7151 -0.5885
  142OSM    C1115528   2.599   1.129   6.344 -0.0447  0.1054 -0.3896
  142OSM   H11A15529   2.693   1.137   6.403 -0.2726  1.4438 -0.1864
  142OSM   H11B15530   2.560   1.035   6.389  3.3420 -1.6832 -0.7771
  142OSM      P15531   2.351   1.208   6.345  0.1427  0.1762 -0.2475
  142OSM    O1315532   2.279   1.328   6.299  0.3060 -0.8399 -0.3746
  142OSM    O1415533   2.328   1.090   6.262  0.0062  0.3236 -0.7006
  142OSM    O1115534   2.304   1.176   6.491 -0.3811  0.0421  0.0058
  142OSM    O1215535   2.506   1.238   6.363 -0.4721  0.4772 -0.1682
  142OSM    C1S15536   2.347   1.243   6.608 -0.1550 -0.5040 -0.0842
  142OSM    H1S15537   2.331   1.353   6.607  0.8238 -0.3606 -0.5675
  142OSM    H1T15538   2.457   1.232   6.622 -0.2312 -1.4244 -0.1112
  142OSM     NF15539   2.328   1.273   6.850 -0.5762  0.4266 -0.3723
  142OSM    HNF15540   2.374   1.234   6.929 -2.6872  1.6320  1.5542
  142OSM    C2S15541   2.284   1.197   6.736 -0.0042  0.4745 -0.2340
  142OSM    H2S15542   2.174   1.216   6.729  0.3070  1.8543 -1.8611
  142OSM    C3S15543   2.300   1.048   6.754 -0.3058 -0.0807  0.0223
  142OSM    H3S15544   2.408   1.026   6.772 -0.5899 -0.0927  1.9530
  142OSM     O315545   2.279   0.973   6.639 -0.2499 -0.2078  0.6404
  142OSM    HO315546   2.269   1.039   6.569 -1.0027  1.0393  1.8761
  142OSM    C4S15547   2.221   1.006   6.872  0.2652  0.8624 -0.3950
  142OSM    H4S15548   2.114   1.021   6.856  0.0657 -1.5014 -1.8560
  142OSM    C5S15549   2.276   0.953   6.982  0.0475  0.5319 -1.1751
  142OSM    H5S15550   2.385   0.940   6.987 -0.1451 -0.5902  1.6604
  142OSM    C6S15551   2.195   0.908   7.099  0.3999  0.4315  0.2040
  142OSM    H6S15552   2.214   0.799   7.105 -1.6405  0.0676  1.2938
  142OSM    H6T15553   2.087   0.903   7.073  0.3434 -2.8888  0.6481
  142OSM    C7S15554   2.228   0.971   7.232  0.3485 -0.0491  0.1854
  142OSM    H7S15555   2.130   0.969   7.286  0.0929  2.4334 -0.0512
  142OSM    H7T15556   2.252   1.079   7.222 -2.8599  0.6914 -0.5461
  142OSM    C8S15557   2.332   0.896   7.303 -0.2731 -0.0867  0.5391
  142OSM    H8S15558   2.427   0.920   7.251 -0.1169  1.0515  1.3141
  142OSM    H8T15559   2.320   0.786   7.308  1.4129 -0.2767  1.2140
  142OSM    C9S15560   2.359   0.949   7.443  0.0278 -0.4283  0.2257
  142OSM    H9S15561   2.262   0.933   7.496 -0.3454 -1.2952 -0.6860
  142OSM    H9T15562   2.384   1.057   7.434 -0.7185 -0.2053  0.7057
  142OSM   C10S15563   2.475   0.895   7.520 -0.5097 -0.2662 -0.0727
  142OSM   H10S15564   2.555   0.883   7.443 -0.8746  2.5391 -0.9993
  142OSM   H10T15565   2.446   0.796   7.561 -2.1579 -0.7077 -2.1257
  142OSM   C11S15566   2.537   0.981   7.630  0.2034  0.1784 -0.8294
  142OSM   H11S15567   2.531   1.087   7.597 -0.7946 -0.8620 -4.2978
  142OSM   H11T15568   2.641   0.947   7.648  0.2365  1.2580  1.4192
  142OSM   C12S15569   2.458   0.975   7.763  0.5695  0.0640  0.0809
  142OSM   H12S15570   2.477   0.871   7.795 -0.2176 -0.3844 -0.8663
  142OSM   H12T15571   2.351   0.998   7.741  0.6370  1.1741  0.8396
  142OSM   C13S15572   2.520   1.065   7.863 -0.3425  0.1609 -0.3957
  142OSM   H13S15573   2.452   1.056   7.950 -1.5948 -0.7906 -1.4152
  142OSM   H13T15574   2.509   1.173   7.841  0.0853 -0.0510 -1.7758
  142OSM   C14S15575   2.665   1.044   7.910 -0.1246  0.5830  0.9586
  142OSM   H14S15576   2.737   1.072   7.830  0.5794 -0.8757  1.0470
  142OSM   H14T15577   2.700   0.940   7.929 -0.5376  0.2463 -0.1055
  142OSM   C15S15578   2.699   1.122   8.050  0.3862  0.3699  0.5197
  142OSM   H15S15579   2.798   1.075   8.066  0.3888  0.0579 -0.3464
  142OSM   H15T15580   2.621   1.101   8.126  1.1466  1.1208  1.5459
  142OSM   C16S15581   2.706   1.270   8.033  0.1370 -0.3936 -0.1890
  142OSM   H16S15582   2.610   1.310   7.995 -0.5981 -1.1587  0.8180
  142OSM   H16T15583   2.783   1.300   7.959 -0.7818  1.3854 -0.4880
  142OSM   C17S15584   2.741   1.360   8.158  0.0454  0.1148  0.9038
  142OSM   H17S15585   2.647   1.365   8.218 -2.4421 -0.3865 -2.6581
  142OSM   H17T15586   2.757   1.467   8.130 -1.3055 -0.2138 -1.3343
  142OSM   C18S15587   2.856   1.311   8.246 -0.0175 -0.6498 -0.1862
  142OSM   H18S15588   2.866   1.385   8.328  0.2483  2.2902 -2.6929
  142OSM   H18T15589   2.950   1.308   8.186  0.1912 -1.7903  0.1810
  142OSM   H18U15590   2.843   1.210   8.291 -0.4755  0.1325  1.5153
  142OSM    C1F15591   2.307   1.406   6.862 -0.3250 -0.5169 -0.3946
  142OSM     OF15592   2.218   1.460   6.800  0.4741 -0.3932 -0.3306
  142OSM    C2F15593   2.401   1.483   6.956  0.7458 -0.0949 -0.2638
  142OSM    H2F15594   2.434   1.574   6.903 -1.2155  1.1374  0.4989
  142OSM    H2G15595   2.488   1.426   6.995  0.3516 -0.5425 -0.0242
  142OSM    C3F15596   2.317   1.539   7.078  0.2110 -0.4998 -0.6553
  142OSM    H3F15597   2.246   1.473   7.132  0.9273 -1.2947 -0.6565
  142OSM    H3G15598   2.270   1.637   7.057  0.4516 -0.5066 -1.2551
  142OSM    C4F15599   2.408   1.569   7.198  0.1590 -0.2599 -0.5224
  142OSM    H4F15600   2.491   1.627   7.153 -0.6866  1.0518 -0.4552
  142OSM    H4G15601   2.446   1.479   7.251 -1.4713 -1.0213 -0.5728
  142OSM    C5F15602   2.340   1.647   7.309 -0.1724  0.5100 -0.0134
  142OSM    H5F15603   2.258   1.581   7.344 -0.6024  0.0041 -1.8282
  142OSM    H5G15604   2.297   1.742   7.270 -1.7268 -1.4931 -3.7496
  142OSM    C6F15605   2.436   1.673   7.428  0.4466  0.1781  0.6230
  142OSM    H6F15606   2.520   1.741   7.399  0.4521 -0.1398 -0.1403
  142OSM    H6G15607   2.481   1.578   7.462  0.5263  0.3624  1.0319
  142OSM    C7F15608   2.350   1.730   7.545  0.6009 -0.5041  1.1062
  142OSM    H7F15609   2.259   1.667   7.552 -1.0392  1.7546  1.3673
  142OSM    H7G15610   2.307   1.827   7.511 -0.9307 -1.5851 -0.1878
  142OSM    C8F15611   2.414   1.756   7.673  0.4798 -0.1526 -0.0363
  142OSM    H8F15612   2.342   1.824   7.723 -1.1698 -0.7018 -1.5456
  142OSM    H8G15613   2.510   1.799   7.636  1.4868 -0.9123  1.5810
  142OSM    C9F15614   2.435   1.635   7.750 -0.3253  0.0848 -0.1658
  142OSM    H9F15615   2.397   1.546   7.697 -0.4903  0.5462 -0.8418
  142OSM   C10F15616   2.484   1.626   7.871  0.7873 -0.3017 -0.1245
  142OSM   H10F15617   2.501   1.530   7.922 -2.3918  1.0861  4.2055
  142OSM   C11F15618   2.534   1.738   7.955  0.5223  0.0457 -0.3026
  142OSM   H11F15619   2.445   1.791   7.996  0.5137  0.6635 -1.1076
  142OSM   H11G15620   2.590   1.812   7.894  0.9892  1.3810  1.6540
  142OSM   C12F15621   2.614   1.705   8.080  0.2911  0.1389 -0.3717
  142OSM   H12F15622   2.715   1.677   8.045  0.6262  0.6787  0.1450
  142OSM   H12G15623   2.580   1.611   8.130  0.7549  0.1574 -0.0165
  142OSM   C13F15624   2.638   1.826   8.173 -0.4409 -0.3192 -0.0539
  142OSM   H13F15625   2.541   1.862   8.213  0.9772  4.5501 -0.3379
  142OSM   H13G15626   2.665   1.915   8.112  0.8640  1.9380  3.4713
  142OSM   C14F15627   2.745   1.797   8.273  0.0038  1.0437  0.2207
  142OSM   H14F15628   2.781   1.896   8.310 -1.0171  1.1905  0.8688
  142OSM   H14G15629   2.827   1.744   8.219 -0.5282 -0.4550  0.8338
  142OSM   C15F15630   2.709   1.721   8.399 -0.5125  0.7477  0.3516
  142OSM   H15F15631   2.712   1.613   8.373 -1.1323  0.8714 -0.2763
  142OSM   H15G15632   2.605   1.754   8.421 -1.1112 -0.8207 -0.0449
  142OSM   C16F15633   2.798   1.743   8.521 -1.0619  0.4127  0.5664
  142OSM   H16F15634   2.787   1.850   8.549 -0.7681  0.5689  0.0984
  142OSM   H16G15635   2.903   1.723   8.488 -1.0791  2.0159 -0.5780
  142OSM   C17F15636   2.780   1.634   8.628 -0.1317  0.2530 -0.0340
  142OSM   H17F15637   2.864   1.636   8.701 -0.6918  0.1490  0.6203
  142OSM   H17G15638   2.768   1.530   8.590 -0.8843 -0.0042  0.8912
  142OSM   C18F15639   2.650   1.662   8.708  0.1541  0.1381  0.3369
  142OSM   H18F15640   2.649   1.601   8.801  1.2707 -1.8455 -0.8837
  142OSM   H18G15641   2.565   1.634   8.643 -0.8502  1.0237  1.2226
  142OSM   H18H15642   2.650   1.770   8.734  1.2696  0.2701 -0.1297
  143OSM      N15643   2.874   3.598   6.273  0.2625 -0.3691  0.6914
  143OSM    C1515644   2.725   3.565   6.290  0.1596 -0.1889 -0.4069
  143OSM   H15A15645   2.664   3.637   6.238  1.1912  0.0622 -1.3080
  143OSM   H15B15646   2.695   3.573   6.394 -0.6648 -0.2261 -0.6373
  143OSM   H15C15647   2.701   3.470   6.245 -1.7691 -1.2484  2.5812
  143OSM    C1415648   2.956   3.511   6.369 -0.2864 -0.1179 -0.0323
  143OSM   H14A15649   2.965   3.413   6.326  0.2482 -0.0391 -0.1176
  143OSM   H14B15650   2.897   3.511   6.459  2.2222  1.7536  1.7511
  143OSM   H14C15651   3.050   3.551   6.403 -0.9031  1.5292 -0.1655
  143OSM    C1315652   2.917   3.576   6.135  0.2451  0.2717  0.1163
  143OSM   H13A15653   3.016   3.618   6.120 -0.2209  1.6492  0.7383
  143OSM   H13B15654   2.861   3.636   6.065  0.9612 -1.0235 -1.6235
  143OSM   H13C15655   2.917   3.477   6.093 -4.0775  0.7381 -1.4253
  143OSM    C1215656   2.895   3.748   6.318  0.9561  0.2464  0.0302
  143OSM   H12A15657   2.884   3.751   6.425 -0.3499 -2.0672  0.0180
  143OSM   H12B15658   2.815   3.810   6.281 -0.0243 -0.7971  0.3488
  143OSM    C1115659   3.039   3.806   6.293  1.0042 -0.2849  0.0100
  143OSM   H11A15660   3.026   3.914   6.315 -1.4375 -0.4736 -0.2978
  143OSM   H11B15661   3.070   3.800   6.186  1.2155  2.3623 -0.1483
  143OSM      P15662   3.283   3.731   6.340  0.5468  0.3656 -0.1188
  143OSM    O1315663   3.343   3.651   6.447  0.9294  0.1212  0.8574
  143OSM    O1415664   3.277   3.681   6.197 -0.3259  0.8058 -0.1915
  143OSM    O1115665   3.356   3.877   6.340  0.4753 -0.4510  0.1489
  143OSM    O1215666   3.131   3.744   6.385 -0.5721 -0.0349  0.3741
  143OSM    C1S15667   3.354   3.980   6.439 -0.1086  0.3709  0.7790
  143OSM    H1S15668   3.250   4.014   6.458 -0.2377  0.0345  0.6916
  143OSM    H1T15669   3.412   4.068   6.404 -0.0541 -0.0319 -0.1804
  143OSM     NF15670   3.377   4.060   6.671  0.1093  0.3666 -0.0434
  143OSM    HNF15671   3.453   4.112   6.708 -0.0570 -0.1265  1.0545
  143OSM    C2S15672   3.407   3.944   6.581  0.8754  0.1446  0.2095
  143OSM    H2S15673   3.359   3.855   6.626 -0.3247  1.6426  2.0457
  143OSM    C3S15674   3.556   3.920   6.574  0.0722  0.7994 -0.3354
  143OSM    H3S15675   3.627   4.004   6.560  2.5661 -1.5755 -3.7667
  143OSM     O315676   3.584   3.830   6.465 -0.3119  0.2101  0.2198
  143OSM    HO315677   3.503   3.815   6.415  1.1819 -1.8306 -1.8047
  143OSM    C4S15678   3.614   3.857   6.699  0.3658 -0.0081 -0.1691
  143OSM    H4S15679   3.680   3.918   6.762  3.1850  0.2339 -3.0799
  143OSM    C5S15680   3.593   3.728   6.744  0.2506 -0.0166  0.1240
  143OSM    H5S15681   3.527   3.653   6.697  0.8361  0.3259 -1.2993
  143OSM    C6S15682   3.657   3.664   6.863  0.3228 -0.1573 -0.1904
  143OSM    H6S15683   3.766   3.660   6.840  0.7072  0.9396  1.2964
  143OSM    H6T15684   3.622   3.559   6.872  1.1953 -0.3818  0.7865
  143OSM    C7S15685   3.626   3.736   6.990  0.0323 -0.6887 -0.3990
  143OSM    H7S15686   3.516   3.754   6.987  0.2686  1.5824  1.8320
  143OSM    H7T15687   3.669   3.838   6.989 -0.5633 -0.4119  0.6239
  143OSM    C8S15688   3.667   3.657   7.109 -0.7606 -0.5453  0.5671
  143OSM    H8S15689   3.771   3.625   7.090 -0.2899  0.8469  0.6726
  143OSM    H8T15690   3.611   3.561   7.114 -0.3648 -0.8330 -0.4435
  143OSM    C9S15691   3.659   3.745   7.230 -0.1789  0.0170 -0.2697
  143OSM    H9S15692   3.553   3.769   7.253 -0.5352 -2.1743  0.6078
  143OSM    H9T15693   3.711   3.842   7.221  0.1651 -0.2949 -2.1340
  143OSM   C10S15694   3.718   3.666   7.353 -0.8993  0.2680 -0.0474
  143OSM   H10S15695   3.816   3.628   7.318 -1.2501 -2.1676  1.3927
  143OSM   H10T15696   3.642   3.587   7.371  0.4885 -1.3516 -1.0565
  143OSM   C11S15697   3.727   3.752   7.481  0.1421  0.1377  0.3162
  143OSM   H11S15698   3.642   3.822   7.492 -1.3743 -1.7110  0.9830
  143OSM   H11T15699   3.816   3.820   7.480  1.1741 -1.0180  2.8419
  143OSM   C12S15700   3.727   3.667   7.606  0.7607 -0.8900 -0.3863
  143OSM   H12S15701   3.800   3.586   7.585  2.3257  0.2894  0.3294
  143OSM   H12T15702   3.628   3.621   7.628 -1.2907  2.8507 -0.9082
  143OSM   C13S15703   3.773   3.749   7.733  0.2490 -0.1359 -0.0237
  143OSM   H13S15704   3.854   3.817   7.699  0.1741  0.5410  1.1245
  143OSM   H13T15705   3.822   3.676   7.801  0.3274 -0.6179 -0.5802
  143OSM   C14S15706   3.667   3.838   7.805 -0.7348 -0.1751  0.4749
  143OSM   H14S15707   3.574   3.782   7.826 -0.4613 -0.4322  1.0244
  143OSM   H14T15708   3.622   3.905   7.728 -0.7748 -0.9863 -0.2250
  143OSM   C15S15709   3.712   3.904   7.933 -0.3975  0.0338  0.0570
  143OSM   H15S15710   3.685   4.011   7.932  3.1885  1.1411  2.3762
  143OSM   H15T15711   3.823   3.904   7.922 -0.6311  0.4045 -3.3138
  143OSM   C16S15712   3.668   3.836   8.056 -0.2632  1.1392 -0.0991
  143OSM   H16S15713   3.724   3.741   8.048 -0.8105  0.8785 -1.0400
  143OSM   H16T15714   3.561   3.804   8.053  0.5018 -1.5384 -2.6338
  143OSM   C17S15715   3.683   3.897   8.198  0.5061  0.4165 -0.0914
  143OSM   H17S15716   3.646   4.001   8.198 -3.3679 -0.8242  0.5771
  143OSM   H17T15717   3.789   3.893   8.231  0.6539  0.7228 -0.5270
  143OSM   C18S15718   3.602   3.827   8.305 -0.3365 -0.1506 -0.7587
  143OSM   H18S15719   3.494   3.827   8.282 -0.3996  0.0812 -0.4673
  143OSM   H18T15720   3.613   3.874   8.405 -0.6627  0.9209 -1.2106
  143OSM   H18U15721   3.641   3.725   8.326 -1.4858 -0.3025  0.8351
  143OSM    C1F15722   3.254   4.089   6.709 -0.4709 -1.1751 -0.2997
  143OSM     OF15723   3.148   4.025   6.685  0.2603 -0.2811 -0.0556
  143OSM    C2F15724   3.232   4.215   6.787 -0.3922 -0.5288  0.0424
  143OSM    H2F15725   3.167   4.277   6.722  0.1805  0.1096  0.0800
  143OSM    H2G15726   3.328   4.267   6.803  1.2023 -3.2695  0.0987
  143OSM    C3F15727   3.158   4.195   6.917  0.2794 -0.1520  0.4136
  143OSM    H3F15728   3.062   4.144   6.896  0.3015 -1.0342  2.2329
  143OSM    H3G15729   3.124   4.292   6.960  1.0242  0.4634 -0.3471
  143OSM    C4F15730   3.234   4.106   7.021  0.1482  0.1769  0.5733
  143OSM    H4F15731   3.270   4.009   6.981  0.7614  1.6568 -2.8445
  143OSM    H4G15732   3.161   4.075   7.098  1.3234 -2.2545  0.7834
  143OSM    C5F15733   3.343   4.178   7.102 -0.3270  0.1536 -0.1356
  143OSM    H5F15734   3.304   4.264   7.160 -1.4616 -0.8100  0.5662
  143OSM    H5G15735   3.418   4.212   7.028  0.1840  1.4276  0.9281
  143OSM    C6F15736   3.421   4.088   7.201  0.0345 -0.4619  0.1073
  143OSM    H6F15737   3.500   4.133   7.264  1.2853 -0.3881 -1.4597
  143OSM    H6G15738   3.474   4.012   7.139 -1.8642 -2.5053  0.8481
  143OSM    C7F15739   3.332   4.022   7.298  0.3845  0.2255 -0.2340
  143OSM    H7F15740   3.377   3.953   7.373  0.3928  0.7546  0.2626
  143OSM    H7G15741   3.264   3.961   7.235  0.3366  0.6003 -0.5485
  143OSM    C8F15742   3.257   4.127   7.376  0.4640  0.1413  0.3208
  143OSM    H8F15743   3.203   4.191   7.303  2.5540  1.4947 -0.1440
  143OSM    H8G15744   3.329   4.196   7.426 -0.0366 -0.5924  2.0927
  143OSM    C9F15745   3.157   4.069   7.476 -0.4203 -0.3139 -0.1040
  143OSM    H9F15746   3.068   4.032   7.423 -0.3443 -2.6197  1.2572
  143OSM   C10F15747   3.162   4.066   7.609 -0.5096 -0.7596  0.0653
  143OSM   H10F15748   3.079   4.017   7.662  0.2447 -0.1916  1.8695
  143OSM   C11F15749   3.279   4.114   7.685 -0.1948  1.0232  0.9200
  143OSM   H11F15750   3.331   4.196   7.631  0.8680  0.6771  1.3916
  143OSM   H11G15751   3.357   4.035   7.680 -0.9587  0.2331  1.1426
  143OSM   C12F15752   3.250   4.157   7.828  0.5833  0.0868  1.0794
  143OSM   H12F15753   3.203   4.073   7.882  0.1293  0.2758  0.9831
  143OSM   H12G15754   3.178   4.240   7.807  1.6752  0.7646 -0.1711
  143OSM   C13F15755   3.378   4.203   7.904  0.0904  0.4019 -0.1812
  143OSM   H13F15756   3.417   4.286   7.842 -0.3382 -1.2172 -2.7857
  143OSM   H13G15757   3.459   4.127   7.910 -0.4244 -0.0424  2.5167
  143OSM   C14F15758   3.347   4.267   8.042  0.3172  0.2205 -0.3714
  143OSM   H14F15759   3.257   4.329   8.024 -1.4076 -1.9645  0.2979
  143OSM   H14G15760   3.426   4.338   8.072 -1.8699  1.4548  2.9420
  143OSM   C15F15761   3.297   4.168   8.144 -0.1186 -0.2838 -0.9041
  143OSM   H15F15762   3.328   4.064   8.117 -1.3644 -1.2894  1.3402
  143OSM   H15G15763   3.189   4.146   8.130 -0.1643  0.3709 -1.6260
  143OSM   C16F15764   3.348   4.199   8.280  0.1865  0.3328 -0.6559
  143OSM   H16F15765   3.355   4.310   8.287  1.8858  0.3426 -1.9121
  143OSM   H16G15766   3.452   4.164   8.300 -0.2532 -1.8654 -2.0045
  143OSM   C17F15767   3.249   4.160   8.390  0.2883  0.3247  0.5554
  143OSM   H17F15768   3.145   4.181   8.356  0.1223 -1.0996  0.0983
  143OSM   H17G15769   3.258   4.210   8.488 -1.6521  0.5198  0.6827
  143OSM   C18F15770   3.248   4.003   8.405 -0.2487  0.3643 -0.6405
  143OSM   H18F15771   3.285   3.954   8.312  1.8520  0.0298  0.3255
  143OSM   H18G15772   3.153   3.948   8.426  1.8820 -3.9521 -1.1257
  143OSM   H18H15773   3.324   3.985   8.484 -1.3694  0.3834  0.4718
  144OSM      N15774   2.934   2.275   6.037 -0.5130 -0.5748  0.3666
  144OSM    C1515775   2.882   2.362   5.923 -0.4683  0.1115 -0.0847
  144OSM   H15A15776   2.864   2.303   5.835 -1.5315 -0.9159  0.7938
  144OSM   H15B15777   2.953   2.441   5.901  0.9201 -0.1463  2.9904
  144OSM   H15C15778   2.789   2.409   5.951  0.0956  1.1807  0.0844
  144OSM    C1415779   2.825   2.177   6.080 -0.3040 -0.4311  0.6407
  144OSM   H14A15780   2.772   2.143   5.993  1.1392  0.4378 -0.6230
  144OSM   H14B15781   2.758   2.225   6.151 -2.5993 -0.1089 -1.6095
  144OSM   H14C15782   2.863   2.089   6.129 -0.9203 -0.2127  1.5381
  144OSM    C1315783   3.053   2.186   5.999  0.0170  0.2164  0.7035
  144OSM   H13A15784   3.129   2.253   5.962 -0.2731  1.6733  2.5541
  144OSM   H13B15785   3.035   2.111   5.924  2.9740  1.1109 -1.0496
  144OSM   H13C15786   3.091   2.139   6.089 -2.4519 -2.3651  0.5261
  144OSM    C1215787   2.978   2.372   6.144  0.5161  0.0185 -0.5810
  144OSM   H12A15788   3.058   2.431   6.103 -0.9402  0.3200 -3.2776
  144OSM   H12B15789   3.016   2.306   6.219 -0.7386 -1.6642 -1.3570
  144OSM    C1115790   2.868   2.470   6.198  0.3866  0.2598 -0.8931
  144OSM   H11A15791   2.827   2.542   6.124 -0.9833  2.1404  1.5424
  144OSM   H11B15792   2.923   2.535   6.268  1.5799 -0.5649 -1.0412
  144OSM      P15793   2.607   2.445   6.266 -0.2801  0.4702  0.5058
  144OSM    O1315794   2.551   2.456   6.127 -0.6048  0.7226  0.1466
  144OSM    O1415795   2.531   2.353   6.354  0.7609  0.1881  0.5844
  144OSM    O1115796   2.615   2.591   6.325  0.6111  0.5103  0.4799
  144OSM    O1215797   2.764   2.399   6.270  0.5819  0.0126 -0.0294
  144OSM    C1S15798   2.559   2.621   6.452 -0.5430  0.2897  0.4962
  144OSM    H1S15799   2.464   2.564   6.461  0.5212 -1.3407  2.2523
  144OSM    H1T15800   2.534   2.729   6.456  2.1447  0.9711  4.7346
  144OSM     NF15801   2.585   2.640   6.693 -0.3367 -0.4131  0.0295
  144OSM    HNF15802   2.595   2.725   6.744  1.9088 -1.0116  0.6678
  144OSM    C2S15803   2.662   2.607   6.570  0.1319 -0.4438  0.0995
  144OSM    H2S15804   2.701   2.503   6.568 -1.2501 -1.0124 -2.7888
  144OSM    C3S15805   2.784   2.710   6.552  0.2186 -0.0073 -0.4680
  144OSM    H3S15806   2.741   2.811   6.567 -0.0898 -0.2472  0.2944
  144OSM     O315807   2.850   2.721   6.423  0.7322 -0.1614 -0.1291
  144OSM    HO315808   2.773   2.706   6.368 -0.2724  0.0458  1.1690
  144OSM    C4S15809   2.880   2.682   6.668  0.2733  0.0932 -0.3187
  144OSM    H4S15810   2.846   2.708   6.769  1.7851 -0.0851  0.2616
  144OSM    C5S15811   3.001   2.621   6.651 -0.7291  0.6442  0.6251
  144OSM    H5S15812   3.048   2.613   6.552  0.2417 -2.0875  1.2153
  144OSM    C6S15813   3.110   2.588   6.749  0.3599 -0.0028  0.3997
  144OSM    H6S15814   3.211   2.625   6.721  0.5837  0.5921  1.8556
  144OSM    H6T15815   3.116   2.477   6.754 -2.5928 -0.2083  1.0762
  144OSM    C7S15816   3.084   2.646   6.886 -0.3470  0.2632 -0.4458
  144OSM    H7S15817   2.997   2.596   6.933 -0.5447  1.3864  0.4486
  144OSM    H7T15818   3.057   2.754   6.887 -3.1744 -0.3512  1.4599
  144OSM    C8S15819   3.205   2.620   6.987  0.2026 -0.2920  0.5913
  144OSM    H8S15820   3.305   2.653   6.949 -0.1941 -1.7139 -1.9316
  144OSM    H8T15821   3.210   2.509   6.995  0.0026 -0.3685 -0.2292
  144OSM    C9S15822   3.181   2.674   7.131 -0.6566 -0.0047  0.3542
  144OSM    H9S15823   3.260   2.629   7.194 -1.8854 -0.8068  1.3584
  144OSM    H9T15824   3.087   2.639   7.178  0.4759 -1.4992  1.6098
  144OSM   C10S15825   3.191   2.824   7.143  0.7404 -0.3693  0.6056
  144OSM   H10S15826   3.128   2.881   7.071 -0.8112 -0.8883  1.4984
  144OSM   H10T15827   3.293   2.867   7.131 -0.3095  2.3940  0.7554
  144OSM   C11S15828   3.126   2.868   7.281  0.2912 -0.1672 -0.2546
  144OSM   H11S15829   3.135   2.782   7.350 -2.1140 -0.6531 -0.4596
  144OSM   H11T15830   3.018   2.886   7.266  0.1847 -1.0134 -0.5630
  144OSM   C12S15831   3.167   3.003   7.348 -0.2315 -0.2931 -0.7771
  144OSM   H12S15832   3.099   3.090   7.337  0.6970  0.8864  1.9379
  144OSM   H12T15833   3.262   3.050   7.314 -0.8860  1.0721 -0.7779
  144OSM   C13S15834   3.189   2.989   7.500  0.2272  0.1990 -0.4063
  144OSM   H13S15835   3.284   3.042   7.525  1.6140 -2.4841  0.4561
  144OSM   H13T15836   3.218   2.883   7.518  1.7391  0.6098 -0.2284
  144OSM   C14S15837   3.083   3.037   7.599 -0.3717 -0.0749 -0.5499
  144OSM   H14S15838   2.982   3.001   7.568 -1.5415  3.0462 -0.7467
  144OSM   H14T15839   3.080   3.148   7.607 -1.0856 -0.2381  2.1699
  144OSM   C15S15840   3.107   2.986   7.740 -0.6793 -0.4441  0.0211
  144OSM   H15S15841   3.141   2.881   7.728 -0.1743 -0.3194  0.3085
  144OSM   H15T15842   3.016   2.988   7.803  1.0856 -1.2874  2.8235
  144OSM   C16S15843   3.224   3.060   7.809  0.3415 -0.5258 -1.0008
  144OSM   H16S15844   3.226   3.170   7.796 -1.3202  0.0928  2.7152
  144OSM   H16T15845   3.316   3.018   7.763  0.6592 -0.5922 -0.3077
  144OSM   C17S15846   3.219   3.021   7.960 -0.3700  0.3261  0.5960
  144OSM   H17S15847   3.228   2.911   7.972  0.6345  0.5891  2.7495
  144OSM   H17T15848   3.116   3.041   7.996 -1.5166 -0.7650 -1.8584
  144OSM   C18S15849   3.328   3.088   8.042 -0.2234 -0.4091 -0.0631
  144OSM   H18S15850   3.430   3.058   8.012  0.4780  0.5147  1.3246
  144OSM   H18T15851   3.319   3.072   8.151  2.1330 -0.2502  0.2013
  144OSM   H18U15852   3.322   3.199   8.033 -1.8746 -0.4313  0.4901
  144OSM    C1F15853   2.500   2.560   6.761  0.0678  0.2476  0.0877
  144OSM     OF15854   2.469   2.446   6.727  0.4132 -0.2524 -0.0675
  144OSM    C2F15855   2.458   2.614   6.893 -0.7608 -1.0309  0.2903
  144OSM    H2F15856   2.539   2.683   6.928 -0.9401 -0.9242  0.4986
  144OSM    H2G15857   2.464   2.536   6.971 -1.5744 -1.7913 -0.3900
  144OSM    C3F15858   2.322   2.686   6.875 -0.5104 -0.5489  0.4238
  144OSM    H3F15859   2.252   2.619   6.821 -1.2624 -0.1908  0.9410
  144OSM    H3G15860   2.348   2.772   6.810 -0.3124  0.3152  1.6166
  144OSM    C4F15861   2.271   2.753   7.002 -0.3502  0.3096  0.0352
  144OSM    H4F15862   2.174   2.806   6.989 -0.9364 -0.1287  2.1251
  144OSM    H4G15863   2.357   2.818   7.027 -0.3060  0.1464  0.3237
  144OSM    C5F15864   2.253   2.663   7.124 -0.0080  1.1420 -0.2771
  144OSM    H5F15865   2.338   2.597   7.150 -0.7275  0.8130  1.4475
  144OSM    H5G15866   2.161   2.603   7.111  1.2549 -0.4991 -2.0525
  144OSM    C6F15867   2.233   2.742   7.257 -0.1123 -0.4412  0.5695
  144OSM    H6F15868   2.141   2.802   7.240 -0.3285 -1.1170 -0.7334
  144OSM    H6G15869   2.320   2.809   7.269  0.2819 -1.2314  2.7148
  144OSM    C7F15870   2.219   2.649   7.376  0.5888 -0.4425  0.3805
  144OSM    H7F15871   2.304   2.578   7.380  0.8163 -0.2185 -0.4316
  144OSM    H7G15872   2.133   2.582   7.351  0.8743 -1.0013  0.8649
  144OSM    C8F15873   2.199   2.724   7.508  0.1735  0.2999  0.6463
  144OSM    H8F15874   2.156   2.645   7.575  2.0024  0.1489  1.7042
  144OSM    H8G15875   2.127   2.808   7.503  1.1674  1.0910 -1.0665
  144OSM    C9F15876   2.324   2.774   7.583  0.4577  0.6230 -0.1690
  144OSM    H9F15877   2.392   2.835   7.521  0.3299  0.3790 -0.5574
  144OSM   C10F15878   2.358   2.750   7.714  0.1993  0.0861 -0.4403
  144OSM   H10F15879   2.449   2.792   7.760  0.2750 -0.0569 -0.4610
  144OSM   C11F15880   2.273   2.672   7.811 -0.9704 -0.1361  0.2946
  144OSM   H11F15881   2.228   2.585   7.758  1.2036 -0.5468 -1.0099
  144OSM   H11G15882   2.188   2.736   7.842 -2.5585 -2.4429  0.9431
  144OSM   C12F15883   2.352   2.618   7.928  0.1462 -0.0608 -0.7533
  144OSM   H12F15884   2.404   2.692   7.991  0.1480 -0.7380  0.0538
  144OSM   H12G15885   2.410   2.528   7.899 -0.0984 -0.5563  0.2742
  144OSM   C13F15886   2.242   2.563   8.029 -0.1251 -0.5825  0.7554
  144OSM   H13F15887   2.176   2.481   7.992 -1.9789  2.0205 -2.2540
  144OSM   H13G15888   2.169   2.645   8.043 -0.4764 -0.9241  0.9490
  144OSM   C14F15889   2.318   2.516   8.153  0.2064 -0.9931  0.1728
  144OSM   H14F15890   2.367   2.609   8.189 -2.5577 -0.0499  1.7955
  144OSM   H14G15891   2.403   2.452   8.121  1.5170 -0.2042  1.8849
  144OSM   C15F15892   2.237   2.446   8.262  0.5413  0.1316 -0.4969
  144OSM   H15F15893   2.287   2.442   8.361 -0.0514  2.9970 -0.0028
  144OSM   H15G15894   2.221   2.340   8.233 -0.5111  0.7448 -2.3852
  144OSM   C16F15895   2.100   2.517   8.292 -0.0274  0.0772 -0.5765
  144OSM   H16F15896   2.053   2.543   8.194 -0.5756 -1.5416 -0.7844
  144OSM   H16G15897   2.120   2.620   8.328  0.7713 -0.3740  0.2858
  144OSM   C17F15898   2.005   2.438   8.379 -0.3368  0.2594  0.5653
  144OSM   H17F15899   1.968   2.504   8.461 -2.1123 -0.0689  0.0509
  144OSM   H17G15900   2.065   2.353   8.419 -0.9707  0.2659  1.5751
  144OSM   C18F15901   1.887   2.380   8.299  0.6396 -0.3779  0.0768
  144OSM   H18F15902   1.919   2.284   8.253  3.2677  0.3310  0.2243
  144OSM   H18G15903   1.843   2.454   8.229  1.6182  1.0966  0.9609
  144OSM   H18H15904   1.800   2.361   8.365  2.1439 -1.8779  1.7435
  145SAPE     N15905   0.906   6.587  10.787 -0.4028  0.3764  0.6611
  145SAPE   HN115906   0.854   6.500  10.763 -0.3615  0.2477  1.0374
  145SAPE   HN215907   0.989   6.565  10.846 -0.3136  2.8254  1.5236
  145SAPE   HN315908   0.843   6.648  10.841 -1.4980  0.7479 -0.9757
  145SAPE   C1215909   0.947   6.662  10.665  0.4178  0.3698 -0.2043
  145SAPE  H12A15910   0.949   6.588  10.583 -1.1264 -0.6089  0.6053
  145SAPE  H12B15911   1.050   6.702  10.679  1.4844 -2.7252  1.7427
  145SAPE   C1115912   0.835   6.762  10.621  0.3466 -0.1146  0.4647
  145SAPE  H11A15913   0.742   6.712  10.587  0.1435  0.9799 -0.6229
  145SAPE  H11B15914   0.875   6.807  10.528 -0.9376 -2.3013 -1.2552
  145SAPE     P15915   0.910   6.961  10.769  0.2489  0.3445 -0.0132
  145SAPE   O1315916   0.839   7.076  10.822 -0.4032  0.2517 -0.2509
  145SAPE   O1415917   1.002   6.889  10.859 -0.1092 -0.0778 -0.2215
  145SAPE   O1215918   0.801   6.856  10.722 -0.4161 -0.0075  0.3153
  145SAPE   O1115919   0.980   6.995  10.638 -0.1613  0.5785  0.4943
  145SAPE    C115920   0.921   7.105  10.564 -0.3338 -0.6308 -0.4072
  145SAPE    HA15921   0.811   7.094  10.552 -0.3471 -1.0782  0.1452
  145SAPE    HB15922   0.952   7.202  10.609 -1.7297 -0.5273  0.3716
  145SAPE    C215923   0.977   7.122  10.421  0.1593 -0.3146  0.1919
  145SAPE    HS15924   0.935   7.212  10.372 -0.6799 -0.5687  0.4316
  145SAPE   O2115925   0.942   7.003  10.337 -0.5493 -0.2613 -0.0295
  145SAPE   C2115926   0.818   6.985  10.298  0.2570 -0.6432  0.0743
  145SAPE   O2215927   0.725   7.065  10.323  0.6756  0.3458  0.1337
  145SAPE   C2215928   0.826   6.884  10.190 -0.3483 -0.1342 -0.0486
  145SAPE   H2R15929   0.847   6.788  10.241 -1.2444 -0.1712  0.2714
  145SAPE   H2S15930   0.725   6.881  10.144 -0.9846  1.2944  1.1744
  145SAPE    C315931   1.132   7.143  10.420 -0.8663  0.3132  0.1082
  145SAPE    HX15932   1.169   7.057  10.481 -2.9399 -1.6767 -1.2606
  145SAPE    HY15933   1.167   7.240  10.461 -0.8894  0.1698  0.4745
  145SAPE   O3115934   1.194   7.131  10.286 -0.5155  0.3922  0.3280
  145SAPE   C3115935   1.156   7.215  10.186  0.1480 -0.0569  0.0291
  145SAPE   O3215936   1.071   7.301  10.193 -0.9834 -1.0263 -0.1298
  145SAPE   C3215937   1.219   7.169  10.068 -0.7797  0.0827 -0.9631
  145SAPE   H2X15938   1.209   7.060  10.048 -2.2784  0.3773 -1.9955
  145SAPE   H2Y15939   1.328   7.170  10.091 -1.1900  0.8188  1.2479
  145SAPE   C2315940   0.935   6.917  10.086  0.4907  0.6055 -0.0153
  145SAPE   H3R15941   1.021   6.866  10.134 -0.0846  0.7161  1.1869
  145SAPE   H3S15942   0.948   7.027  10.076  0.0254  0.6455 -0.1744
  145SAPE   C2415943   0.907   6.860   9.952 -0.0674  0.1942 -0.1218
  145SAPE   H4R15944   0.887   6.751   9.963  3.5793 -0.7161 -1.2381
  145SAPE   H4S15945   0.998   6.868   9.889 -0.9547 -0.0564 -1.4907
  145SAPE   C2515946   0.790   6.934   9.896  0.4310 -0.5565 -0.6354
  145SAPE   H5R15947   0.693   6.917   9.945  0.3480  1.2861 -0.0782
  145SAPE   C2615948   0.775   7.020   9.796 -0.5118  0.2816  0.0367
  145SAPE   H6R15949   0.672   7.053   9.774 -1.2899 -0.1275  2.7093
  145SAPE   C2715950   0.889   7.061   9.695  0.2552  0.1903  0.1618
  145SAPE   H7R15951   0.982   7.001   9.713 -1.1554 -1.9185  0.8461
  145SAPE   H7S15952   0.920   7.165   9.719  1.5612  0.2086 -1.4589
  145SAPE   C2815953   0.843   7.066   9.551 -0.2878 -0.3835  0.1104
  145SAPE   H8R15954   0.751   7.125   9.538  0.1706  0.6634  1.4190
  145SAPE   C2915955   0.895   7.003   9.445  0.0134 -0.0940 -0.0329
  145SAPE   H9R15956   0.845   6.994   9.347 -0.0488  1.2894 -0.1491
  145SAPE  C21015957   1.008   6.909   9.451  0.0367  0.1261 -0.3485
  145SAPE  H10R15958   0.975   6.808   9.481 -1.0066 -0.0450 -1.9480
  145SAPE  H10S15959   1.087   6.944   9.521  0.2687 -2.0334  0.5192
  145SAPE  C21115960   1.068   6.898   9.314 -0.4722  0.4216  1.0577
  145SAPE  H11R15961   1.127   6.987   9.286  1.1952 -1.3611 -1.6013
  145SAPE  C21215962   1.069   6.800   9.218 -0.4313  0.0612  0.5712
  145SAPE  H12R15963   1.117   6.823   9.122 -0.0846 -1.8620  0.2470
  145SAPE  C21315964   1.012   6.664   9.226 -0.0671  0.9327 -0.1359
  145SAPE  H13R15965   0.945   6.656   9.315 -0.8755 -1.7561 -0.8855
  145SAPE  H13S15966   1.090   6.587   9.246 -1.1612  0.0569  0.9417
  145SAPE  C21415967   0.930   6.616   9.105 -0.3679  0.5260 -0.6747
  145SAPE  H14R15968   0.902   6.697   9.036 -2.1126 -0.5067 -1.2730
  145SAPE  C21515969   0.868   6.497   9.083  0.4339 -0.3059 -0.2017
  145SAPE  H15R15970   0.842   6.470   8.980  2.0743 -0.7188 -0.5503
  145SAPE  C21615971   0.890   6.378   9.171  0.0784  0.0689  0.6729
  145SAPE  H16R15972   0.795   6.330   9.202  0.6912 -1.6134  0.0546
  145SAPE  H16S15973   0.949   6.393   9.264  0.1039  0.2280  0.6318
  145SAPE  C21715974   0.974   6.266   9.099  0.0670 -0.1860  0.6532
  145SAPE  H17R15975   1.020   6.198   9.174 -0.0246  1.5206  2.3199
  145SAPE  H17S15976   1.058   6.317   9.048 -1.3977  2.4507  0.7194
  145SAPE  C21815977   0.877   6.170   9.016 -0.3543  0.3627 -0.3864
  145SAPE  H18R15978   0.840   6.230   8.929  0.2511  0.3075 -0.6894
  145SAPE  H18S15979   0.783   6.148   9.070 -1.6893  1.7627 -1.9953
  145SAPE  C21915980   0.950   6.047   8.954  0.3407 -0.3607  0.7721
  145SAPE  H19R15981   0.905   5.959   9.004 -0.0252 -0.5588  0.1059
  145SAPE  H19S15982   1.059   6.047   8.978  1.2370  0.3068 -2.7421
  145SAPE  C22015983   0.945   6.048   8.804 -0.0623  0.0913  0.4837
  145SAPE  H20R15984   0.840   6.063   8.771  0.2535  2.6528  0.4526
  145SAPE  H20S15985   0.973   5.950   8.759 -0.1832  0.7161 -1.0386
  145SAPE  H20T15986   1.005   6.125   8.750 -0.6189  0.2554  0.0823
  145SAPE   C3315987   1.182   7.250   9.935 -0.4981  0.3913  0.0789
  145SAPE   H3X15988   1.200   7.359   9.945  1.4973  0.1259 -0.2648
  145SAPE   H3Y15989   1.072   7.231   9.935 -0.1663 -1.8793  1.3511
  145SAPE   C3415990   1.258   7.203   9.810 -0.4385 -0.4768 -0.9817
  145SAPE   H4X15991   1.248   7.093   9.799  2.0547 -0.6656 -1.9335
  145SAPE   H4Y15992   1.365   7.219   9.833 -0.8288 -1.1207  1.5255
  145SAPE   C3515993   1.220   7.277   9.690  0.2956  0.4097  0.2984
  145SAPE   H5X15994   1.228   7.384   9.720  1.2557  0.0080  1.5733
  145SAPE   H5Y15995   1.114   7.259   9.661  0.4380  0.4033 -0.2183
  145SAPE   C3615996   1.305   7.252   9.566 -0.5225  0.2478 -0.3016
  145SAPE   H6X15997   1.269   7.162   9.513 -0.4210  1.3187 -2.2788
  145SAPE   H6Y15998   1.406   7.236   9.608  0.1297  2.2872 -0.9632
  145SAPE   C3715999   1.306   7.364   9.461 -0.0086 -0.1388 -0.3273
  145SAPE   H7X16000   1.356   7.458   9.493 -2.3837  1.5419 -1.2377
  145SAPE   H7Y16001   1.198   7.389   9.452 -0.1579 -0.9413 -0.9118
  145SAPE   C3816002   1.374   7.334   9.327  0.0469  0.4034 -0.5085
  145SAPE   H8X16003   1.475   7.293   9.347 -1.3731 -1.8674  2.9417
  145SAPE   H8Y16004   1.375   7.430   9.270 -1.6089  0.0996 -1.1369
  145SAPE   C3916005   1.288   7.234   9.243 -0.2977 -0.5330  0.3809
  145SAPE   H9X16006   1.184   7.273   9.241 -0.5597 -1.2563 -0.3462
  145SAPE   H9Y16007   1.285   7.139   9.301 -1.1962  0.1009  1.4289
  145SAPE  C31016008   1.342   7.203   9.107  0.2057 -0.1302  0.0749
  145SAPE  H10X16009   1.265   7.148   9.049 -2.0847  2.0220  0.8813
  145SAPE  H10Y16010   1.441   7.153   9.097 -0.2413 -0.8763 -0.7626
  145SAPE  C31116011   1.346   7.338   9.027 -0.1125  0.2704 -0.5322
  145SAPE  H11X16012   1.451   7.373   9.038 -0.5807  1.3166  0.8123
  145SAPE  H11Y16013   1.275   7.407   9.076 -0.6318 -1.0566  0.6272
  145SAPE  C31216014   1.297   7.338   8.884  0.3059  0.3497  0.5812
  145SAPE  H12X16015   1.261   7.441   8.861  0.7263  0.1594 -1.0631
  145SAPE  H12Y16016   1.213   7.267   8.867  1.4866 -0.7127 -1.1142
  145SAPE  C31316017   1.398   7.297   8.778  0.1425 -0.2721  0.1209
  145SAPE  H13X16018   1.449   7.200   8.797  0.9391  0.0330 -0.3872
  145SAPE  H13Y16019   1.473   7.379   8.776 -1.6334  1.4399  0.8117
  145SAPE  C31416020   1.333   7.282   8.644  0.5693 -0.1096  0.5879
  145SAPE  H14X16021   1.294   7.378   8.603 -0.0151  0.1346  1.6850
  145SAPE  H14Y16022   1.249   7.210   8.654  1.1340 -0.6101  1.8689
  145SAPE  C31516023   1.423   7.235   8.525 -0.0996 -0.5194  0.3275
  145SAPE  H15X16024   1.350   7.195   8.452  1.2580 -1.0040 -0.8057
  145SAPE  H15Y16025   1.499   7.158   8.549  0.7477  0.0579 -0.4413
  145SAPE  C31616026   1.511   7.349   8.465  0.2192  0.5360  0.1843
  145SAPE  H16X16027   1.574   7.413   8.531  0.3876 -0.7756  1.3471
  145SAPE  H16Y16028   1.429   7.408   8.418  0.0446 -2.0756 -3.1259
  145SAPE  C31716029   1.599   7.298   8.341  0.6588  0.2398  0.2571
  145SAPE  H17X16030   1.581   7.372   8.260 -0.5072  0.8134  0.9989
  145SAPE  H17Y16031   1.562   7.198   8.310  1.2474  0.4992 -1.4107
  145SAPE  C31816032   1.752   7.273   8.364  0.2447 -0.4423  0.3089
  145SAPE  H18X16033   1.782   7.221   8.458 -1.3393  0.7944  1.5737
  145SAPE  H18Y16034   1.794   7.375   8.355 -0.0618 -0.5407 -3.3678
  145SAPE  H18Z16035   1.788   7.198   8.291 -1.7463  0.8073 -2.1089
  146SAPE     N16036   0.570   0.247  10.710 -0.0375 -0.7980  0.0571
  146SAPE   HN116037   0.671   0.253  10.730 -0.4696  4.0851  2.3120
  146SAPE   HN216038   0.529   0.276  10.800 -0.3605  0.8376 -0.5795
  146SAPE   HN316039   0.544   0.147  10.702  0.0040 -0.9903  1.9257
  146SAPE   C1216040   0.515   0.338  10.611  0.5374 -0.5812 -0.1493
  146SAPE  H12A16041   0.407   0.314  10.599 -0.6701  4.4043 -1.8225
  146SAPE  H12B16042   0.567   0.328  10.514  0.9149  3.2529 -0.5206
  146SAPE   C1116043   0.543   0.487  10.641 -0.6698  0.1293  0.4349
  146SAPE  H11A16044   0.517   0.539  10.546  1.0631  0.1095 -0.0917
  146SAPE  H11B16045   0.648   0.519  10.660 -0.7658  0.6847  0.0518
  146SAPE     P16046   0.371   0.665  10.742  0.1061  0.1752  0.0194
  146SAPE   O1316047   0.288   0.686  10.863 -0.5182  0.8558  0.2814
  146SAPE   O1416048   0.454   0.780  10.698 -0.4384  0.3140 -0.7527
  146SAPE   O1216049   0.469   0.540  10.754 -0.8014  0.3516  0.1915
  146SAPE   O1116050   0.280   0.621  10.626  0.1501  0.5059  0.2865
  146SAPE    C116051   0.182   0.522  10.632  0.3918 -0.3835  0.2765
  146SAPE    HA16052   0.225   0.422  10.654  0.3172 -0.2359  1.1567
  146SAPE    HB16053   0.110   0.533  10.716  1.5819  0.7779  1.1929
  146SAPE    C216054   0.112   0.524  10.493 -0.4615 -0.4184 -0.6164
  146SAPE    HS16055   0.037   0.442  10.504 -2.9931  1.7481 -0.6703
  146SAPE   O2116056   0.215   0.497  10.390 -0.2806  0.1178  0.1241
  146SAPE   C2116057   0.224   0.372  10.350 -0.3072  0.2269  0.4780
  146SAPE   O2216058   0.162   0.285  10.404 -0.4782  0.0476 -0.4613
  146SAPE   C2216059   0.327   0.364  10.235 -0.3047  0.2173  0.0792
  146SAPE   H2R16060   0.312   0.445  10.161 -0.9564  0.2046  0.1921
  146SAPE   H2S16061   0.431   0.379  10.272  0.2089 -1.0166 -0.7905
  146SAPE    C316062   0.044   0.660  10.462  0.0810  0.5928 -0.3865
  146SAPE    HX16063   0.113   0.744  10.487  1.2676 -0.1155 -1.1780
  146SAPE    HY16064  -0.026   0.659  10.549  1.6640 -3.7997  1.1529
  146SAPE   O3116065  -0.018   0.666  10.336 -0.1191  0.8295 -0.1381
  146SAPE   C3116066   0.042   0.740  10.243 -0.1703  0.6395 -0.0544
  146SAPE   O3216067   0.141   0.809  10.261  0.5508  0.4690 -0.1153
  146SAPE   C3216068  -0.026   0.716  10.107  0.4471  0.2697 -0.3008
  146SAPE   H2X16069  -0.107   0.788  10.085  2.4726  2.6555 -0.4299
  146SAPE   H2Y16070  -0.059   0.610  10.110  1.8129 -0.2336 -1.7619
  146SAPE   C2316071   0.341   0.221  10.161 -0.1921 -0.3612 -0.2000
  146SAPE   H3R16072   0.246   0.175  10.124 -0.8044  0.1080  0.7239
  146SAPE   H3S16073   0.386   0.144  10.227 -0.1179 -0.3894 -0.2839
  146SAPE   C2416074   0.440   0.212  10.044 -0.4059 -0.2168  0.5754
  146SAPE   H4R16075   0.450   0.102  10.029 -1.7176 -0.3249  0.3195
  146SAPE   H4S16076   0.541   0.249  10.072  0.4178 -0.9080 -1.3516
  146SAPE   C2516077   0.404   0.282   9.921  0.1785  0.1048  0.1056
  146SAPE   H5R16078   0.363   0.384   9.926 -1.1835 -0.4658  1.7880
  146SAPE   C2616079   0.390   0.232   9.801  0.4817 -0.2698 -0.4141
  146SAPE   H6R16080   0.355   0.296   9.719 -2.1251  0.0258  0.8458
  146SAPE   C2716081   0.411   0.088   9.764  0.3343 -0.2000  0.3945
  146SAPE   H7R16082   0.359   0.027   9.841 -0.5035 -0.0119 -0.0076
  146SAPE   H7S16083   0.521   0.075   9.773  0.6228  2.0105  0.6982
  146SAPE   C2816084   0.360   0.042   9.634 -0.7084 -0.2463  0.3182
  146SAPE   H8R16085   0.259  -0.000   9.633 -1.2249  0.8741 -2.5012
  146SAPE   C2916086   0.428   0.025   9.521 -0.0103 -0.2668  0.0071
  146SAPE   H9R16087   0.365  -0.001   9.435  1.0753 -1.0645 -0.5701
  146SAPE  C21016088   0.568   0.068   9.490  0.5241 -0.3184  0.2692
  146SAPE  H10R16089   0.625   0.101   9.579  1.8290 -0.6692 -0.4012
  146SAPE  H10S16090   0.554   0.159   9.428  2.0196 -1.5847 -2.1068
  146SAPE  C21116091   0.644  -0.039   9.415 -0.6435 -0.1925 -0.7202
  146SAPE  H11R16092   0.713  -0.098   9.478 -2.6351 -1.1002  0.7298
  146SAPE  C21216093   0.624  -0.074   9.283 -1.3483 -0.6825 -0.5838
  146SAPE  H12R16094   0.696  -0.145   9.240 -0.5625  0.2682 -0.8682
  146SAPE  C21316095   0.536  -0.012   9.183  0.8201  0.3716 -0.0325
  146SAPE  H13R16096   0.557   0.096   9.168 -1.0175  0.6898 -0.6153
  146SAPE  H13S16097   0.428  -0.017   9.209  0.4997 -1.1240 -1.4732
  146SAPE  C21416098   0.532  -0.077   9.051  0.3088  0.3796  0.9708
  146SAPE  H14R16099   0.545  -0.186   9.065  1.2569  0.3166 -0.2113
  146SAPE  C21516100   0.545  -0.015   8.927  0.9833  0.3774 -0.2468
  146SAPE  H15R16101   0.551  -0.080   8.839 -0.1567 -2.1267  1.4390
  146SAPE  C21616102   0.552   0.134   8.888  0.2197 -0.0424 -0.2197
  146SAPE  H16R16103   0.488   0.201   8.949 -1.9412 -0.1138 -2.2701
  146SAPE  H16S16104   0.520   0.156   8.784 -1.3393  0.2283  0.2934
  146SAPE  C21716105   0.701   0.175   8.914 -0.2192  0.1056 -0.5523
  146SAPE  H17R16106   0.755   0.143   8.822 -2.6290 -2.3039 -1.2459
  146SAPE  H17S16107   0.740   0.138   9.011 -2.1819  2.4188  1.2220
  146SAPE  C21816108   0.712   0.326   8.920  0.5127 -0.3438  0.0290
  146SAPE  H18R16109   0.651   0.374   9.000 -0.4374 -1.4903  0.0170
  146SAPE  H18S16110   0.656   0.373   8.836 -0.9529  2.8244  2.5589
  146SAPE  C21916111   0.857   0.375   8.921  0.3837 -0.0817 -0.3720
  146SAPE  H19R16112   0.851   0.482   8.891  1.7883  0.1892  0.2518
  146SAPE  H19S16113   0.920   0.333   8.841  0.4494  1.2403 -1.0542
  146SAPE  C22016114   0.937   0.377   9.053 -0.0779  0.7366  0.1455
  146SAPE  H20R16115   0.956   0.269   9.074  1.4427  1.1755  1.1800
  146SAPE  H20S16116   0.891   0.432   9.137  2.8707  2.5014  0.7414
  146SAPE  H20T16117   1.032   0.432   9.041  0.3634  0.6374  2.6146
  146SAPE   C3316118   0.070   0.714   9.990 -1.0324  0.2227  0.6890
  146SAPE   H3X16119   0.142   0.630  10.006 -3.1002 -1.8693 -0.4346
  146SAPE   H3Y16120   0.128   0.809   9.990 -0.0950 -0.3259  1.6344
  146SAPE   C3416121  -0.000   0.692   9.856  0.3193 -0.0061 -0.3394
  146SAPE   H4X16122  -0.104   0.724   9.880 -0.3514 -1.2918 -1.3924
  146SAPE   H4Y16123  -0.001   0.585   9.829 -0.4543 -0.5827  1.7716
  146SAPE   C3516124   0.049   0.783   9.745  0.6074 -0.6369  0.7248
  146SAPE   H5X16125   0.159   0.776   9.734  0.5865  0.8467 -1.0772
  146SAPE   H5Y16126   0.042   0.893   9.759 -1.6591 -0.8621  1.7793
  146SAPE   C3616127  -0.013   0.739   9.609 -0.3270  0.2849  0.8552
  146SAPE   H6X16128  -0.123   0.735   9.621 -0.6995 -3.0548 -2.1033
  146SAPE   H6Y16129   0.015   0.633   9.594  0.6613  0.5393  0.8120
  146SAPE   C3716130   0.026   0.826   9.476 -0.1888  0.8183  0.1927
  146SAPE   H7X16131   0.137   0.830   9.486 -0.4300  3.1181  3.0014
  146SAPE   H7Y16132  -0.019   0.927   9.490 -1.0022  1.0814 -3.2351
  146SAPE   C3816133  -0.019   0.766   9.339 -0.1973 -0.2550 -0.3477
  146SAPE   H8X16134  -0.125   0.734   9.351 -0.1227 -0.1231  0.8636
  146SAPE   H8Y16135   0.031   0.671   9.309 -0.4813  0.2186 -2.4399
  146SAPE   C3916136  -0.025   0.879   9.242 -0.1895  0.4661  0.2197
  146SAPE   H9X16137   0.080   0.906   9.217 -1.4444  3.6588 -2.3059
  146SAPE   H9Y16138  -0.068   0.972   9.284  1.4661  1.3497  0.0703
  146SAPE  C31016139  -0.095   0.845   9.112  1.0615  0.7231 -0.4188
  146SAPE  H10X16140  -0.200   0.812   9.129  0.8292 -0.6765 -3.8243
  146SAPE  H10Y16141  -0.034   0.769   9.059  1.5206  0.9811 -0.2627
  146SAPE  C31116142  -0.110   0.971   9.024 -0.3291 -0.5160  0.0180
  146SAPE  H11X16143  -0.019   0.997   8.965 -0.7897 -0.2265 -0.5727
  146SAPE  H11Y16144  -0.126   1.059   9.090 -0.4212 -2.1745  2.3218
  146SAPE  C31216145  -0.220   0.962   8.923 -0.2213 -0.5266 -0.0695
  146SAPE  H12X16146  -0.234   1.059   8.872  1.3603 -0.4348 -0.3674
  146SAPE  H12Y16147  -0.318   0.942   8.973 -1.2354  1.0882 -1.3169
  146SAPE  C31316148  -0.205   0.854   8.809 -0.3668  0.4576 -0.0480
  146SAPE  H13X16149  -0.306   0.818   8.780  0.5558 -2.2083 -0.2254
  146SAPE  H13Y16150  -0.137   0.775   8.847  1.2274  0.5291 -2.4749
  146SAPE  C31416151  -0.140   0.926   8.687 -0.2258  0.5964  0.0700
  146SAPE  H14X16152  -0.029   0.923   8.691 -0.2489  0.6212  0.8552
  146SAPE  H14Y16153  -0.166   1.034   8.681  1.1597  0.9650  0.4280
  146SAPE  C31516154  -0.175   0.861   8.548  0.1702  0.8438 -0.3279
  146SAPE  H15X16155  -0.282   0.883   8.528  0.3861  3.0735  0.5919
  146SAPE  H15Y16156  -0.166   0.752   8.569 -2.7321  1.1049  3.5528
  146SAPE  C31616157  -0.074   0.896   8.442  0.1769 -0.1320 -0.2926
  146SAPE  H16X16158   0.024   0.857   8.475 -0.8343 -1.2724  1.5053
  146SAPE  H16Y16159  -0.073   1.005   8.419 -1.5176  0.6023  2.5420
  146SAPE  C31716160  -0.106   0.820   8.316 -0.6389 -0.0562 -0.1371
  146SAPE  H17X16161  -0.159   0.888   8.246 -0.6089  0.6679  0.5218
  146SAPE  H17Y16162  -0.181   0.739   8.329  0.4248 -1.2575 -1.2477
  146SAPE  C31816163   0.016   0.770   8.245  0.0513  0.5909  0.1813
  146SAPE  H18X16164  -0.016   0.707   8.160  0.1121 -0.9158  1.2460
  146SAPE  H18Y16165   0.067   0.699   8.313 -1.3800 -1.0249 -0.3827
  146SAPE  H18Z16166   0.092   0.842   8.207 -0.0092  0.3563 -0.3945
  147SAPE     N16167   1.009   2.718  10.904 -0.0249  0.0980  0.0740
  147SAPE   HN116168   1.031   2.666  10.817 -0.5763 -1.2867  0.7348
  147SAPE   HN216169   1.098   2.747  10.950  0.4123 -0.0884 -0.6357
  147SAPE   HN316170   0.946   2.657  10.959 -1.1839 -0.8885 -2.2252
  147SAPE   C1216171   0.936   2.847  10.870 -0.4371 -0.5604 -0.5625
  147SAPE  H12A16172   0.886   2.887  10.960  0.7312  0.2792 -0.2666
  147SAPE  H12B16173   0.859   2.823  10.793  0.2921  1.1040 -1.8781
  147SAPE   C1116174   1.040   2.942  10.813  0.5366 -0.1844  0.1864
  147SAPE  H11A16175   0.995   3.036  10.774 -0.5871 -0.8279 -0.0877
  147SAPE  H11B16176   1.099   2.897  10.730 -1.1908  0.6524 -1.5851
  147SAPE     P16177   1.266   3.040  10.902  0.0363 -0.3679 -0.1036
  147SAPE   O1316178   1.240   3.188  10.895  0.2756  0.1591  0.0537
  147SAPE   O1416179   1.356   2.989  11.006 -0.1393 -0.3892  0.1659
  147SAPE   O1216180   1.126   2.974  10.916 -0.0883  0.5834 -0.3407
  147SAPE   O1116181   1.327   2.986  10.766 -0.0623  0.3693  0.0804
  147SAPE    C116182   1.387   3.073  10.666  0.1617  0.2871 -0.3931
  147SAPE    HA16183   1.458   3.144  10.714  1.7707 -0.9093 -0.9420
  147SAPE    HB16184   1.449   3.016  10.594 -0.1352 -1.4759  0.6908
  147SAPE    C216185   1.281   3.159  10.585 -0.0476 -0.5334 -0.2052
  147SAPE    HS16186   1.217   3.209  10.660 -2.3925 -2.7238 -0.6408
  147SAPE   O2116187   1.211   3.073  10.494  0.6287  0.0054  0.4876
  147SAPE   C2116188   1.080   3.097  10.467 -0.4682  0.4422  0.0690
  147SAPE   O2216189   1.010   3.183  10.511 -0.4672 -0.0601 -0.0245
  147SAPE   C2216190   1.028   2.993  10.369  0.1011 -0.2726 -0.7190
  147SAPE   H2R16191   1.113   2.966  10.303  0.7885 -1.3737  0.5648
  147SAPE   H2S16192   1.015   2.899  10.426  0.3028  0.3427  0.3686
  147SAPE    C316193   1.337   3.264  10.487  0.1360 -0.3600 -0.0995
  147SAPE    HX16194   1.384   3.343  10.549 -1.9668  1.1378 -0.3212
  147SAPE    HY16195   1.250   3.315  10.439 -0.1237 -0.6530  0.0536
  147SAPE   O3116196   1.432   3.202  10.396  0.5854  0.0534 -0.1483
  147SAPE   C3116197   1.386   3.189  10.268  0.6198 -0.3263 -0.1396
  147SAPE   O3216198   1.265   3.207  10.242 -0.1497  0.7358 -0.0158
  147SAPE   C3216199   1.497   3.135  10.176  0.3690  0.5467  0.2363
  147SAPE   H2X16200   1.446   3.041  10.147  0.6279  0.1033  1.1834
  147SAPE   H2Y16201   1.592   3.114  10.229  0.8446  0.8061 -0.5052
  147SAPE   C2316202   0.894   3.035  10.297 -0.4236 -0.6024 -0.2734
  147SAPE   H3R16203   0.923   3.129  10.245 -4.1445  1.4874  1.0243
  147SAPE   H3S16204   0.817   3.065  10.372  1.4290 -1.0301  1.9246
  147SAPE   C2416205   0.843   2.921  10.207  0.0413 -0.3074 -0.7057
  147SAPE   H4R16206   0.777   2.845  10.255 -0.5432  0.9896  0.6101
  147SAPE   H4S16207   0.929   2.857  10.177  1.5685 -0.0217  2.6326
  147SAPE   C2516208   0.770   2.978  10.090  0.6207 -0.7708  0.3825
  147SAPE   H5R16209   0.673   3.014  10.127  0.8087  0.4530 -0.2634
  147SAPE   C2616210   0.819   3.014   9.966 -0.3370 -0.3246 -0.8296
  147SAPE   H6R16211   0.758   3.072   9.896 -0.9959  0.4948  0.4015
  147SAPE   C2716212   0.960   2.997   9.915 -0.3213  0.7356  0.2581
  147SAPE   H7R16213   0.967   2.998   9.804 -2.8239  1.9726  0.0538
  147SAPE   H7S16214   0.992   2.902   9.964 -1.1422 -0.5075 -1.4960
  147SAPE   C2816215   1.051   3.095   9.967  0.3945 -0.4446  0.2178
  147SAPE   H8R16216   1.053   3.116  10.075 -0.0944 -0.9471  0.3277
  147SAPE   C2916217   1.127   3.180   9.892 -1.0646  0.0005  0.2929
  147SAPE   H9R16218   1.192   3.242   9.955 -2.1492 -0.3579  1.8253
  147SAPE  C21016219   1.134   3.202   9.735 -0.8583  0.7034 -0.0763
  147SAPE  H10R16220   1.036   3.165   9.695 -1.7031  3.1268 -0.4006
  147SAPE  H10S16221   1.209   3.125   9.705  0.3309  1.5576  0.6405
  147SAPE  C21116222   1.154   3.335   9.681  0.1414 -0.9027  1.2019
  147SAPE  H11R16223   1.125   3.426   9.736 -0.5206  0.0450 -0.6343
  147SAPE  C21216224   1.211   3.365   9.566 -0.4675 -0.1262  0.3047
  147SAPE  H12R16225   1.225   3.472   9.545  0.8116  0.1581  2.3273
  147SAPE  C21316226   1.275   3.274   9.467 -0.2275 -0.0793 -0.2659
  147SAPE  H13R16227   1.354   3.213   9.516 -1.0552 -0.8487  0.1246
  147SAPE  H13S16228   1.329   3.334   9.390  0.2046 -1.3339 -0.9612
  147SAPE  C21416229   1.182   3.174   9.399  0.5832 -0.2373  0.2575
  147SAPE  H14R16230   1.080   3.161   9.438  0.2854 -0.2667 -0.5106
  147SAPE  C21516231   1.217   3.099   9.293 -0.2593  0.2631  0.2855
  147SAPE  H15R16232   1.145   3.032   9.243 -0.3536  1.3479 -1.1364
  147SAPE  C21616233   1.356   3.102   9.230 -0.0810 -0.3454  1.2380
  147SAPE  H16R16234   1.383   3.001   9.194 -0.0509  0.3907 -0.9449
  147SAPE  H16S16235   1.442   3.130   9.295 -1.1769  0.4248  2.4100
  147SAPE  C21716236   1.372   3.186   9.097 -0.3857 -0.7772  0.4850
  147SAPE  H17R16237   1.319   3.142   9.010 -0.2974  1.3666 -0.7192
  147SAPE  H17S16238   1.479   3.182   9.068 -0.6794 -2.0720 -0.5183
  147SAPE  C21816239   1.319   3.330   9.108 -0.4604  0.2070 -0.6568
  147SAPE  H18R16240   1.364   3.383   9.195 -1.0286  2.0781 -1.4557
  147SAPE  H18S16241   1.209   3.323   9.120 -0.8695 -1.1452 -4.0003
  147SAPE  C21916242   1.343   3.426   8.991 -0.0648 -1.0060  0.2842
  147SAPE  H19R16243   1.309   3.383   8.895 -0.0423 -2.3966  0.8712
  147SAPE  H19S16244   1.454   3.437   8.990 -0.2213  0.8904 -0.8658
  147SAPE  C22016245   1.286   3.567   9.017 -0.2599  0.1648 -0.2453
  147SAPE  H20R16246   1.333   3.599   9.112 -1.1601 -2.5825  1.2268
  147SAPE  H20S16247   1.176   3.581   9.009 -0.0990  1.2995 -0.5982
  147SAPE  H20T16248   1.325   3.620   8.927 -0.4256 -0.7146 -0.8447
  147SAPE   C3316249   1.507   3.244  10.068  0.6861 -0.1976  0.7852
  147SAPE   H3X16250   1.559   3.330  10.114  0.5214  0.5294 -0.3704
  147SAPE   H3Y16251   1.410   3.275  10.023  1.2003  0.3427  0.0176
  147SAPE   C3416252   1.599   3.182   9.958 -0.5174  0.5100  0.3302
  147SAPE   H4X16253   1.690   3.142  10.008 -1.0662 -1.1868  0.0189
  147SAPE   H4Y16254   1.635   3.263   9.891 -1.4215  0.9485  0.3615
  147SAPE   C3516255   1.517   3.081   9.881  0.3179 -0.7646 -0.5562
  147SAPE   H5X16256   1.425   3.133   9.846  0.5164  0.3045  0.4671
  147SAPE   H5Y16257   1.494   2.994   9.945 -2.0896  0.7914  0.8347
  147SAPE   C3616258   1.601   3.040   9.762  0.1403  0.4563 -0.1723
  147SAPE   H6X16259   1.692   2.996   9.808 -0.1001  0.6875  0.5334
  147SAPE   H6Y16260   1.625   3.137   9.713 -1.9429  0.7248 -0.7480
  147SAPE   C3716261   1.529   2.933   9.677 -0.4590 -0.3306 -0.4189
  147SAPE   H7X16262   1.431   2.979   9.653 -0.2845  0.2596 -0.0205
  147SAPE   H7Y16263   1.505   2.842   9.736  1.0835 -2.3431 -2.7216
  147SAPE   C3816264   1.603   2.887   9.556  0.4135 -0.1673  1.0498
  147SAPE   H8X16265   1.684   2.815   9.581  0.6457 -0.5467 -0.6527
  147SAPE   H8Y16266   1.650   2.974   9.507  2.9833 -0.2398  3.1689
  147SAPE   C3916267   1.509   2.825   9.455  0.1774  0.6083 -0.1040
  147SAPE   H9X16268   1.421   2.888   9.432 -0.9885 -0.7936  0.3819
  147SAPE   H9Y16269   1.477   2.740   9.518  1.3326  0.4044  0.2416
  147SAPE  C31016270   1.567   2.766   9.325 -0.2115 -0.2910 -0.1695
  147SAPE  H10X16271   1.659   2.706   9.346 -0.3163 -0.6398 -0.6879
  147SAPE  H10Y16272   1.600   2.848   9.257 -0.3021  0.0671  0.2093
  147SAPE  C31116273   1.480   2.669   9.242 -0.5143 -0.1566 -0.3741
  147SAPE  H11X16274   1.385   2.723   9.223 -0.7967 -0.1422  0.9945
  147SAPE  H11Y16275   1.458   2.582   9.307 -1.2311  1.0997  1.1505
  147SAPE  C31216276   1.537   2.622   9.112  0.3006  0.4960  0.4975
  147SAPE  H12X16277   1.623   2.552   9.121 -0.3649 -0.5125 -0.6390
  147SAPE  H12Y16278   1.579   2.711   9.061  1.0199  1.1970  2.2261
  147SAPE  C31316279   1.431   2.554   9.027  0.3875 -0.3403 -0.6926
  147SAPE  H13X16280   1.357   2.630   8.996 -1.1683 -1.0991  0.9594
  147SAPE  H13Y16281   1.374   2.482   9.090 -2.5593  4.1274  2.2687
  147SAPE  C31416282   1.492   2.476   8.912 -0.2063  0.4467  0.4175
  147SAPE  H14X16283   1.544   2.381   8.936  0.6483  0.4280 -1.3382
  147SAPE  H14Y16284   1.573   2.537   8.867  0.0565 -0.7481 -0.8098
  147SAPE  C31516285   1.383   2.444   8.806 -0.1726  0.0324 -0.0720
  147SAPE  H15X16286   1.314   2.528   8.782 -0.7463 -0.2126  0.6715
  147SAPE  H15Y16287   1.309   2.364   8.829  0.0404 -0.3114 -0.5469
  147SAPE  C31616288   1.456   2.407   8.671 -0.0522  0.0087 -0.1711
  147SAPE  H16X16289   1.528   2.325   8.693  1.6649  1.8823  1.5758
  147SAPE  H16Y16290   1.522   2.486   8.630 -1.1958 -0.6331 -3.5467
  147SAPE  C31716291   1.376   2.351   8.556 -0.4388  0.4091 -0.1950
  147SAPE  H17X16292   1.340   2.250   8.586  1.7900 -0.6462 -0.8638
  147SAPE  H17Y16293   1.447   2.333   8.473 -1.3577  0.5845 -1.0315
  147SAPE  C31816294   1.266   2.432   8.498 -0.5969 -0.3860  0.3213
  147SAPE  H18X16295   1.308   2.532   8.474  3.6738 -1.8843  0.6327
  147SAPE  H18Y16296   1.178   2.443   8.564 -0.5088 -0.8945  0.5311
  147SAPE  H18Z16297   1.234   2.384   8.403 -1.4036  1.9157 -0.6377
  148SAPE     N16298   3.283   4.101  10.998 -0.4679  1.0242  0.2499
  148SAPE   HN116299   3.257   4.112  11.098  0.7279  1.1383  0.5611
  148SAPE   HN216300   3.333   4.013  10.975 -1.0179  0.7241  0.1667
  148SAPE   HN316301   3.349   4.180  10.985  0.3279  0.2816 -0.3538
  148SAPE   C1216302   3.184   4.125  10.894  0.6383 -0.1816  0.4667
  148SAPE  H12A16303   3.145   4.229  10.896  1.6450  0.5325 -4.4958
  148SAPE  H12B16304   3.108   4.044  10.905  0.4107  0.0743  0.7816
  148SAPE   C1116305   3.245   4.118  10.756  0.8143 -0.9512 -0.0032
  148SAPE  H11A16306   3.302   4.211  10.731 -2.8298  1.4231 -0.2439
  148SAPE  H11B16307   3.155   4.132  10.693  2.3515  2.1995 -1.7623
  148SAPE     P16308   3.345   3.953  10.580 -0.6461  0.4697 -0.1896
  148SAPE   O1316309   3.425   3.831  10.600  0.2545  0.1572  0.1628
  148SAPE   O1416310   3.229   3.945  10.497  0.8142 -0.2365  0.8394
  148SAPE   O1216311   3.310   3.996  10.732  0.2316  0.2091  0.0836
  148SAPE   O1116312   3.435   4.073  10.534 -0.2225 -0.9078 -0.3053
  148SAPE    C116313   3.555   4.093  10.602 -0.2737  0.3683 -0.2465
  148SAPE    HA16314   3.538   4.135  10.704 -1.2519 -0.3400 -0.1126
  148SAPE    HB16315   3.616   4.001  10.612 -2.6683 -1.1390  1.4984
  148SAPE    C216316   3.641   4.189  10.512 -0.0367 -0.2159  0.7307
  148SAPE    HS16317   3.739   4.212  10.560  0.9974 -0.6941 -1.0832
  148SAPE   O2116318   3.562   4.304  10.478 -0.2585 -0.6151 -0.0555
  148SAPE   C2116319   3.511   4.374  10.581  0.0210 -0.6536 -0.5696
  148SAPE   O2216320   3.553   4.371  10.697  0.3177 -0.5785  0.0944
  148SAPE   C2216321   3.393   4.462  10.527  0.1578 -0.4834 -0.8327
  148SAPE   H2R16322   3.367   4.433  10.423  1.1603  0.0848 -1.2569
  148SAPE   H2S16323   3.306   4.435  10.590  0.6276  3.2875  1.8140
  148SAPE    C316324   3.671   4.104  10.388 -0.4756  0.7530  0.4367
  148SAPE    HX16325   3.574   4.057  10.360 -0.4077 -0.6427  2.3921
  148SAPE    HY16326   3.736   4.022  10.423  0.3846  1.1937 -0.0698
  148SAPE   O3116327   3.718   4.174  10.264 -0.4027  0.8701 -0.1487
  148SAPE   C3116328   3.837   4.214  10.281  0.7716  0.1389 -0.0868
  148SAPE   O3216329   3.907   4.209  10.383 -0.4422  0.0987 -0.1818
  148SAPE   C3216330   3.884   4.285  10.154  0.5506 -0.2600 -0.0163
  148SAPE   H2X16331   3.883   4.396  10.164  0.9678 -0.2259 -0.3046
  148SAPE   H2Y16332   3.830   4.255  10.062  0.7263  2.1807 -0.9952
  148SAPE   C2316333   3.415   4.613  10.548  0.1193  0.9443  0.0118
  148SAPE   H3R16334   3.456   4.624  10.650  1.7368 -1.3267 -0.3291
  148SAPE   H3S16335   3.317   4.665  10.536  0.2150  0.9975 -0.5840
  148SAPE   C2416336   3.507   4.676  10.438  0.2874 -0.1527 -0.3865
  148SAPE   H4R16337   3.507   4.787  10.447 -0.4420 -0.0898 -1.0465
  148SAPE   H4S16338   3.450   4.667  10.343  1.7962 -0.2694 -1.3072
  148SAPE   C2516339   3.650   4.633  10.451  0.4823 -0.1291  0.6300
  148SAPE   H5R16340   3.693   4.646  10.551  3.5226 -0.8492 -0.4753
  148SAPE   C2616341   3.725   4.596  10.346 -0.0048  0.1731  0.0202
  148SAPE   H6R16342   3.829   4.565  10.362 -0.0901  0.4514  1.2454
  148SAPE   C2716343   3.676   4.589  10.200 -0.5612  0.0629  0.1608
  148SAPE   H7R16344   3.765   4.609  10.137 -1.0975  1.7994 -0.1076
  148SAPE   H7S16345   3.634   4.687  10.169  0.8347  0.7320  0.2768
  148SAPE   C2816346   3.608   4.460  10.172  0.2126  0.2391 -0.1945
  148SAPE   H8R16347   3.584   4.385  10.248 -0.5275 -0.3790 -1.0291
  148SAPE   C2916348   3.568   4.424  10.049  0.2842 -0.4474 -0.7398
  148SAPE   H9R16349   3.511   4.331  10.036 -0.9050 -0.2187  2.0263
  148SAPE  C21016350   3.577   4.503   9.921 -0.2653  0.5660 -0.3948
  148SAPE  H10R16351   3.556   4.609   9.945  0.5555  0.4483  0.9630
  148SAPE  H10S16352   3.489   4.467   9.862 -0.0678 -0.0819 -0.3011
  148SAPE  C21116353   3.696   4.474   9.842  0.4690  0.3502  0.1573
  148SAPE  H11R16354   3.790   4.448   9.892  0.3629 -2.1450 -0.7696
  148SAPE  C21216355   3.706   4.474   9.710  0.6351 -0.0624 -0.5479
  148SAPE  H12R16356   3.807   4.467   9.669  0.2876  0.6264 -1.5541
  148SAPE  C21316357   3.593   4.506   9.610 -0.4340  0.2572 -0.2568
  148SAPE  H13R16358   3.496   4.533   9.657  0.9424  1.6031  1.9748
  148SAPE  H13S16359   3.573   4.411   9.555  3.0095 -2.1341  2.2249
  148SAPE  C21416360   3.644   4.611   9.511  0.9988 -0.3040  0.6563
  148SAPE  H14R16361   3.652   4.715   9.546 -0.2572 -0.5691  1.7998
  148SAPE  C21516362   3.677   4.601   9.385  0.4579  0.0842  0.2759
  148SAPE  H15R16363   3.710   4.690   9.330 -0.1622 -0.1239 -0.4550
  148SAPE  C21616364   3.689   4.472   9.306  1.2231 -0.3089  0.2824
  148SAPE  H16R16365   3.633   4.390   9.355 -0.1191  1.5376  1.9919
  148SAPE  H16S16366   3.795   4.439   9.293  0.9039 -1.1125 -0.3747
  148SAPE  C21716367   3.618   4.492   9.174 -0.2288 -0.8916  0.0571
  148SAPE  H17R16368   3.644   4.590   9.127 -0.6730  0.4047  2.3628
  148SAPE  H17S16369   3.510   4.495   9.197  0.3175 -0.0227  2.9863
  148SAPE  C21816370   3.645   4.375   9.070  0.3882 -0.2165  0.9155
  148SAPE  H18R16371   3.598   4.290   9.124 -2.8965  1.7778  1.5094
  148SAPE  H18S16372   3.755   4.363   9.065  0.1747 -1.9233 -1.3366
  148SAPE  C21916373   3.601   4.406   8.923  0.3661  0.4562 -0.5902
  148SAPE  H19R16374   3.513   4.473   8.917  0.2570  0.7077  2.4467
  148SAPE  H19S16375   3.555   4.309   8.893  1.0167  0.5216 -1.8380
  148SAPE  C22016376   3.714   4.446   8.831 -0.4750  0.1547  0.1864
  148SAPE  H20R16377   3.728   4.556   8.837 -1.3478  0.3285 -0.6695
  148SAPE  H20S16378   3.679   4.433   8.726  0.5669  0.8678 -0.2769
  148SAPE  H20T16379   3.812   4.398   8.851 -1.0201  0.3739  4.1476
  148SAPE   C3316380   4.033   4.249  10.153  0.1211  0.1977 -0.2394
  148SAPE   H3X16381   4.048   4.139  10.147 -0.9439  0.0561 -0.4181
  148SAPE   H3Y16382   4.086   4.293  10.241  0.5160  1.6510 -1.1736
  148SAPE   C3416383   4.094   4.295  10.021 -0.3791  0.4896 -0.4077
  148SAPE   H4X16384   4.201   4.265  10.027 -0.6247 -0.3465  0.0190
  148SAPE   H4Y16385   4.091   4.406  10.020  3.0030  0.7332  0.6875
  148SAPE   C3516386   4.040   4.228   9.896  0.0362  0.1093 -0.5129
  148SAPE   H5X16387   3.940   4.272   9.880 -0.8121 -0.3661  2.7434
  148SAPE   H5Y16388   4.033   4.121   9.922  1.5829  0.2222  0.5297
  148SAPE   C3616389   4.129   4.251   9.771 -0.0151  0.0435 -0.3787
  148SAPE   H6X16390   4.217   4.188   9.795  0.5955  0.7261 -0.7933
  148SAPE   H6Y16391   4.161   4.356   9.755  1.5600 -0.6007 -1.7146
  148SAPE   C3716392   4.058   4.192   9.648 -0.9715  0.0227  0.1638
  148SAPE   H7X16393   3.954   4.226   9.631 -0.3943  0.7121 -2.5211
  148SAPE   H7Y16394   4.077   4.084   9.662 -0.3510  0.1589  0.4244
  148SAPE   C3816395   4.133   4.223   9.520  0.0917 -0.4166  0.8496
  148SAPE   H8X16396   4.242   4.201   9.513  0.5968  2.2203 -1.6399
  148SAPE   H8Y16397   4.126   4.334   9.513 -0.2655 -0.3889  1.5796
  148SAPE   C3916398   4.074   4.156   9.394 -0.5563 -0.0333  0.3040
  148SAPE   H9X16399   3.974   4.119   9.424 -0.5186 -0.0618  0.3933
  148SAPE   H9Y16400   4.143   4.077   9.357 -0.1990  0.6753 -0.5946
  148SAPE  C31016401   4.055   4.264   9.280  0.5416 -0.6909 -1.1389
  148SAPE  H10X16402   3.986   4.345   9.313  0.4399 -1.5723  1.0508
  148SAPE  H10Y16403   3.993   4.213   9.204  0.6013 -0.6674 -1.2035
  148SAPE  C31116404   4.191   4.301   9.218 -0.1373  0.2162 -0.3849
  148SAPE  H11X16405   4.235   4.205   9.186  0.9882 -0.0431  1.7712
  148SAPE  H11Y16406   4.257   4.342   9.298 -0.1402  0.8220 -0.6819
  148SAPE  C31216407   4.190   4.402   9.109 -0.4555  0.6054 -0.3168
  148SAPE  H12X16408   4.298   4.416   9.088  0.1492 -1.8854  0.7916
  148SAPE  H12Y16409   4.148   4.496   9.151  1.5938  0.9528  1.0642
  148SAPE  C31316410   4.114   4.353   8.983 -0.5947 -0.5472  0.4782
  148SAPE  H13X16411   4.003   4.357   8.986 -0.6300 -0.2282 -0.9301
  148SAPE  H13Y16412   4.140   4.248   8.959 -0.9315 -0.7793  1.0998
  148SAPE  C31416413   4.147   4.443   8.862 -0.3510  0.8173 -0.3794
  148SAPE  H14X16414   4.256   4.463   8.857  0.0107  0.1445  2.7005
  148SAPE  H14Y16415   4.088   4.537   8.874 -1.4636  0.1155 -0.2071
  148SAPE  C31516416   4.096   4.375   8.736  0.0617  0.6645  0.0192
  148SAPE  H15X16417   3.998   4.335   8.771  1.0269 -0.5182  1.5376
  148SAPE  H15Y16418   4.154   4.281   8.727 -0.6670  0.0737  1.2312
  148SAPE  C31616419   4.090   4.457   8.606 -1.0728  0.0471 -0.2080
  148SAPE  H16X16420   4.042   4.554   8.632  0.1655  0.5069  0.4755
  148SAPE  H16Y16421   4.030   4.394   8.536 -1.0499 -0.3989  0.1688
  148SAPE  C31716422   4.230   4.480   8.544 -0.5884  0.2142 -1.1520
  148SAPE  H17X16423   4.297   4.391   8.548 -1.1367 -0.1911  2.8271
  148SAPE  H17Y16424   4.284   4.550   8.610 -1.3484 -0.7162  0.5096
  148SAPE  C31816425   4.225   4.553   8.408 -0.0587 -0.4893  0.0492
  148SAPE  H18X16426   4.328   4.588   8.387  0.0923 -0.6094  0.5723
  148SAPE  H18Y16427   4.157   4.640   8.399 -0.2590 -0.8451 -2.6524
  148SAPE  H18Z16428   4.184   4.484   8.331 -1.2676  0.8640 -0.5705
  149SAPE     N16429   4.596   0.905  10.954 -0.1515 -0.3175  0.1102
  149SAPE   HN116430   4.691   0.891  10.992 -0.3589 -3.1068 -0.2337
  149SAPE   HN216431   4.591   0.972  10.874  0.4368 -1.0238 -0.5272
  149SAPE   HN316432   4.533   0.941  11.028 -0.0919  1.1644 -0.5227
  149SAPE   C1216433   4.554   0.773  10.891 -0.3146 -0.5870  0.9403
  149SAPE  H12A16434   4.456   0.787  10.841  0.5775 -2.0487 -1.3761
  149SAPE  H12B16435   4.556   0.704  10.978 -1.0645 -0.5387  1.0085
  149SAPE   C1116436   4.655   0.715  10.785  0.0326 -0.3388  0.0847
  149SAPE  H11A16437   4.650   0.787  10.701  1.2790  0.0384  0.3147
  149SAPE  H11B16438   4.611   0.620  10.748 -1.4815  1.2806 -2.5206
  149SAPE     P16439   4.851   0.599  10.921 -0.2912 -0.1058  0.3080
  149SAPE   O1316440   4.966   0.662  10.996 -0.7306  0.1924  0.2965
  149SAPE   O1416441   4.743   0.551  11.007 -0.0469  0.1524 -0.7570
  149SAPE   O1216442   4.796   0.711  10.820  0.2425  0.6787  0.1879
  149SAPE   O1116443   4.914   0.486  10.838  0.4654  0.1045  0.1546
  149SAPE    C116444   4.894   0.488  10.692  0.8514 -0.2471  0.0732
  149SAPE    HA16445   4.788   0.502  10.661  1.3596 -0.6285 -1.9687
  149SAPE    HB16446   4.960   0.568  10.650  0.8513 -0.5401 -0.4960
  149SAPE    C216447   4.941   0.355  10.627  0.2476  0.1018 -0.1388
  149SAPE    HS16448   4.911   0.359  10.520 -0.3673  1.6601  0.0770
  149SAPE   O2116449   4.880   0.237  10.693 -1.0181  0.5271 -0.2863
  149SAPE   C2116450   4.755   0.227  10.656  0.5009  0.5685 -0.3429
  149SAPE   O2216451   4.697   0.297  10.574  0.3411  0.1629  0.0449
  149SAPE   C2216452   4.685   0.117  10.740  0.4116 -0.2220 -0.3025
  149SAPE   H2R16453   4.677   0.148  10.846 -1.9563  0.4824 -0.6038
  149SAPE   H2S16454   4.583   0.103  10.697  0.6943  1.7602 -1.8058
  149SAPE    C316455   5.086   0.319  10.631 -0.1921 -0.1352 -0.8591
  149SAPE    HX16456   5.103   0.271  10.730 -0.1747  0.9277 -0.3344
  149SAPE    HY16457   5.147   0.412  10.623  0.1960 -0.3906 -0.8919
  149SAPE   O3116458   5.128   0.214  10.540 -0.8357 -0.3914 -0.1778
  149SAPE   C3116459   5.256   0.215  10.493 -0.6059 -0.1322  0.4033
  149SAPE   O3216460   5.340   0.300  10.498  0.3200  0.5197 -0.3855
  149SAPE   C3216461   5.279   0.079  10.434  0.1763  0.0717  0.6420
  149SAPE   H2X16462   5.296   0.010  10.519  1.3378 -1.6927 -0.9561
  149SAPE   H2Y16463   5.376   0.080  10.380 -0.7167  0.1906 -1.0170
  149SAPE   C2316464   4.756  -0.019  10.745 -0.6646 -0.1683  0.5814
  149SAPE   H3R16465   4.697  -0.094  10.802  1.0365 -1.7109  0.4070
  149SAPE   H3S16466   4.856  -0.020  10.792  0.1212  1.0574 -0.9815
  149SAPE   C2416467   4.789  -0.084  10.611  0.0249  0.3546  0.4871
  149SAPE   H4R16468   4.821  -0.190  10.622 -1.0249 -0.1345 -0.9492
  149SAPE   H4S16469   4.867  -0.027  10.557 -0.0461 -0.3553 -0.3847
  149SAPE   C2516470   4.653  -0.101  10.538 -0.4951  0.1643 -0.3817
  149SAPE   H5R16471   4.582  -0.161  10.597  1.0492 -1.8730 -0.5229
  149SAPE   C2616472   4.622  -0.070  10.410  0.0196  0.5378 -0.0404
  149SAPE   H6R16473   4.520  -0.091  10.372 -0.4049  2.2398  0.0435
  149SAPE   C2716474   4.717  -0.014  10.314 -0.4669 -0.1283 -0.8917
  149SAPE   H7R16475   4.719  -0.082  10.226  0.8873  0.3410 -1.2462
  149SAPE   H7S16476   4.820  -0.019  10.355 -0.7747 -0.1376 -0.0981
  149SAPE   C2816477   4.699   0.135  10.283 -0.5288  0.4641 -0.5058
  149SAPE   H8R16478   4.720   0.208  10.363  0.8566  0.2427 -0.6385
  149SAPE   C2916479   4.651   0.190  10.177  0.7424  0.8199  0.0282
  149SAPE   H9R16480   4.642   0.299  10.167  2.2403  0.8637 -1.3220
  149SAPE  C21016481   4.596   0.108  10.059  0.1627 -0.3013  0.3413
  149SAPE  H10R16482   4.496   0.148  10.035 -0.5282 -1.4730  1.1245
  149SAPE  H10S16483   4.560   0.007  10.089 -0.2602 -0.1517  0.3463
  149SAPE  C21116484   4.690   0.096   9.936 -1.2132 -0.0546  0.2734
  149SAPE  H11R16485   4.796   0.102   9.967 -1.5887 -0.8550  1.8312
  149SAPE  C21216486   4.659   0.101   9.807 -0.7074  0.3315 -0.4066
  149SAPE  H12R16487   4.738   0.094   9.731 -2.3551  1.1536 -2.2891
  149SAPE  C21316488   4.523   0.105   9.742  0.6165 -0.3811 -0.0428
  149SAPE  H13R16489   4.444   0.134   9.814  1.5899  1.6584  0.2932
  149SAPE  H13S16490   4.507   0.002   9.704  1.1217 -0.6091  0.3473
  149SAPE  C21416491   4.515   0.212   9.640 -0.0574 -0.5145  0.4765
  149SAPE  H14R16492   4.547   0.312   9.672  0.0584 -0.3622 -0.1133
  149SAPE  C21516493   4.484   0.197   9.508 -0.1658 -1.0883  0.3465
  149SAPE  H15R16494   4.492   0.284   9.441  0.8130 -1.1979  0.3006
  149SAPE  C21616495   4.465   0.063   9.444  0.3885  0.7909  0.1929
  149SAPE  H16R16496   4.398   0.074   9.355  2.9908  0.8704 -1.8885
  149SAPE  H16S16497   4.407   0.004   9.518 -0.5239 -0.3176 -1.3427
  149SAPE  C21716498   4.584  -0.019   9.393 -0.3689  0.2150  0.0011
  149SAPE  H17R16499   4.556  -0.124   9.367 -3.2838  1.2157 -1.3610
  149SAPE  H17S16500   4.668  -0.026   9.465  0.7347  0.0879 -1.2628
  149SAPE  C21816501   4.640   0.028   9.261  0.5767  0.9654 -0.1331
  149SAPE  H18R16502   4.729  -0.032   9.231 -1.3933 -0.6310 -3.3943
  149SAPE  H18S16503   4.656   0.137   9.271 -0.5087  1.0585  0.7129
  149SAPE  C21916504   4.540  -0.000   9.152 -0.5215 -0.4986  0.7121
  149SAPE  H19R16505   4.443   0.050   9.172  0.5529  1.0961  2.1460
  149SAPE  H19S16506   4.524  -0.110   9.155 -2.3358 -0.2408  1.9757
  149SAPE  C22016507   4.597   0.047   9.018  0.2251 -0.4638 -0.4430
  149SAPE  H20R16508   4.707   0.050   9.028  0.0947 -1.2400  1.6157
  149SAPE  H20S16509   4.577   0.155   8.999  1.8730  0.0737  0.6761
  149SAPE  H20T16510   4.562  -0.012   8.931  1.5357  0.3410 -1.5514
  149SAPE   C3316511   5.170   0.015  10.339 -0.0123 -0.0163 -0.2818
  149SAPE   H3X16512   5.068   0.015  10.382  0.7251  0.6229  1.6006
  149SAPE   H3Y16513   5.205  -0.087  10.312  0.8297  0.0595  0.4518
  149SAPE   C3416514   5.163   0.091  10.203  1.1193  0.7147  0.5346
  149SAPE   H4X16515   5.267   0.122  10.178  2.6423 -2.4403  2.2332
  149SAPE   H4Y16516   5.106   0.182  10.230  0.7457  0.2660  1.2931
  149SAPE   C3516517   5.088   0.006  10.101  0.1460  0.7911 -0.5047
  149SAPE   H5X16518   4.981  -0.011  10.127 -0.2556  0.5694 -2.1930
  149SAPE   H5Y16519   5.125  -0.099  10.095 -1.3528  0.2530 -0.9208
  149SAPE   C3616520   5.098   0.062   9.957  0.2999 -0.5127 -0.3628
  149SAPE   H6X16521   5.203   0.091   9.936  0.9845 -0.5916  2.4649
  149SAPE   H6Y16522   5.032   0.151   9.947  2.3159  0.9851 -0.9452
  149SAPE   C3716523   5.071  -0.041   9.843 -0.2091  0.0789  0.6471
  149SAPE   H7X16524   4.982  -0.101   9.872  1.4798 -2.9758 -0.0553
  149SAPE   H7Y16525   5.161  -0.105   9.830 -1.2449 -1.9295  2.7293
  149SAPE   C3816526   5.040   0.036   9.712  0.5777 -0.2016  0.1372
  149SAPE   H8X16527   5.132   0.097   9.701  0.6346 -0.0243  1.4274
  149SAPE   H8Y16528   4.955   0.106   9.723  0.4043  0.0194 -2.1418
  149SAPE   C3916529   5.024  -0.058   9.594 -0.0003  0.0337 -0.6269
  149SAPE   H9X16530   4.938  -0.124   9.614 -0.0941  0.2622 -0.2500
  149SAPE   H9Y16531   5.124  -0.107   9.586  0.6995  0.9042  1.7376
  149SAPE  C31016532   5.002   0.012   9.459  0.3629 -0.1435 -0.2825
  149SAPE  H10X16533   5.080   0.086   9.434  0.3557  0.6906  1.9445
  149SAPE  H10Y16534   4.907   0.070   9.449  1.2788  1.3291 -0.6908
  149SAPE  C31116535   4.990  -0.094   9.346 -0.4040 -0.5586  0.6257
  149SAPE  H11X16536   4.894  -0.148   9.356 -0.2197 -0.6375  2.2533
  149SAPE  H11Y16537   5.071  -0.169   9.356 -0.0507 -0.2794 -0.0752
  149SAPE  C31216538   5.005  -0.031   9.205  0.0493  0.8155  0.5076
  149SAPE  H12X16539   5.076   0.054   9.206 -0.1474  0.9781  0.9813
  149SAPE  H12Y16540   4.903   0.005   9.182  0.0337  0.8672  0.6546
  149SAPE  C31316541   5.056  -0.128   9.099 -0.0636  1.0023 -0.8323
  149SAPE  H13X16542   5.164  -0.155   9.106  0.2891  1.6231 -3.1376
  149SAPE  H13Y16543   5.063  -0.074   9.003  1.0681 -0.5299 -1.6555
  149SAPE  C31416544   4.971  -0.259   9.095  0.4173 -0.7841 -0.1320
  149SAPE  H14X16545   4.867  -0.222   9.081  0.6526 -0.7614 -2.1185
  149SAPE  H14Y16546   4.980  -0.333   9.178  2.6672 -0.3931  0.0414
  149SAPE  C31516547   5.025  -0.339   8.985  1.0465  0.5926  0.4013
  149SAPE  H15X16548   5.062  -0.272   8.904  0.0980  0.5357 -0.0931
  149SAPE  H15Y16549   4.947  -0.393   8.926  0.8913  2.6949 -1.4720
  149SAPE  C31616550   5.133  -0.438   9.033  0.0541  0.4643  0.4981
  149SAPE  H16X16551   5.096  -0.502   9.117 -0.9441 -0.0002 -0.2735
  149SAPE  H16Y16552   5.217  -0.375   9.069  1.3493 -1.0045  0.1292
  149SAPE  C31716553   5.210  -0.515   8.925  0.3202  0.0728  0.2032
  149SAPE  H17X16554   5.128  -0.556   8.862  1.7740 -0.4451 -1.4259
  149SAPE  H17Y16555   5.250  -0.611   8.965 -2.1220 -0.5392  1.3619
  149SAPE  C31816556   5.312  -0.432   8.850  0.1751  0.2866 -0.5365
  149SAPE  H18X16557   5.357  -0.502   8.776 -0.9030 -2.1599  0.9809
  149SAPE  H18Y16558   5.393  -0.402   8.920  0.4519  0.1441 -0.7932
  149SAPE  H18Z16559   5.268  -0.342   8.802 -0.7282 -0.0642 -0.3841
  150SAPE     N16560   0.228   6.508  11.059 -0.2053  0.3147 -0.3114
  150SAPE   HN116561   0.133   6.519  11.019 -0.1318 -1.6532 -1.1685
  150SAPE   HN216562   0.273   6.441  10.992 -3.4553 -2.7636  0.3031
  150SAPE   HN316563   0.220   6.443  11.140  2.8923 -0.4250 -0.4592
  150SAPE   C1216564   0.320   6.622  11.079 -0.3477 -0.2009  0.0275
  150SAPE  H12A16565   0.414   6.592  11.130 -0.0538 -0.1806 -0.4885
  150SAPE  H12B16566   0.268   6.694  11.146 -0.8911 -0.8662  0.3282
  150SAPE   C1116567   0.355   6.693  10.948 -0.1092  0.1500 -0.3383
  150SAPE  H11A16568   0.412   6.785  10.969 -1.4337  0.9790 -0.2778
  150SAPE  H11B16569   0.265   6.735  10.899  0.2377  0.0141 -1.1164
  150SAPE     P16570   0.547   6.637  10.786  0.0507 -0.7690  0.1917
  150SAPE   O1316571   0.521   6.749  10.692  0.1726 -0.1746  0.1024
  150SAPE   O1416572   0.649   6.652  10.891  0.3689  0.4735  0.6126
  150SAPE   O1216573   0.415   6.593  10.863  0.1711 -0.0201 -0.3550
  150SAPE   O1116574   0.590   6.511  10.701  0.1548 -0.0011 -0.0077
  150SAPE    C116575   0.582   6.372  10.731  0.8815  0.0064  0.3117
  150SAPE    HA16576   0.684   6.336  10.754  0.9561 -1.0014 -1.4152
  150SAPE    HB16577   0.518   6.364  10.822  0.9723 -1.6996  0.2682
  150SAPE    C216578   0.508   6.289  10.624  0.5194  0.4648  0.1185
  150SAPE    HS16579   0.497   6.180  10.644 -2.5428  0.2116 -2.1942
  150SAPE   O2116580   0.571   6.309  10.493 -0.8429 -0.7790  0.2581
  150SAPE   C2116581   0.682   6.240  10.477 -0.4487  0.4288  0.0923
  150SAPE   O2216582   0.734   6.173  10.565 -0.5567  0.1226  0.0081
  150SAPE   C2216583   0.742   6.261  10.338  0.1167 -0.5320 -0.5730
  150SAPE   H2R16584   0.661   6.242  10.264  0.4070 -0.8822 -0.8068
  150SAPE   H2S16585   0.777   6.365  10.324  0.8168 -0.7007 -0.1276
  150SAPE    C316586   0.367   6.346  10.611  0.0972  0.6113 -0.1270
  150SAPE    HX16587   0.370   6.437  10.548 -2.8148  2.3441  1.9660
  150SAPE    HY16588   0.331   6.377  10.711 -0.8248  1.5139 -0.7221
  150SAPE   O3116589   0.277   6.252  10.550  0.0892  0.0558 -0.6182
  150SAPE   C3116590   0.147   6.280  10.542  0.7824 -0.3831  0.4444
  150SAPE   O3216591   0.094   6.380  10.575  0.0856  0.0384 -0.5639
  150SAPE   C3216592   0.075   6.165  10.481  0.2019  0.3862  0.3327
  150SAPE   H2X16593  -0.033   6.177  10.499  0.0130  4.4313 -2.1373
  150SAPE   H2Y16594   0.095   6.069  10.533  1.1750  0.5664  0.3112
  150SAPE   C2316595   0.851   6.154  10.296 -0.1198 -0.1029  0.0905
  150SAPE   H3R16596   0.879   6.085  10.378  4.4590 -0.5753 -1.5571
  150SAPE   H3S16597   0.941   6.213  10.269  0.7151 -0.3401  2.2289
  150SAPE   C2416598   0.794   6.069  10.179  0.5742 -1.5885  0.1226
  150SAPE   H4R16599   0.689   6.034  10.191  0.6977 -1.6968  0.9627
  150SAPE   H4S16600   0.856   5.976  10.178  2.9590 -0.1424 -2.6165
  150SAPE   C2516601   0.813   6.150  10.054 -0.4694  0.3560  0.0968
  150SAPE   H5R16602   0.900   6.217  10.050 -0.0939 -0.1480 -0.3244
  150SAPE   C2616603   0.726   6.136   9.944 -0.1491 -0.6729 -0.2294
  150SAPE   H6R16604   0.729   6.210   9.863  1.4572  1.8766  1.9706
  150SAPE   C2716605   0.607   6.043   9.933 -0.4325  0.0455 -0.5428
  150SAPE   H7R16606   0.534   6.082   9.859 -2.5953 -0.2823  1.3108
  150SAPE   H7S16607   0.563   6.046  10.035  0.9066 -1.6255  0.1382
  150SAPE   C2816608   0.649   5.897   9.912 -0.3097 -0.5873 -0.3542
  150SAPE   H8R16609   0.755   5.869   9.902 -0.4568 -1.9691  1.4466
  150SAPE   C2916610   0.565   5.811   9.860  0.3808  0.0774  0.1927
  150SAPE   H9R16611   0.591   5.705   9.850  0.5247 -0.0820  2.0046
  150SAPE  C21016612   0.423   5.844   9.838 -0.6117 -0.1247 -0.1935
  150SAPE  H10R16613   0.410   5.895   9.740 -1.0303 -0.3033 -0.2308
  150SAPE  H10S16614   0.382   5.914   9.914  1.1283  0.1390  0.5576
  150SAPE  C21116615   0.344   5.712   9.857  0.5443 -0.6777 -0.4258
  150SAPE  H11R16616   0.345   5.690   9.965  1.3782  2.2676  0.2612
  150SAPE  C21216617   0.262   5.649   9.771  0.8938  0.0986  0.0907
  150SAPE  H12R16618   0.204   5.563   9.808 -1.6121  1.7709  0.2526
  150SAPE  C21316619   0.243   5.708   9.637 -0.6045  0.5271  0.7075
  150SAPE  H13R16620   0.230   5.818   9.633  0.7602  0.6778 -1.1184
  150SAPE  H13S16621   0.154   5.668   9.584  0.0905 -0.8055  0.5034
  150SAPE  C21416622   0.360   5.674   9.544  0.6748  0.2096  0.1568
  150SAPE  H14R16623   0.437   5.612   9.591  0.0358 -0.2296  0.6462
  150SAPE  C21516624   0.366   5.682   9.416 -0.3648  0.0774  0.7559
  150SAPE  H15R16625   0.461   5.652   9.368 -0.1469 -0.1510  1.3309
  150SAPE  C21616626   0.267   5.745   9.326 -0.4830 -0.3234  0.3517
  150SAPE  H16R16627   0.183   5.780   9.389  0.0111 -0.4957  1.1152
  150SAPE  H16S16628   0.230   5.689   9.238  0.1262  0.2978 -0.3212
  150SAPE  C21716629   0.340   5.877   9.265  0.4820  0.2438  0.1481
  150SAPE  H17R16630   0.365   5.938   9.355  1.2752 -2.0766  1.6232
  150SAPE  H17S16631   0.273   5.941   9.205 -0.7690  0.0617  1.2807
  150SAPE  C21816632   0.472   5.862   9.188  0.2774  0.4121 -1.0189
  150SAPE  H18R16633   0.544   5.813   9.257 -2.1560 -1.1193  0.5516
  150SAPE  H18S16634   0.506   5.956   9.139 -0.2850  0.2611 -1.7154
  150SAPE  C21916635   0.457   5.769   9.069 -0.9594  0.4356 -0.0121
  150SAPE  H19R16636   0.372   5.803   9.006 -2.4609 -3.0647 -0.1028
  150SAPE  H19S16637   0.435   5.668   9.109  1.6369 -1.0749 -1.9976
  150SAPE  C22016638   0.587   5.772   8.990 -0.0283 -0.3122  0.4939
  150SAPE  H20R16639   0.607   5.878   8.963 -0.9257 -0.5564 -1.2168
  150SAPE  H20S16640   0.558   5.713   8.901  0.5825 -2.8646  1.8800
  150SAPE  H20T16641   0.676   5.735   9.045 -0.1199  2.6060  2.8825
  150SAPE   C3316642   0.110   6.153  10.325  0.7456 -0.5143  0.1616
  150SAPE   H3X16643   0.221   6.153  10.312  0.5405  1.2621 -2.2496
  150SAPE   H3Y16644   0.074   6.239  10.265  0.2811 -0.4021  0.6015
  150SAPE   C3416645   0.046   6.022  10.270 -0.1287  0.2562  0.2221
  150SAPE   H4X16646  -0.064   6.036  10.260 -0.1691 -0.5565 -0.5608
  150SAPE   H4Y16647   0.064   5.937  10.339  1.3157 -0.4630 -1.0093
  150SAPE   C3516648   0.109   5.977  10.132  0.2490  0.3647 -0.0744
  150SAPE   H5X16649   0.093   5.870  10.107  0.4719  0.7985 -2.2594
  150SAPE   H5Y16650   0.216   6.003  10.116  0.1679 -0.1289 -1.5605
  150SAPE   C3616651   0.039   6.045  10.012 -0.0529  0.2649 -0.2329
  150SAPE   H6X16652   0.051   6.152  10.039  0.7602 -0.4321  2.4792
  150SAPE   H6Y16653  -0.071   6.033  10.025  0.3038 -0.9594  2.1061
  150SAPE   C3716654   0.082   6.005   9.866  0.5504 -0.1311 -0.1288
  150SAPE   H7X16655   0.103   5.896   9.860  1.0460  0.0072 -1.1281
  150SAPE   H7Y16656   0.179   6.057   9.852  1.5141 -2.0725 -1.0257
  150SAPE   C3816657  -0.026   6.054   9.768  0.0198 -0.5566 -0.6150
  150SAPE   H8X16658  -0.050   6.158   9.797  0.5016 -0.6579  0.1712
  150SAPE   H8Y16659  -0.123   6.000   9.776  0.4003 -1.3938 -1.4567
  150SAPE   C3916660   0.029   6.052   9.631  0.5660  0.3787  0.2785
  150SAPE   H9X16661   0.025   5.944   9.604 -2.1793  0.7569 -1.1928
  150SAPE   H9Y16662   0.134   6.089   9.628  1.5384 -2.1831 -0.3269
  150SAPE  C31016663  -0.051   6.123   9.519 -0.3056  0.0693  0.2450
  150SAPE  H10X16664  -0.076   6.227   9.548 -1.2592 -0.1302  0.1711
  150SAPE  H10Y16665  -0.152   6.076   9.528 -0.7557  0.9321 -0.1920
  150SAPE  C31116666   0.020   6.114   9.380 -0.6092  0.6117  0.0281
  150SAPE  H11X16667   0.030   6.011   9.338  2.0094  1.0305 -0.5658
  150SAPE  H11Y16668   0.129   6.138   9.383 -0.0714 -1.3154 -1.7582
  150SAPE  C31216669  -0.042   6.194   9.267  0.4738  0.9534  0.5295
  150SAPE  H12X16670  -0.040   6.300   9.303  0.8279  1.0596  0.2012
  150SAPE  H12Y16671  -0.149   6.175   9.243  1.2216 -3.6390 -0.0096
  150SAPE  C31316672   0.049   6.190   9.137  0.8775  0.5522 -0.6658
  150SAPE  H13X16673   0.033   6.090   9.091  0.6403 -0.0849  0.7586
  150SAPE  H13Y16674   0.157   6.191   9.164  1.2306  0.1645 -1.9751
  150SAPE  C31416675   0.039   6.292   9.028  0.0846  0.0088  0.1296
  150SAPE  H14X16676   0.085   6.248   8.937 -0.9705  0.8047 -0.8197
  150SAPE  H14Y16677   0.101   6.378   9.061 -3.2227  1.7561  2.3227
  150SAPE  C31516678  -0.100   6.347   9.007  0.8561 -0.2518 -0.4900
  150SAPE  H15X16679  -0.134   6.386   9.106  0.0071  0.3883 -1.0107
  150SAPE  H15Y16680  -0.168   6.263   8.981 -2.0879  2.3494 -1.8136
  150SAPE  C31616681  -0.113   6.453   8.895  0.0082  0.0071 -0.4315
  150SAPE  H16X16682  -0.064   6.415   8.803 -0.8810  4.5318 -3.1056
  150SAPE  H16Y16683  -0.054   6.540   8.932 -0.0431 -0.0836 -0.1377
  150SAPE  C31716684  -0.261   6.487   8.855  0.2531  0.5834  0.7306
  150SAPE  H17X16685  -0.319   6.522   8.944  0.0654  1.0015  0.4470
  150SAPE  H17Y16686  -0.318   6.400   8.818  1.4783 -0.1563  0.5554
  150SAPE  C31816687  -0.262   6.592   8.740 -0.4945  0.4467 -0.3766
  150SAPE  H18X16688  -0.206   6.681   8.777  1.4370 -1.7894  2.6324
  150SAPE  H18Y16689  -0.368   6.614   8.717 -1.4482 -1.4671  1.7574
  150SAPE  H18Z16690  -0.211   6.556   8.648  2.6907  0.4232  1.2547
  151SAPE     N16691   3.817   1.751  10.988 -0.1840  0.0325 -0.0229
  151SAPE   HN116692   3.757   1.780  10.908  0.9582  0.3006 -0.8008
  151SAPE   HN216693   3.761   1.739  11.075  0.7051  1.3100  0.7545
  151SAPE   HN316694   3.882   1.832  10.996 -1.9294  1.8346 -2.4874
  151SAPE   C1216695   3.883   1.627  10.963  0.0792 -0.3594 -0.0457
  151SAPE  H12A16696   3.817   1.538  10.958 -1.2485  0.5741  0.2329
  151SAPE  H12B16697   3.939   1.611  11.058 -0.7640  0.2214  0.5639
  151SAPE   C1116698   3.996   1.638  10.853 -0.1425  0.2780 -0.2081
  151SAPE  H11A16699   3.964   1.649  10.747 -0.5857  3.0882  0.1389
  151SAPE  H11B16700   4.039   1.537  10.870  0.0355  0.7283  2.3630
  151SAPE     P16701   4.243   1.722  10.853  0.0064 -0.2372  0.1832
  151SAPE   O1316702   4.328   1.809  10.938 -0.0295 -0.1484  0.2084
  151SAPE   O1416703   4.275   1.579  10.864  0.3415  0.6513 -0.2414
  151SAPE   O1216704   4.089   1.737  10.890  0.0515 -0.0301  0.2921
  151SAPE   O1116705   4.261   1.755  10.703 -0.2909 -0.2482  0.1568
  151SAPE    C116706   4.239   1.885  10.661 -0.2424 -0.9004 -0.0764
  151SAPE    HA16707   4.273   1.956  10.739 -2.6304 -0.7879  0.9625
  151SAPE    HB16708   4.300   1.905  10.571  1.0049 -2.1598  0.4554
  151SAPE    C216709   4.087   1.923  10.635 -0.0924 -0.1378 -0.0642
  151SAPE    HS16710   4.031   1.883  10.722 -1.5869  0.8797 -0.5316
  151SAPE   O2116711   4.049   1.863  10.516  0.2824  0.1226  0.4329
  151SAPE   C2116712   3.917   1.859  10.492  0.5845  0.0832 -0.1402
  151SAPE   O2216713   3.823   1.896  10.562  0.5578  0.2374  0.5037
  151SAPE   C2216714   3.894   1.802  10.352 -0.9387 -0.0272 -0.1753
  151SAPE   H2R16715   3.982   1.824  10.287 -0.9691 -1.4780 -0.7366
  151SAPE   H2S16716   3.900   1.694  10.377 -0.8460 -0.1387 -0.6630
  151SAPE    C316717   4.061   2.075  10.642  0.3781 -0.2343 -0.0180
  151SAPE    HX16718   4.075   2.106  10.748 -0.5418  0.6873 -0.1548
  151SAPE    HY16719   3.952   2.082  10.620  0.6106  1.2792 -0.7744
  151SAPE   O3116720   4.152   2.143  10.557  0.5359 -0.1161  0.1391
  151SAPE   C3116721   4.112   2.166  10.430 -0.6359  0.0997  0.0137
  151SAPE   O3216722   3.997   2.166  10.395 -0.1544  0.0837 -0.0663
  151SAPE   C3216723   4.238   2.196  10.345 -0.2714  0.1411  0.2916
  151SAPE   H2X16724   4.329   2.164  10.400 -1.5013  0.5407  2.6870
  151SAPE   H2Y16725   4.232   2.307  10.336 -0.5264  0.1302  0.3411
  151SAPE   C2316726   3.765   1.836  10.281  0.4802 -0.0688  0.2090
  151SAPE   H3R16727   3.772   1.937  10.234  0.9396 -0.8739 -1.5599
  151SAPE   H3S16728   3.678   1.822  10.348 -0.2812 -0.5258 -0.8575
  151SAPE   C2416729   3.748   1.738  10.164  0.5787 -0.4426  0.9519
  151SAPE   H4R16730   3.668   1.780  10.098  1.7379  0.8786  0.3368
  151SAPE   H4S16731   3.699   1.645  10.199  0.5095 -0.9121 -0.3128
  151SAPE   C2516732   3.878   1.690  10.091 -1.0083  0.3042 -0.1960
  151SAPE   H5R16733   3.929   1.606  10.140  1.1494  1.2886 -0.6523
  151SAPE   C2616734   3.932   1.741   9.978 -0.1995  0.4221  0.1640
  151SAPE   H6R16735   4.025   1.692   9.946  0.4919  0.9584  1.3213
  151SAPE   C2716736   3.869   1.855   9.898  0.1936  0.1204  0.2464
  151SAPE   H7R16737   3.951   1.869   9.823  1.2174 -1.1334  1.0754
  151SAPE   H7S16738   3.856   1.944   9.963 -1.6507  0.3426 -0.3660
  151SAPE   C2816739   3.734   1.826   9.837 -0.2245 -0.2085  1.4232
  151SAPE   H8R16740   3.640   1.851   9.887 -2.0351 -1.4112 -1.1826
  151SAPE   C2916741   3.722   1.753   9.722 -0.1005  1.2041 -0.9108
  151SAPE   H9R16742   3.619   1.732   9.689 -0.5728  1.6173  0.2641
  151SAPE  C21016743   3.820   1.686   9.634  0.6019 -0.7294  0.2100
  151SAPE  H10R16744   3.916   1.741   9.646  0.4313 -0.0695 -1.2564
  151SAPE  H10S16745   3.784   1.705   9.530  1.3088  2.0900  0.3991
  151SAPE  C21116746   3.841   1.540   9.657  0.8142 -0.2768  0.1126
  151SAPE  H11R16747   3.822   1.495   9.756 -1.4046  0.3093  0.0109
  151SAPE  C21216748   3.850   1.440   9.565 -0.2047 -0.3005 -0.9088
  151SAPE  H12R16749   3.877   1.336   9.591  1.3638  0.4672  0.7848
  151SAPE  C21316750   3.843   1.461   9.415  0.0456 -0.0210 -0.0662
  151SAPE  H13R16751   3.937   1.422   9.369 -1.3178 -1.4680 -1.7385
  151SAPE  H13S16752   3.851   1.568   9.387 -0.5154  0.5086  1.6843
  151SAPE  C21416753   3.736   1.379   9.348  1.4289 -0.2714  0.3774
  151SAPE  H14R16754   3.697   1.296   9.409 -0.9484 -1.0063 -1.9864
  151SAPE  C21516755   3.687   1.402   9.225 -0.0883  0.1053 -0.2645
  151SAPE  H15R16756   3.597   1.346   9.196 -0.8841  1.3866 -0.3736
  151SAPE  C21616757   3.722   1.496   9.116 -0.1275 -0.1723 -0.5203
  151SAPE  H16R16758   3.729   1.597   9.164 -1.6114 -1.1228  1.8967
  151SAPE  H16S16759   3.643   1.501   9.038 -0.8127  0.9265  0.2080
  151SAPE  C21716760   3.857   1.449   9.051  0.0336  0.0662  0.6292
  151SAPE  H17R16761   3.850   1.352   8.996  0.5853  0.8527 -0.8791
  151SAPE  H17S16762   3.935   1.449   9.130  0.9379 -2.8240 -0.1494
  151SAPE  C21816763   3.902   1.548   8.952  0.3271 -0.0099  0.4720
  151SAPE  H18R16764   3.915   1.648   8.998  0.2606  0.7357 -1.0563
  151SAPE  H18S16765   3.818   1.557   8.880 -1.5818 -1.9024  2.3285
  151SAPE  C21916766   4.023   1.508   8.863 -0.4799 -0.4474  0.2741
  151SAPE  H19R16767   4.119   1.494   8.918  1.1022  1.2859 -1.8512
  151SAPE  H19S16768   4.047   1.594   8.797 -1.1211  0.5270  1.2736
  151SAPE  C22016769   4.000   1.388   8.768 -1.3019 -0.4606 -0.3012
  151SAPE  H20R16770   3.911   1.407   8.704 -2.2931  0.1924  1.1949
  151SAPE  H20S16771   3.980   1.294   8.824  0.2839 -0.7943 -0.2513
  151SAPE  H20T16772   4.089   1.380   8.703 -1.6589  0.8761 -1.0029
  151SAPE   C3316773   4.234   2.141  10.199  0.5113  0.8106 -0.7532
  151SAPE   H3X16774   4.133   2.168  10.161  0.0605  2.2537  1.3172
  151SAPE   H3Y16775   4.251   2.032  10.204 -0.1684  0.7630  2.7773
  151SAPE   C3416776   4.329   2.223  10.112  0.0545  0.1404 -0.2774
  151SAPE   H4X16777   4.431   2.231  10.154  0.6539  0.2999 -1.6847
  151SAPE   H4Y16778   4.287   2.326  10.110  1.0854  0.6045  0.8854
  151SAPE   C3516779   4.343   2.167   9.975 -0.3112  0.1906  0.3830
  151SAPE   H5X16780   4.251   2.187   9.917 -0.4401 -1.2887  0.0397
  151SAPE   H5Y16781   4.359   2.057   9.974  1.7603  0.4245  1.0824
  151SAPE   C3616782   4.460   2.225   9.886 -0.0060  0.0635 -0.3962
  151SAPE   H6X16783   4.475   2.163   9.795  0.2371 -1.6210  0.7466
  151SAPE   H6Y16784   4.557   2.234   9.939  1.1669  2.1889 -2.6647
  151SAPE   C3716785   4.433   2.367   9.834 -0.4772  0.8772 -0.6965
  151SAPE   H7X16786   4.416   2.425   9.927  2.3402  0.1145  0.3928
  151SAPE   H7Y16787   4.342   2.384   9.773  1.3487 -1.7151 -4.5707
  151SAPE   C3816788   4.547   2.422   9.755 -0.3750  0.9888  0.4553
  151SAPE   H8X16789   4.641   2.389   9.803  0.0786  1.3177 -0.2070
  151SAPE   H8Y16790   4.533   2.532   9.756 -1.9815  0.8314 -0.2836
  151SAPE   C3916791   4.545   2.376   9.607  0.1998 -0.4979  0.4768
  151SAPE   H9X16792   4.442   2.382   9.564  0.9088 -1.3412 -1.4621
  151SAPE   H9Y16793   4.553   2.266   9.620 -0.5547 -1.4010 -4.5913
  151SAPE  C31016794   4.652   2.425   9.511  0.1193  0.6760 -0.0238
  151SAPE  H10X16795   4.757   2.419   9.546  0.0912  0.4958  0.0330
  151SAPE  H10Y16796   4.622   2.530   9.489  0.0522  0.4747 -0.9538
  151SAPE  C31116797   4.657   2.355   9.375  0.2915 -0.0155  0.4295
  151SAPE  H11X16798   4.554   2.341   9.335  0.3769 -1.1657  0.5611
  151SAPE  H11Y16799   4.706   2.256   9.390  0.1376 -0.5406 -2.1171
  151SAPE  C31216800   4.749   2.432   9.277  0.5790  0.7657 -0.2078
  151SAPE  H12X16801   4.853   2.412   9.307  1.4364  3.1081 -1.3588
  151SAPE  H12Y16802   4.745   2.542   9.294 -1.1086  1.0991 -2.2214
  151SAPE  C31316803   4.725   2.414   9.120  0.8312 -0.0542 -0.1334
  151SAPE  H13X16804   4.617   2.439   9.107 -0.1287 -3.9902 -1.2160
  151SAPE  H13Y16805   4.724   2.306   9.094 -1.1548 -0.8433  2.6631
  151SAPE  C31416806   4.807   2.505   9.033  0.3618 -0.1164 -0.5477
  151SAPE  H14X16807   4.917   2.507   9.053  0.0340  0.8081  1.4417
  151SAPE  H14Y16808   4.773   2.606   9.065  0.5086 -0.4821  0.8512
  151SAPE  C31516809   4.779   2.483   8.883 -0.7021 -0.1984  0.1194
  151SAPE  H15X16810   4.827   2.567   8.830  0.0942 -1.7284 -1.6754
  151SAPE  H15Y16811   4.668   2.482   8.872 -0.5421  1.7049 -2.2264
  151SAPE  C31616812   4.829   2.348   8.824  0.1946 -0.2022  0.1569
  151SAPE  H16X16813   4.773   2.264   8.871 -0.1893  0.0076  0.0784
  151SAPE  H16Y16814   4.938   2.336   8.838 -0.0056 -3.3424 -0.3893
  151SAPE  C31716815   4.792   2.330   8.674  0.4439 -0.2101  0.8613
  151SAPE  H17X16816   4.684   2.350   8.661  0.6652  0.2723 -0.4238
  151SAPE  H17Y16817   4.809   2.221   8.658  0.2151 -0.4180  1.9589
  151SAPE  C31816818   4.863   2.422   8.572 -0.6051 -0.0115  0.2728
  151SAPE  H18X16819   4.810   2.519   8.573 -2.4551 -0.9797  1.0477
  151SAPE  H18Y16820   4.850   2.380   8.470  0.9428 -0.5368  0.2509
  151SAPE  H18Z16821   4.969   2.424   8.605 -0.7997 -2.3657  1.2954
  152SAPE     N16822   5.867   2.391  10.864 -0.2034 -0.1813  0.2994
  152SAPE   HN116823   5.785   2.450  10.842  0.0434 -0.1881 -0.6891
  152SAPE   HN216824   5.931   2.450  10.921 -1.4595  0.7183  0.8090
  152SAPE   HN316825   5.911   2.359  10.775  1.1225  0.2190  0.7811
  152SAPE   C1216826   5.825   2.280  10.950 -0.2114  0.5558 -0.4337
  152SAPE  H12A16827   5.789   2.329  11.044  2.0131 -0.0753  0.8335
  152SAPE  H12B16828   5.920   2.228  10.972 -0.1877  1.0295  0.6943
  152SAPE   C1116829   5.727   2.188  10.881  0.4879 -0.6710 -0.4134
  152SAPE  H11A16830   5.643   2.258  10.863  0.7287 -0.3180 -0.1745
  152SAPE  H11B16831   5.686   2.115  10.954 -2.3945  1.0330 -0.1748
  152SAPE     P16832   5.875   2.029  10.722 -0.2822  0.1399 -0.3427
  152SAPE   O1316833   5.944   2.067  10.596  0.2764 -0.0205  0.1184
  152SAPE   O1416834   5.970   2.000  10.836 -0.1872  0.0484  0.4467
  152SAPE   O1216835   5.767   2.136  10.752  0.5994 -0.2128  0.3774
  152SAPE   O1116836   5.800   1.893  10.698 -0.4914  0.2887  0.7917
  152SAPE    C116837   5.664   1.861  10.727 -0.5491 -0.0298 -0.0062
  152SAPE    HA16838   5.656   1.811  10.826  0.8353  2.1186  1.2402
  152SAPE    HB16839   5.605   1.955  10.735 -4.3836 -2.2919  1.1823
  152SAPE    C216840   5.585   1.769  10.631 -0.1828  0.0023  0.5800
  152SAPE    HS16841   5.627   1.666  10.643 -0.8362 -0.1043  2.3065
  152SAPE   O2116842   5.599   1.817  10.495 -0.3248  0.6356  0.1359
  152SAPE   C2116843   5.711   1.778  10.427  0.5235  0.1435 -0.0861
  152SAPE   O2216844   5.793   1.697  10.466  0.2751  0.3348  1.1577
  152SAPE   C2216845   5.699   1.852  10.301  0.3330  0.8027  0.8000
  152SAPE   H2R16846   5.642   1.947  10.309 -0.0155  0.5992  0.7763
  152SAPE   H2S16847   5.797   1.874  10.255  0.1916 -0.2038 -0.0210
  152SAPE    C316848   5.436   1.756  10.668  0.0816  0.6368 -0.2019
  152SAPE    HX16849   5.392   1.856  10.649 -0.0336  0.9777  1.7219
  152SAPE    HY16850   5.420   1.749  10.778  2.1921  1.0953  0.1761
  152SAPE   O3116851   5.369   1.648  10.596 -0.3634  0.0622  0.1005
  152SAPE   C3116852   5.400   1.518  10.622  0.5218 -0.0914 -0.0309
  152SAPE   O3216853   5.476   1.480  10.708 -0.6861 -0.0711  0.0241
  152SAPE   C3216854   5.319   1.425  10.527  0.3509  0.2752  0.1671
  152SAPE   H2X16855   5.250   1.366  10.591 -0.4903  2.5323  1.4843
  152SAPE   H2Y16856   5.394   1.367  10.470  0.1949  1.1855 -0.9891
  152SAPE   C2316857   5.627   1.764  10.187  0.3707  0.1150 -0.7442
  152SAPE   H3R16858   5.534   1.737  10.242 -0.6127  2.6480 -1.0052
  152SAPE   H3S16859   5.692   1.677  10.166  1.5140  0.9597 -0.7602
  152SAPE   C2416860   5.599   1.842  10.054  0.6148  0.1075  0.4457
  152SAPE   H4R16861   5.686   1.878   9.996  1.5663 -2.3110  0.2641
  152SAPE   H4S16862   5.533   1.931  10.066 -0.7589 -0.6986 -0.7607
  152SAPE   C2516863   5.519   1.754   9.964 -0.1410 -0.1632 -0.2566
  152SAPE   H5R16864   5.414   1.748   9.996 -0.2903  2.2900 -0.0629
  152SAPE   C2616865   5.559   1.692   9.850  0.9147  0.3739 -0.2731
  152SAPE   H6R16866   5.482   1.643   9.787  2.3555  1.5429 -3.1401
  152SAPE   C2716867   5.694   1.694   9.789  0.1211  0.1557  0.9243
  152SAPE   H7R16868   5.738   1.592   9.776  1.8375  1.0978 -1.3917
  152SAPE   H7S16869   5.770   1.738   9.857  0.2653 -1.8386  2.1317
  152SAPE   C2816870   5.694   1.765   9.654  0.1661  0.0605  0.5759
  152SAPE   H8R16871   5.705   1.875   9.654  2.6857 -0.0957 -1.2665
  152SAPE   C2916872   5.668   1.706   9.535 -0.1971  0.0444  0.1868
  152SAPE   H9R16873   5.674   1.773   9.447 -1.2525 -2.3080 -1.7868
  152SAPE  C21016874   5.640   1.561   9.509  0.5438  0.3432 -0.5461
  152SAPE  H10R16875   5.579   1.528   9.596  1.1643  2.1099  0.6190
  152SAPE  H10S16876   5.735   1.504   9.515 -0.5619 -1.5530 -0.1267
  152SAPE  C21116877   5.568   1.532   9.385 -0.0539  0.1418 -0.4599
  152SAPE  H11R16878   5.458   1.525   9.385 -0.3090  2.6067 -2.4122
  152SAPE  C21216879   5.620   1.497   9.265 -0.4339 -0.1499 -0.6393
  152SAPE  H12R16880   5.552   1.474   9.181 -0.5050  3.1136 -1.6196
  152SAPE  C21316881   5.762   1.478   9.241 -0.1211 -0.3564  0.9226
  152SAPE  H13R16882   5.803   1.401   9.309  2.2589 -1.5461 -1.6994
  152SAPE  H13S16883   5.813   1.575   9.257 -2.6505  0.8211  2.5447
  152SAPE  C21416884   5.797   1.446   9.091 -0.2445 -0.8921  0.0108
  152SAPE  H14R16885   5.838   1.344   9.084  0.6485 -0.7910  2.5433
  152SAPE  C21516886   5.793   1.520   8.977 -0.4577  0.1006  0.7655
  152SAPE  H15R16887   5.817   1.463   8.886  1.7588  0.4449  1.0817
  152SAPE  C21616888   5.748   1.661   8.962 -0.7907 -0.2211 -0.1090
  152SAPE  H16R16889   5.831   1.730   8.938 -0.7834 -0.1098  0.2242
  152SAPE  H16S16890   5.707   1.709   9.053  0.4145 -1.2103  1.0124
  152SAPE  C21716891   5.651   1.676   8.842 -0.5151 -0.2213  0.5399
  152SAPE  H17R16892   5.626   1.783   8.827  1.6722  0.4816  1.4692
  152SAPE  H17S16893   5.563   1.613   8.867 -0.6610 -0.3769 -0.3477
  152SAPE  C21816894   5.687   1.625   8.697  0.0296  0.3450  0.2635
  152SAPE  H18R16895   5.707   1.515   8.698 -0.8307  0.1437 -1.6550
  152SAPE  H18S16896   5.773   1.681   8.656 -0.9725  0.8327 -1.2385
  152SAPE  C21916897   5.569   1.644   8.601 -0.1116  0.5737  0.2925
  152SAPE  H19R16898   5.547   1.753   8.601  1.8647  1.0637  2.2939
  152SAPE  H19S16899   5.477   1.588   8.629 -1.1172  1.8078 -0.4336
  152SAPE  C22016900   5.600   1.596   8.457  0.1868 -0.1568 -0.5293
  152SAPE  H20R16901   5.508   1.607   8.396  0.1282 -0.3411 -0.4736
  152SAPE  H20S16902   5.632   1.491   8.472 -1.5265 -0.4888  1.0232
  152SAPE  H20T16903   5.682   1.650   8.405  1.3665  0.9204  2.2651
  152SAPE   C3316904   5.242   1.501  10.416  0.6141 -1.4111  0.5300
  152SAPE   H3X16905   5.312   1.560  10.352 -0.9795 -0.2428 -0.2165
  152SAPE   H3Y16906   5.167   1.572  10.458  3.7903  1.0221  2.5143
  152SAPE   C3416907   5.168   1.410  10.308  0.4046 -0.5709 -0.0347
  152SAPE   H4X16908   5.089   1.353  10.361  1.5472 -1.8554  0.3379
  152SAPE   H4Y16909   5.239   1.333  10.271  0.8851 -0.5345  0.7987
  152SAPE   C3516910   5.091   1.489  10.196  0.9083  0.9261 -0.4259
  152SAPE   H5X16911   5.164   1.540  10.130  1.3249 -1.1303 -1.6358
  152SAPE   H5Y16912   5.027   1.571  10.235 -1.5957 -0.4808 -1.3484
  152SAPE   C3616913   4.998   1.403  10.104 -0.4224 -0.3114 -0.3097
  152SAPE   H6X16914   4.936   1.339  10.171  1.2919 -0.6268  1.0682
  152SAPE   H6Y16915   5.059   1.326  10.053  0.4337 -0.1582  0.4586
  152SAPE   C3716916   4.918   1.493  10.014  0.0218  0.4868  0.3246
  152SAPE   H7X16917   4.979   1.548   9.940 -1.7663  1.2256 -0.6669
  152SAPE   H7Y16918   4.863   1.565  10.077 -0.4785  0.5113 -0.1324
  152SAPE   C3816919   4.811   1.411   9.931 -0.2655  0.3648  0.6375
  152SAPE   H8X16920   4.747   1.356  10.003  0.7753  1.2238  2.2775
  152SAPE   H8Y16921   4.874   1.341   9.872  0.5968 -0.5109  2.5122
  152SAPE   C3916922   4.728   1.500   9.838 -0.0683 -0.0136 -0.1137
  152SAPE   H9X16923   4.798   1.563   9.779 -1.2348  1.7162  0.2625
  152SAPE   H9Y16924   4.664   1.566   9.901 -2.2871 -0.1994 -2.0473
  152SAPE  C31016925   4.630   1.427   9.743 -0.6439 -0.1374 -0.1831
  152SAPE  H10X16926   4.581   1.505   9.681 -1.3592  0.3078  0.9097
  152SAPE  H10Y16927   4.546   1.382   9.800  1.3294  0.6138  3.6685
  152SAPE  C31116928   4.701   1.327   9.656 -0.1890 -0.0631 -0.0348
  152SAPE  H11X16929   4.624   1.250   9.631  0.3593 -1.1749  1.5836
  152SAPE  H11Y16930   4.779   1.268   9.708  0.1673  0.2216 -0.2432
  152SAPE  C31216931   4.764   1.387   9.531  0.1653 -0.1638 -0.1234
  152SAPE  H12X16932   4.858   1.442   9.555 -0.0225 -0.2302  0.7717
  152SAPE  H12Y16933   4.682   1.450   9.490 -2.5918 -3.6048 -0.3909
  152SAPE  C31316934   4.799   1.285   9.425 -0.5409 -0.0413 -0.4984
  152SAPE  H13X16935   4.707   1.222   9.419  0.4943 -1.9404  1.9471
  152SAPE  H13Y16936   4.881   1.214   9.448  0.2538  1.0132 -0.0202
  152SAPE  C31416937   4.851   1.344   9.298  0.6758 -0.1669 -0.2144
  152SAPE  H14X16938   4.943   1.294   9.262  1.4418  1.1109 -0.1168
  152SAPE  H14Y16939   4.879   1.452   9.308 -0.4680  0.0112  1.3381
  152SAPE  C31516940   4.746   1.338   9.183 -0.4140  0.0198  0.0574
  152SAPE  H15X16941   4.660   1.404   9.206  1.5473  2.3768  1.0902
  152SAPE  H15Y16942   4.714   1.235   9.157  0.1550 -0.6267  1.7973
  152SAPE  C31616943   4.802   1.387   9.044 -1.2401  0.3591 -0.1536
  152SAPE  H16X16944   4.875   1.316   8.998  0.1287  1.9554 -0.5505
  152SAPE  H16Y16945   4.859   1.480   9.065 -1.0761  0.3803 -0.6840
  152SAPE  C31716946   4.698   1.416   8.941 -0.2639 -0.6732 -0.5604
  152SAPE  H17X16947   4.642   1.507   8.970  0.8299  0.4694 -1.8703
  152SAPE  H17Y16948   4.630   1.331   8.924 -1.9931  1.0719 -3.0424
  152SAPE  C31816949   4.763   1.454   8.806  0.0349 -0.6774 -0.3571
  152SAPE  H18X16950   4.801   1.370   8.744  0.9529  1.8093 -3.4629
  152SAPE  H18Y16951   4.849   1.524   8.812 -2.5013  2.7000 -0.5745
  152SAPE  H18Z16952   4.690   1.502   8.738  1.0931 -0.4426 -1.3524
  153SAPE     N16953   5.219   3.361  10.556 -0.1144 -0.0510  0.1520
  153SAPE   HN116954   5.155   3.307  10.618 -0.0757  0.5326  0.7177
  153SAPE   HN216955   5.317   3.342  10.582 -0.2036  0.5794  0.9948
  153SAPE   HN316956   5.194   3.460  10.575 -0.8498 -0.6167  2.4018
  153SAPE   C1216957   5.206   3.317  10.411 -0.1590  0.1779 -0.3456
  153SAPE  H12A16958   5.283   3.372  10.353 -0.6615  0.3520 -0.8644
  153SAPE  H12B16959   5.102   3.333  10.374 -0.5108 -1.0074  0.0877
  153SAPE   C1116960   5.236   3.168  10.401  0.9237 -0.6866 -0.5183
  153SAPE  H11A16961   5.209   3.136  10.298 -0.2204  0.2949 -0.5514
  153SAPE  H11B16962   5.164   3.104  10.456 -0.1724  2.3939  1.9058
  153SAPE     P16963   5.406   3.001  10.504 -0.1083  0.4495  0.4497
  153SAPE   O1316964   5.431   3.026  10.644  0.2491  0.6343 -1.1718
  153SAPE   O1416965   5.311   2.894  10.470  0.1058  0.4227  0.1768
  153SAPE   O1216966   5.372   3.133  10.435 -0.5371 -0.1603  0.0933
  153SAPE   O1116967   5.544   2.967  10.426  0.5818 -0.3157  0.5983
  153SAPE    C116968   5.610   3.068  10.354 -0.3698 -0.5259  0.2002
  153SAPE    HA16969   5.584   3.166  10.398 -2.5456 -1.0109  0.1309
  153SAPE    HB16970   5.719   3.049  10.354 -0.4205 -0.8163  0.2954
  153SAPE    C216971   5.576   3.074  10.200 -0.7609 -0.3316 -0.3605
  153SAPE    HS16972   5.465   3.085  10.195 -0.7168 -0.1895 -1.1554
  153SAPE   O2116973   5.632   2.953  10.144 -0.5175 -0.3745 -0.3202
  153SAPE   C2116974   5.554   2.889  10.060 -0.1033 -0.5413  0.0491
  153SAPE   O2216975   5.439   2.921  10.030 -0.4190 -0.1025  0.3202
  153SAPE   C2216976   5.643   2.794   9.976 -0.1436 -0.4553 -0.7980
  153SAPE   H2R16977   5.730   2.847   9.932 -0.2376  0.6441  0.2723
  153SAPE   H2S16978   5.688   2.734  10.058 -0.6070  0.1504 -0.0812
  153SAPE    C316979   5.643   3.196  10.127  0.1123  0.6840  0.2180
  153SAPE    HX16980   5.752   3.197  10.149  0.6213  1.5017 -2.0624
  153SAPE    HY16981   5.592   3.288  10.159 -0.0546  1.2671 -1.5911
  153SAPE   O3116982   5.633   3.185   9.988 -0.3339  0.0435 -0.1081
  153SAPE   C3116983   5.520   3.213   9.928  0.2514 -0.9300 -0.4449
  153SAPE   O3216984   5.420   3.253   9.993 -0.0545  0.4706 -0.4445
  153SAPE   C3216985   5.537   3.192   9.779  0.2327  0.2148  0.1938
  153SAPE   H2X16986   5.598   3.102   9.754  1.7764  1.3779 -0.3891
  153SAPE   H2Y16987   5.604   3.273   9.744  1.5152 -0.6242  0.6123
  153SAPE   C2316988   5.574   2.690   9.876 -0.8515 -0.0722 -0.4611
  153SAPE   H3R16989   5.469   2.664   9.902 -0.9727  1.1558  0.3163
  153SAPE   H3S16990   5.625   2.594   9.900 -1.7196 -0.5067 -0.3007
  153SAPE   C2416991   5.596   2.720   9.731 -0.0709 -0.7465  0.0069
  153SAPE   H4R16992   5.705   2.737   9.718 -0.1477 -0.8463 -0.8389
  153SAPE   H4S16993   5.534   2.807   9.702  0.9657 -0.7405 -2.4576
  153SAPE   C2516994   5.548   2.605   9.645  0.5902 -0.2794 -0.6052
  153SAPE   H5R16995   5.588   2.507   9.673  0.0291 -0.2109  0.4776
  153SAPE   C2616996   5.453   2.609   9.548  0.9411  0.4701  0.4373
  153SAPE   H6R16997   5.439   2.520   9.485  3.2309 -1.1500  2.0533
  153SAPE   C2716998   5.390   2.728   9.492 -0.2319 -0.9673  0.3632
  153SAPE   H7R16999   5.429   2.747   9.389 -0.2809 -2.1600  0.1080
  153SAPE   H7S17000   5.409   2.820   9.551 -1.4005 -0.5802  0.1660
  153SAPE   C2817001   5.238   2.725   9.489 -0.1689 -0.4796  0.3179
  153SAPE   H8R17002   5.189   2.740   9.586 -0.7831  1.7969 -0.2782
  153SAPE   C2917003   5.159   2.735   9.383 -1.0360 -0.1386 -0.3319
  153SAPE   H9R17004   5.050   2.735   9.402 -1.1493  2.6999 -0.4639
  153SAPE  C21017005   5.210   2.732   9.236 -0.5251 -0.3318 -0.4281
  153SAPE  H10R17006   5.301   2.794   9.226 -0.8343  0.2697  0.3383
  153SAPE  H10S17007   5.133   2.781   9.173 -2.0851 -4.1585 -1.7877
  153SAPE  C21117008   5.238   2.591   9.180  1.0691  0.4457  0.0972
  153SAPE  H11R17009   5.150   2.526   9.168  0.8120  0.7357  0.4090
  153SAPE  C21217010   5.357   2.541   9.139  0.3649  0.3245  0.3621
  153SAPE  H12R17011   5.356   2.435   9.108  1.4521  0.6846 -1.0020
  153SAPE  C21317012   5.490   2.613   9.134  0.0986 -0.3137 -0.6152
  153SAPE  H13R17013   5.475   2.717   9.171 -1.8984 -0.5381 -0.6763
  153SAPE  H13S17014   5.519   2.637   9.029 -0.4187  1.4077 -0.3993
  153SAPE  C21417015   5.597   2.531   9.205  0.2482 -0.5709 -0.1088
  153SAPE  H14R17016   5.564   2.470   9.291  1.4565  0.8058  1.4107
  153SAPE  C21517017   5.729   2.531   9.177 -0.4965 -0.1201  0.8739
  153SAPE  H15R17018   5.810   2.486   9.237  1.3615 -0.0637 -1.4290
  153SAPE  C21617019   5.794   2.614   9.068  0.1791  0.5530 -0.2980
  153SAPE  H16R17020   5.783   2.723   9.086 -2.2498  0.0788  1.7545
  153SAPE  H16S17021   5.747   2.578   8.974  1.2523  1.3033 -1.1444
  153SAPE  C21717022   5.946   2.578   9.053  0.3561  0.1475 -0.4891
  153SAPE  H17R17023   5.953   2.471   9.024  0.7087  0.9299 -3.7480
  153SAPE  H17S17024   6.011   2.591   9.142  0.9607 -2.7175 -0.4098
  153SAPE  C21817025   6.007   2.651   8.929  0.8683  0.1892 -0.2117
  153SAPE  H18R17026   6.111   2.620   8.906  0.5633  0.3998 -2.0441
  153SAPE  H18S17027   6.012   2.761   8.942  0.2691  0.2472 -0.4262
  153SAPE  C21917028   5.945   2.629   8.789  0.2846 -0.3463 -0.6671
  153SAPE  H19R17029   6.007   2.677   8.711  0.5646 -0.3235 -0.4301
  153SAPE  H19S17030   5.847   2.682   8.788 -0.3093 -1.4210 -1.6302
  153SAPE  C22017031   5.919   2.484   8.751  0.3141  1.1277 -0.1154
  153SAPE  H20R17032   6.020   2.441   8.770  0.9571  3.6255  3.1116
  153SAPE  H20S17033   5.891   2.480   8.644  0.0448 -0.2479 -0.0074
  153SAPE  H20T17034   5.855   2.427   8.822  2.3850 -1.0245  0.1560
  153SAPE   C3317035   5.406   3.169   9.697 -0.1615 -0.3606  0.5940
  153SAPE   H3X17036   5.331   3.249   9.717  1.0393  1.3951 -1.4479
  153SAPE   H3Y17037   5.363   3.070   9.724  0.0071 -0.3912  0.7608
  153SAPE   C3417038   5.429   3.174   9.545 -0.1853 -0.1684 -0.2025
  153SAPE   H4X17039   5.480   3.087   9.500  0.8003 -0.3777  1.2498
  153SAPE   H4Y17040   5.493   3.264   9.532  0.3529 -0.1527  2.0830
  153SAPE   C3517041   5.297   3.177   9.472 -0.2452 -0.0261  0.3244
  153SAPE   H5X17042   5.241   3.269   9.499 -0.8824  0.0032 -0.9941
  153SAPE   H5Y17043   5.240   3.086   9.501 -2.2573  1.0599 -0.0554
  153SAPE   C3617044   5.319   3.177   9.320  1.1254 -0.0553 -0.1927
  153SAPE   H6X17045   5.390   3.097   9.290  4.8446  2.6805  0.6012
  153SAPE   H6Y17046   5.351   3.278   9.288  0.3332 -0.1347 -1.3225
  153SAPE   C3717047   5.183   3.175   9.246  0.8254  0.8337 -1.1531
  153SAPE   H7X17048   5.113   3.259   9.264 -1.0021 -0.5302 -1.5347
  153SAPE   H7Y17049   5.134   3.084   9.288  1.1459  0.8250 -0.7918
  153SAPE   C3817050   5.192   3.141   9.099  0.6351  0.2997 -0.1736
  153SAPE   H8X17051   5.258   3.052   9.091 -1.4502 -1.2827 -0.8668
  153SAPE   H8Y17052   5.228   3.232   9.046 -2.0666  1.7064  0.1912
  153SAPE   C3917053   5.060   3.091   9.035  0.7244  0.1257  0.3369
  153SAPE   H9X17054   4.984   3.171   9.049 -0.2533 -0.6237 -0.5742
  153SAPE   H9Y17055   5.032   2.999   9.091 -1.5703  0.9855  0.7167
  153SAPE  C31017056   5.070   3.070   8.888  0.5796  0.3258 -0.1611
  153SAPE  H10X17057   5.119   3.160   8.845  0.2950  1.3098  1.4711
  153SAPE  H10Y17058   4.968   3.050   8.851 -0.6726 -0.0638  3.1439
  153SAPE  C31117059   5.156   2.949   8.859  0.1156  0.4016  0.7211
  153SAPE  H11X17060   5.101   2.863   8.904  0.0909  0.1888  0.2961
  153SAPE  H11Y17061   5.256   2.948   8.906 -0.2375  2.4284  1.6337
  153SAPE  C31217062   5.168   2.928   8.704  0.1273  0.8813  0.1721
  153SAPE  H12X17063   5.238   2.843   8.690  1.0096  1.3918  1.2926
  153SAPE  H12Y17064   5.227   3.004   8.648 -0.2671  0.3207 -1.0463
  153SAPE  C31317065   5.031   2.880   8.647 -0.0945 -0.4068  0.6639
  153SAPE  H13X17066   4.959   2.963   8.661 -2.7182 -2.6875  1.5685
  153SAPE  H13Y17067   4.998   2.794   8.710 -0.8621 -0.5125  0.1252
  153SAPE  C31417068   5.039   2.825   8.499  0.2216 -0.2951  0.3133
  153SAPE  H14X17069   5.129   2.760   8.505  0.5024  0.1122  0.6566
  153SAPE  H14Y17070   5.070   2.915   8.442 -1.6991  1.5003  1.9399
  153SAPE  C31517071   4.909   2.761   8.453 -0.4476 -0.6780 -0.1319
  153SAPE  H15X17072   4.824   2.830   8.433 -1.3421 -1.0980  1.9170
  153SAPE  H15Y17073   4.879   2.689   8.532  2.0312 -2.5862 -0.8338
  153SAPE  C31617074   4.946   2.680   8.326 -0.4946  0.5725 -0.1651
  153SAPE  H16X17075   4.858   2.628   8.282  0.3128 -0.8825 -0.0912
  153SAPE  H16Y17076   5.014   2.596   8.351 -0.9609 -0.7352 -2.8589
  153SAPE  C31717077   5.022   2.753   8.215  0.2869  0.2080 -0.2842
  153SAPE  H17X17078   5.113   2.799   8.259 -0.0277 -0.6210  1.2906
  153SAPE  H17Y17079   4.956   2.838   8.190  0.6718  1.1390  1.6888
  153SAPE  C31817080   5.056   2.672   8.082 -0.3272 -0.4777 -0.1706
  153SAPE  H18X17081   4.961   2.652   8.028 -1.2969  1.4415  0.7440
  153SAPE  H18Y17082   5.103   2.573   8.102 -1.3990 -1.1818 -1.0110
  153SAPE  H18Z17083   5.119   2.734   8.015 -3.1144  0.3208 -2.2248
  154SAPE     N17084   0.050   3.528  10.940 -0.1932  0.0103  0.2453
  154SAPE   HN117085   0.047   3.604  11.011  1.4214 -0.6879  1.1202
  154SAPE   HN217086  -0.042   3.482  10.955  0.3282 -1.0785  0.2151
  154SAPE   HN317087   0.118   3.453  10.964 -1.2241 -1.4588 -1.1482
  154SAPE   C1217088   0.038   3.588  10.801  0.1964  0.5908 -0.1695
  154SAPE  H12A17089   0.133   3.640  10.776 -0.2410  1.8428  0.6470
  154SAPE  H12B17090  -0.047   3.661  10.797  1.9608  2.7293 -1.0003
  154SAPE   C1117091   0.021   3.475  10.693  0.0858  0.3208 -0.3440
  154SAPE  H11A17092   0.104   3.402  10.689  0.7467  0.8124  2.1176
  154SAPE  H11B17093   0.022   3.529  10.596  0.9378 -0.1085 -0.5818
  154SAPE     P17094  -0.111   3.248  10.722  0.1588  0.2585  0.2589
  154SAPE   O1317095   0.029   3.195  10.753  0.4295 -0.1133 -0.0943
  154SAPE   O1417096  -0.229   3.194  10.792 -0.2092 -0.5458 -0.4720
  154SAPE   O1217097  -0.108   3.412  10.717 -0.0182 -0.0806  0.3139
  154SAPE   O1117098  -0.128   3.209  10.569  0.0771  0.2651  0.7562
  154SAPE    C117099  -0.258   3.199  10.510 -0.1280 -0.4469 -0.4780
  154SAPE    HA17100  -0.290   3.093  10.518  0.9792 -0.7973 -0.5044
  154SAPE    HB17101  -0.328   3.263  10.567  1.0658 -1.4351  2.2873
  154SAPE    C217102  -0.251   3.258  10.370 -0.3364 -0.5481  0.2249
  154SAPE    HS17103  -0.355   3.254  10.331 -0.9047  0.1444  1.6136
  154SAPE   O2117104  -0.152   3.189  10.286  0.2404 -0.3713 -0.2273
  154SAPE   C2117105  -0.187   3.065  10.258  0.7395  0.4626 -0.2202
  154SAPE   O2217106  -0.297   3.013  10.282 -0.2148  0.0889 -0.1408
  154SAPE   C2217107  -0.074   2.989  10.187  0.4371  0.1643  1.2165
  154SAPE   H2R17108  -0.042   3.042  10.095  2.6097 -0.1994  1.7222
  154SAPE   H2S17109   0.016   2.990  10.252 -0.2202 -0.0374  2.1704
  154SAPE    C317110  -0.212   3.410  10.377 -0.3619  0.3652 -0.0427
  154SAPE    HX17111  -0.109   3.426  10.415  0.1625  1.2873 -1.7363
  154SAPE    HY17112  -0.271   3.445  10.464  2.3442 -0.5608  2.3288
  154SAPE   O3117113  -0.225   3.481  10.255  0.4467  0.5661 -0.1472
  154SAPE   C3117114  -0.341   3.516  10.217  0.7802 -0.3990 -0.5008
  154SAPE   O3217115  -0.449   3.499  10.282 -0.0944  0.1453  0.7861
  154SAPE   C3217116  -0.338   3.597  10.088  0.0663  0.2296  0.3835
  154SAPE   H2X17117  -0.233   3.613  10.057  0.0919 -0.2041  0.2459
  154SAPE   H2Y17118  -0.387   3.694  10.112  1.2146  1.0453 -0.4714
  154SAPE   C2317119  -0.113   2.850  10.130 -0.1865  0.3780 -0.6505
  154SAPE   H3R17120  -0.211   2.824  10.176 -0.3333  1.0990 -0.5416
  154SAPE   H3S17121  -0.029   2.784  10.159  1.0309  1.1964 -2.1747
  154SAPE   C2417122  -0.132   2.830   9.985 -0.5430 -0.1533 -0.0898
  154SAPE   H4R17123  -0.039   2.845   9.926  0.0782 -0.0244  0.9091
  154SAPE   H4S17124  -0.207   2.897   9.938 -0.5823 -0.2991 -0.2350
  154SAPE   C2517125  -0.177   2.686   9.966 -0.2022 -0.4167 -0.5119
  154SAPE   H5R17126  -0.266   2.656  10.022 -1.9918 -0.7515 -3.3142
  154SAPE   C2617127  -0.109   2.586   9.910  0.2739  0.3980 -0.3000
  154SAPE   H6R17128  -0.157   2.489   9.893  1.2064 -0.1432  0.1384
  154SAPE   C2717129   0.024   2.598   9.836  0.6005  0.1188 -0.2369
  154SAPE   H7R17130   0.092   2.521   9.876  0.5305  0.4337  0.4938
  154SAPE   H7S17131   0.076   2.695   9.852 -1.4911  1.0991  1.0105
  154SAPE   C2817132   0.011   2.562   9.688 -0.3973  0.4351 -0.5217
  154SAPE   H8R17133  -0.084   2.513   9.661 -0.5589  0.6243 -0.2948
  154SAPE   C2917134   0.103   2.585   9.591  0.5518 -0.4865 -0.1457
  154SAPE   H9R17135   0.082   2.539   9.493 -0.2548 -1.0846  0.2871
  154SAPE  C21017136   0.236   2.653   9.608  0.5326 -0.3513 -0.0555
  154SAPE  H10R17137   0.259   2.654   9.717  0.0892 -1.6436  0.0702
  154SAPE  H10S17138   0.244   2.757   9.571  3.0712 -0.1977  0.7222
  154SAPE  C21117139   0.355   2.572   9.550  0.3446  0.5625  0.1828
  154SAPE  H11R17140   0.346   2.465   9.524  0.6716  0.7696 -0.7974
  154SAPE  C21217141   0.466   2.625   9.505 -0.5983  0.6395 -0.3537
  154SAPE  H12R17142   0.528   2.558   9.444 -1.6904  0.9730 -1.8767
  154SAPE  C21317143   0.522   2.766   9.511  0.1639 -0.7659  0.4479
  154SAPE  H13R17144   0.603   2.779   9.586  1.6902 -2.6012 -0.7635
  154SAPE  H13S17145   0.441   2.835   9.542 -0.3029 -1.0515 -0.1102
  154SAPE  C21417146   0.571   2.810   9.375  0.0677 -0.7186 -0.4992
  154SAPE  H14R17147   0.527   2.773   9.282 -4.1066  0.5981  0.7466
  154SAPE  C21517148   0.651   2.916   9.365 -0.0405 -0.8212 -0.3203
  154SAPE  H15R17149   0.673   2.937   9.259 -0.6685 -0.1887 -0.3297
  154SAPE  C21617150   0.719   2.995   9.467  0.4044 -0.0772  0.3514
  154SAPE  H16R17151   0.828   3.006   9.450  0.5899  1.3764  2.1679
  154SAPE  H16S17152   0.701   2.953   9.568 -3.1402  1.1695  0.3545
  154SAPE  C21717153   0.662   3.138   9.455  0.2354  0.0575 -0.4215
  154SAPE  H17R17154   0.695   3.210   9.533  0.3534 -0.1594 -0.2674
  154SAPE  H17S17155   0.553   3.122   9.474  0.5741 -2.0763  0.0184
  154SAPE  C21817156   0.687   3.203   9.313 -0.0229  0.5469  0.0045
  154SAPE  H18R17157   0.629   3.298   9.305 -0.7273  0.1108 -0.0882
  154SAPE  H18S17158   0.636   3.152   9.229  0.6019  1.8141 -1.1818
  154SAPE  C21917159   0.825   3.232   9.272  0.8179 -0.0226 -0.0431
  154SAPE  H19R17160   0.895   3.149   9.293  1.4824 -0.5854 -3.8491
  154SAPE  H19S17161   0.847   3.322   9.333 -0.6985  0.4479 -0.1284
  154SAPE  C22017162   0.827   3.274   9.126  0.1193  0.3553  0.6662
  154SAPE  H20R17163   0.933   3.289   9.096 -0.2921  1.5517 -0.2826
  154SAPE  H20S17164   0.768   3.366   9.101  1.0514  0.9675  0.6911
  154SAPE  H20T17165   0.788   3.187   9.069  0.7284 -1.2138  2.5513
  154SAPE   C3317166  -0.425   3.522   9.985  0.2843  0.1121 -0.4674
  154SAPE   H3X17167  -0.431   3.568   9.884  3.5025  1.2574 -0.2460
  154SAPE   H3Y17168  -0.529   3.500  10.017 -0.2017  0.2064 -1.9211
  154SAPE   C3417169  -0.367   3.383   9.950 -0.7445  0.4971 -0.1044
  154SAPE   H4X17170  -0.372   3.312  10.035  0.8898 -0.5440 -0.8366
  154SAPE   H4Y17171  -0.262   3.409   9.928 -0.7608 -0.4456 -1.3688
  154SAPE   C3517172  -0.432   3.305   9.841  0.1085 -0.4312  0.3515
  154SAPE   H5X17173  -0.437   3.369   9.751 -1.6361 -1.0025 -0.0100
  154SAPE   H5Y17174  -0.535   3.264   9.850  0.1506 -0.3866  1.0761
  154SAPE   C3617175  -0.341   3.183   9.808 -0.2415 -0.5211  0.0827
  154SAPE   H6X17176  -0.328   3.120   9.899 -3.5829  0.5072  1.4323
  154SAPE   H6Y17177  -0.241   3.228   9.788 -1.7607  2.7553 -0.7531
  154SAPE   C3717178  -0.383   3.113   9.677 -0.2950 -0.5391 -0.6182
  154SAPE   H7X17179  -0.357   3.171   9.585  1.2330 -3.2040 -1.9898
  154SAPE   H7Y17180  -0.492   3.097   9.684 -0.2939  0.2250  3.3044
  154SAPE   C3817181  -0.316   2.969   9.680 -0.6190  0.0364 -0.1528
  154SAPE   H8X17182  -0.384   2.898   9.731  0.3582 -1.2455 -0.5825
  154SAPE   H8Y17183  -0.214   2.974   9.725 -0.2758 -4.1823 -0.0618
  154SAPE   C3917184  -0.305   2.914   9.534  0.0330 -0.6103  0.2939
  154SAPE   H9X17185  -0.236   2.983   9.481 -1.8820  0.2370 -1.2331
  154SAPE   H9Y17186  -0.404   2.917   9.484  1.4094  1.4450 -2.5889
  154SAPE  C31017187  -0.241   2.776   9.517  0.1820 -0.1210 -0.7390
  154SAPE  H10X17188  -0.310   2.699   9.557 -1.6532  1.7235 -0.2558
  154SAPE  H10Y17189  -0.147   2.762   9.574 -0.0118 -1.8073 -0.7710
  154SAPE  C31117190  -0.235   2.742   9.370  0.3055  0.0463  0.1136
  154SAPE  H11X17191  -0.322   2.779   9.311  0.3504  0.4749  0.3084
  154SAPE  H11Y17192  -0.228   2.631   9.370  0.0683  0.0243  1.2581
  154SAPE  C31217193  -0.116   2.799   9.292  0.1128 -0.5015  0.6934
  154SAPE  H12X17194  -0.028   2.800   9.359  0.0574 -1.6442  0.8040
  154SAPE  H12Y17195  -0.135   2.905   9.262  4.0985 -0.4132 -2.3069
  154SAPE  C31317196  -0.079   2.721   9.162 -0.1627 -0.8228 -0.1067
  154SAPE  H13X17197  -0.046   2.620   9.193 -0.2717 -1.2880 -1.4280
  154SAPE  H13Y17198   0.000   2.760   9.094  1.1393 -1.2510  1.1196
  154SAPE  C31417199  -0.201   2.691   9.072 -0.0192  0.1491 -0.6832
  154SAPE  H14X17200  -0.299   2.723   9.114 -0.7096 -0.9570 -1.4110
  154SAPE  H14Y17201  -0.194   2.583   9.050 -2.6610  0.1499 -1.9274
  154SAPE  C31517202  -0.199   2.768   8.937  0.6181  0.9308  0.2653
  154SAPE  H15X17203  -0.111   2.727   8.882 -0.9669 -3.2674  0.4961
  154SAPE  H15Y17204  -0.193   2.879   8.945  0.4909  0.8633  1.3731
  154SAPE  C31617205  -0.326   2.723   8.852  0.3622  0.0270 -0.8615
  154SAPE  H16X17206  -0.412   2.769   8.906  1.0522  0.6449 -0.2696
  154SAPE  H16Y17207  -0.339   2.612   8.857  1.1758 -0.0342  1.3566
  154SAPE  C31717208  -0.322   2.775   8.708  0.1775 -0.0508 -0.3837
  154SAPE  H17X17209  -0.225   2.748   8.660 -0.0596 -1.8388  0.0601
  154SAPE  H17Y17210  -0.325   2.886   8.705  0.8112 -0.0213 -3.1841
  154SAPE  C31817211  -0.442   2.733   8.633 -0.3709 -0.0608 -0.4489
  154SAPE  H18X17212  -0.447   2.625   8.660  0.6423  0.4645  2.1829
  154SAPE  H18Y17213  -0.439   2.762   8.526 -0.5984  1.8959  0.0409
  154SAPE  H18Z17214  -0.532   2.778   8.680  0.0975 -0.5554  0.9607
  155SAPE     N17215   6.502   5.650  10.933 -0.7203  0.1462 -0.1856
  155SAPE   HN117216   6.433   5.571  10.931 -1.5066  0.7791  0.8723
  155SAPE   HN217217   6.593   5.618  10.970 -1.0470  0.2073  0.6804
  155SAPE   HN317218   6.465   5.717  11.003 -0.0016  1.0754 -0.6786
  155SAPE   C1217219   6.519   5.717  10.802 -0.6190  0.7020  0.8248
  155SAPE  H12A17220   6.425   5.733  10.744 -1.2528 -0.0032  1.6167
  155SAPE  H12B17221   6.583   5.658  10.734 -2.0662  0.0410  0.0070
  155SAPE   C1117222   6.598   5.855  10.808 -0.6976  0.4567  0.4780
  155SAPE  H11A17223   6.547   5.919  10.883 -0.1626  2.0703 -0.4707
  155SAPE  H11B17224   6.587   5.887  10.702 -1.9778 -2.7126 -0.4569
  155SAPE     P17225   6.841   5.942  10.895 -0.3849  0.0229  0.2859
  155SAPE   O1317226   6.795   6.080  10.863  0.5278  0.4167  0.2950
  155SAPE   O1417227   6.899   5.914  11.030 -0.2129  0.3855 -0.1838
  155SAPE   O1217228   6.733   5.833  10.855 -0.5345 -0.5899 -0.3303
  155SAPE   O1117229   6.957   5.906  10.793 -0.5882 -0.1203 -0.5383
  155SAPE    C117230   6.992   5.767  10.777 -0.7856  0.4726  0.6278
  155SAPE    HA17231   7.093   5.751  10.821 -1.2345 -1.0633  1.1284
  155SAPE    HB17232   6.932   5.686  10.823 -0.2627 -0.7314 -0.7185
  155SAPE    C217233   6.996   5.720  10.632  0.0977 -0.4648  0.3163
  155SAPE    HS17234   7.066   5.633  10.636 -1.5505 -2.0442 -2.2303
  155SAPE   O2117235   7.059   5.816  10.539  0.5265  0.3029 -0.2769
  155SAPE   C2117236   7.181   5.849  10.565  0.0655  0.5426  0.8677
  155SAPE   O2217237   7.252   5.812  10.655  1.2311 -0.0539 -0.2205
  155SAPE   C2217238   7.225   5.947  10.450  0.6480  0.1197  0.3335
  155SAPE   H2R17239   7.147   6.025  10.435 -0.8927 -1.1190  1.5541
  155SAPE   H2S17240   7.325   5.991  10.467  1.0701 -0.4169 -0.6591
  155SAPE    C317241   6.862   5.680  10.577  0.3498  0.3549 -0.0259
  155SAPE    HX17242   6.792   5.765  10.595 -0.5060 -0.3113 -0.1145
  155SAPE    HY17243   6.833   5.591  10.637  0.1956  0.0903 -0.4864
  155SAPE   O3117244   6.862   5.639  10.438  0.1414 -0.4891 -0.7091
  155SAPE   C3117245   6.741   5.645  10.377 -0.2104  0.2788  0.6284
  155SAPE   O3217246   6.640   5.684  10.430 -0.2679 -0.5298 -0.5498
  155SAPE   C3217247   6.760   5.587  10.238  0.4983 -0.2539  0.5296
  155SAPE   H2X17248   6.768   5.476  10.244  0.3892 -0.5686 -2.8436
  155SAPE   H2Y17249   6.857   5.621  10.197 -0.0075 -0.2554 -0.7163
  155SAPE   C2317250   7.231   5.868  10.313 -0.1012  0.1148 -0.1271
  155SAPE   H3R17251   7.238   5.948  10.236 -1.4828  1.2421  0.8468
  155SAPE   H3S17252   7.136   5.815  10.291 -0.1801  0.3983 -0.4715
  155SAPE   C2417253   7.351   5.780  10.306 -0.0036  0.5115  1.3442
  155SAPE   H4R17254   7.441   5.833  10.344  0.9434 -0.6101  0.7356
  155SAPE   H4S17255   7.376   5.765  10.199 -5.4854 -0.5642 -0.1172
  155SAPE   C2517256   7.351   5.646  10.381  0.4051 -0.7406  0.3878
  155SAPE   H5R17257   7.275   5.631  10.459  1.1455 -1.1286  1.0414
  155SAPE   C2617258   7.437   5.551  10.343  0.1730  0.7800 -0.4433
  155SAPE   H6R17259   7.436   5.464  10.409 -0.6942  0.8660 -0.3339
  155SAPE   C2717260   7.537   5.557  10.225 -0.2480  0.2307  0.4329
  155SAPE   H7R17261   7.592   5.654  10.220 -0.1718  0.2008  0.6989
  155SAPE   H7S17262   7.486   5.559  10.126 -0.1897 -2.1569  0.3089
  155SAPE   C2817263   7.647   5.457  10.216  0.2394 -0.0778  0.5235
  155SAPE   H8R17264   7.748   5.493  10.239  0.4322 -1.4834  2.1265
  155SAPE   C2917265   7.630   5.321  10.201 -0.8633  0.0198  0.2448
  155SAPE   H9R17266   7.717   5.254  10.194 -1.0704 -0.6129  2.9208
  155SAPE  C21017267   7.499   5.252  10.170  0.3243  1.0427 -0.2748
  155SAPE  H10R17268   7.442   5.315  10.098 -0.3807 -0.0316 -0.6875
  155SAPE  H10S17269   7.450   5.247  10.269  0.8506  1.4003  0.0079
  155SAPE  C21117270   7.508   5.109  10.121 -0.1080 -0.2827 -0.8338
  155SAPE  H11R17271   7.452   5.038  10.183  1.9718 -0.9257  0.4333
  155SAPE  C21217272   7.578   5.057  10.024 -0.7362 -1.0631  0.0754
  155SAPE  H12R17273   7.563   4.948  10.021 -0.7491 -1.1233  1.5764
  155SAPE  C21317274   7.668   5.129   9.935 -1.2036 -0.2788 -0.1512
  155SAPE  H13R17275   7.763   5.152   9.987 -1.6530 -1.0426  1.0460
  155SAPE  H13S17276   7.639   5.235   9.915  2.4140  0.7498 -0.7542
  155SAPE  C21417277   7.694   5.043   9.808 -0.2031  0.0028  0.4671
  155SAPE  H14R17278   7.602   5.001   9.763  0.9174 -1.3155 -0.6835
  155SAPE  C21517279   7.815   5.019   9.749  0.1101 -0.0595  0.4146
  155SAPE  H15R17280   7.826   4.956   9.660  0.5973  0.5233  0.0527
  155SAPE  C21617281   7.946   5.070   9.815  0.0099  0.1221  0.1471
  155SAPE  H16R17282   7.967   5.016   9.909  0.0289 -2.8208 -1.4248
  155SAPE  H16S17283   7.946   5.180   9.829  0.4098  0.0784  0.5015
  155SAPE  C21717284   8.067   5.038   9.729 -0.1970  0.4213  0.2200
  155SAPE  H17R17285   8.098   4.931   9.722 -0.0745  0.5342 -1.3605
  155SAPE  H17S17286   8.152   5.097   9.768  0.7807 -0.6636 -0.1927
  155SAPE  C21817287   8.066   5.080   9.581  0.3667 -0.3043 -0.3162
  155SAPE  H18R17288   8.003   5.007   9.528  0.6053 -0.0631 -0.9468
  155SAPE  H18S17289   8.169   5.090   9.539  0.6778 -2.0316 -0.0296
  155SAPE  C21917290   7.997   5.222   9.550  0.7700  0.3309 -0.0857
  155SAPE  H19R17291   8.054   5.293   9.613  0.5255 -0.0549  0.5825
  155SAPE  H19S17292   7.890   5.210   9.575  0.3112  2.3786 -0.8967
  155SAPE  C22017293   8.002   5.259   9.403  0.8754 -0.1392 -0.6305
  155SAPE  H20R17294   7.932   5.339   9.373  0.1101  0.5648  2.6834
  155SAPE  H20S17295   7.986   5.166   9.345  1.0033 -0.0112 -0.8760
  155SAPE  H20T17296   8.105   5.296   9.385  0.4182  1.0607 -0.9034
  155SAPE   C3317297   6.643   5.632  10.149 -0.9039  0.1506  0.0462
  155SAPE   H3X17298   6.630   5.742  10.151 -1.6255  0.1453 -1.8278
  155SAPE   H3Y17299   6.542   5.592  10.174 -1.0722  0.7061  0.2843
  155SAPE   C3417300   6.671   5.593  10.002 -0.3480 -0.2553  1.1193
  155SAPE   H4X17301   6.637   5.487   9.995 -1.0297 -0.0186  0.7626
  155SAPE   H4Y17302   6.780   5.593   9.980 -0.5027 -0.0338  0.3025
  155SAPE   C3517303   6.594   5.678   9.898  0.6439  0.2102 -0.6432
  155SAPE   H5X17304   6.645   5.776   9.886  1.0479  0.0887  0.0604
  155SAPE   H5Y17305   6.491   5.696   9.935  1.5453  0.8395  1.7602
  155SAPE   C3617306   6.586   5.598   9.766 -0.2062  0.5921  0.6569
  155SAPE   H6X17307   6.497   5.531   9.758 -0.6598  1.2586  0.0317
  155SAPE   H6Y17308   6.672   5.532   9.744 -2.3234 -2.1971  0.1392
  155SAPE   C3717309   6.569   5.706   9.654  0.3948  0.6686  0.6525
  155SAPE   H7X17310   6.658   5.768   9.630 -1.3857  2.8934 -0.5599
  155SAPE   H7Y17311   6.483   5.767   9.687 -0.8722 -1.0125  0.6028
  155SAPE   C3817312   6.527   5.644   9.512  0.0148 -0.6016 -0.2790
  155SAPE   H8X17313   6.438   5.577   9.517 -0.9669  0.7000  4.0562
  155SAPE   H8Y17314   6.610   5.573   9.494  1.2714  0.8905 -0.6081
  155SAPE   C3917315   6.515   5.755   9.401  0.8544 -0.2327 -0.2252
  155SAPE   H9X17316   6.609   5.812   9.418  0.0745  0.7553  0.9861
  155SAPE   H9Y17317   6.431   5.828   9.407  0.4369 -0.8169  1.8557
  155SAPE  C31017318   6.514   5.683   9.267 -0.0091 -0.3866  1.3376
  155SAPE  H10X17319   6.452   5.736   9.192 -1.1569 -4.2790 -0.7074
  155SAPE  H10Y17320   6.465   5.584   9.265 -0.4244 -0.2058 -1.2560
  155SAPE  C31117321   6.653   5.668   9.203 -0.6435 -0.8684  0.6063
  155SAPE  H11X17322   6.737   5.652   9.273  0.4786 -0.1489 -0.5322
  155SAPE  H11Y17323   6.675   5.766   9.155 -2.0886 -1.2814 -1.0292
  155SAPE  C31217324   6.659   5.570   9.088 -0.5387  0.7086  0.4947
  155SAPE  H12X17325   6.575   5.593   9.020  0.1835  0.1437 -0.6103
  155SAPE  H12Y17326   6.643   5.467   9.127  1.0407 -1.4711 -3.9698
  155SAPE  C31317327   6.800   5.562   9.015 -0.2100  0.7255  0.1754
  155SAPE  H13X17328   6.787   5.485   8.936  1.9654 -0.4835  0.9337
  155SAPE  H13Y17329   6.875   5.521   9.084  1.7027 -1.1445 -2.7795
  155SAPE  C31417330   6.850   5.690   8.949  0.0734  0.0451  0.3848
  155SAPE  H14X17331   6.940   5.659   8.892 -0.4828  2.2062 -1.8735
  155SAPE  H14Y17332   6.882   5.758   9.031 -1.0911  0.1221  0.8038
  155SAPE  C31517333   6.748   5.759   8.869  0.6399 -0.4424  0.3018
  155SAPE  H15X17334   6.663   5.783   8.937  1.0604  1.6685  0.1398
  155SAPE  H15Y17335   6.700   5.698   8.790 -0.5032  1.8939 -0.9208
  155SAPE  C31617336   6.817   5.892   8.820 -0.0223  0.4540  0.2428
  155SAPE  H16X17337   6.896   5.867   8.746  0.0249  1.6474 -0.1296
  155SAPE  H16Y17338   6.875   5.938   8.903 -1.3633  1.2197  0.7839
  155SAPE  C31717339   6.717   5.983   8.753  0.2470  0.1709 -0.1002
  155SAPE  H17X17340   6.753   6.087   8.738  0.3983  0.0507 -0.5753
  155SAPE  H17Y17341   6.632   5.998   8.823  0.6788  1.5573  0.1435
  155SAPE  C31817342   6.662   5.935   8.615 -0.5325 -0.5830  0.0672
  155SAPE  H18X17343   6.595   6.011   8.569 -0.9350 -0.3377  1.0538
  155SAPE  H18Y17344   6.614   5.837   8.633  2.4812 -1.9989  0.9915
  155SAPE  H18Z17345   6.754   5.923   8.554  0.1967  0.0721  1.0079
  156SAPE     N17346   4.533   1.967  10.991 -0.3434  0.4883  0.5363
  156SAPE   HN117347   4.459   1.894  10.982 -0.0865  0.4720 -2.4838
  156SAPE   HN217348   4.523   2.022  11.079  0.6418  1.4372  0.0722
  156SAPE   HN317349   4.529   2.036  10.913  1.5758 -0.6437 -0.6216
  156SAPE   C1217350   4.672   1.913  10.986 -0.4250  0.6363  0.0407
  156SAPE  H12A17351   4.671   1.827  11.056 -1.8539  0.4646 -0.1637
  156SAPE  H12B17352   4.733   1.997  11.024 -1.4211  0.9644  0.9555
  156SAPE   C1117353   4.710   1.873  10.845 -0.0567 -0.0370  0.3837
  156SAPE  H11A17354   4.645   1.784  10.828 -0.9343  0.6680  0.0024
  156SAPE  H11B17355   4.815   1.840  10.825 -0.0258 -1.8405  3.0084
  156SAPE     P17356   4.790   2.074  10.695 -0.6667  0.2165 -0.2688
  156SAPE   O1317357   4.725   2.203  10.661 -0.2402  0.4126  0.7586
  156SAPE   O1417358   4.912   2.076  10.790 -0.2360 -0.3179  0.4120
  156SAPE   O1217359   4.677   1.981  10.759 -0.1272  0.3314  0.0878
  156SAPE   O1117360   4.836   2.003  10.569  0.1790 -0.0718 -0.0443
  156SAPE    C117361   4.878   2.061  10.444 -0.2911  0.6934  1.0170
  156SAPE    HA17362   4.923   2.162  10.454  1.3990  0.0123  0.6441
  156SAPE    HB17363   4.956   2.002  10.392  0.0612  2.3894 -0.5004
  156SAPE    C217364   4.755   2.077  10.346 -0.6260 -0.0095  0.1492
  156SAPE    HS17365   4.670   2.026  10.396  0.1183 -0.3405  1.1053
  156SAPE   O2117366   4.786   2.014  10.226  0.2613  0.4944  0.4274
  156SAPE   C2117367   4.685   1.961  10.159  0.6147 -0.2335  0.1391
  156SAPE   O2217368   4.570   1.945  10.200  0.3193  0.0075  0.0928
  156SAPE   C2217369   4.729   1.906  10.020 -0.2716  0.6774  0.1594
  156SAPE   H2R17370   4.801   1.985   9.988  2.2790 -0.9020  1.5910
  156SAPE   H2S17371   4.784   1.812  10.044  1.2204  1.6035  0.5101
  156SAPE    C317372   4.721   2.225  10.316  0.2723 -0.6149 -0.6471
  156SAPE    HX17373   4.689   2.280  10.406 -2.0059  0.3566 -1.9541
  156SAPE    HY17374   4.622   2.226  10.264 -1.6658 -0.6197  2.7613
  156SAPE   O3117375   4.837   2.294  10.256 -0.1062  0.0745  0.1459
  156SAPE   C3117376   4.815   2.363  10.141  0.5645 -0.0234  0.5258
  156SAPE   O3217377   4.704   2.360  10.085 -0.3378  0.3698 -0.2714
  156SAPE   C3217378   4.941   2.449  10.102  0.6353 -0.1140 -0.2680
  156SAPE   H2X17379   5.009   2.454  10.190  0.1944  1.6436  0.0115
  156SAPE   H2Y17380   4.899   2.548  10.075 -1.0152  0.2179  3.0744
  156SAPE   C2317381   4.626   1.885   9.919 -0.0320  0.6908  0.3810
  156SAPE   H3R17382   4.551   1.964   9.896 -1.8780 -1.4708 -1.5361
  156SAPE   H3S17383   4.556   1.808   9.960  1.3056 -1.3223 -0.9433
  156SAPE   C2417384   4.692   1.841   9.789 -0.5597  0.0134  0.2016
  156SAPE   H4R17385   4.619   1.774   9.740  0.6657 -0.4587 -1.0410
  156SAPE   H4S17386   4.780   1.778   9.814 -0.5531  0.1114  0.4350
  156SAPE   C2517387   4.735   1.955   9.699 -0.6128  0.9592 -1.2063
  156SAPE   H5R17388   4.737   2.057   9.740  1.5829  0.1839  0.8531
  156SAPE   C2617389   4.767   1.944   9.572  0.7084  0.0548  0.2097
  156SAPE   H6R17390   4.795   2.033   9.513 -1.2640 -0.7359 -2.0582
  156SAPE   C2717391   4.775   1.812   9.496 -0.2751  0.3869 -0.0086
  156SAPE   H7R17392   4.762   1.724   9.562 -0.8316  1.2358  1.0353
  156SAPE   H7S17393   4.874   1.796   9.447 -0.4006 -2.7933  0.6066
  156SAPE   C2817394   4.671   1.790   9.394  0.0479  0.0308 -0.0143
  156SAPE   H8R17395   4.569   1.816   9.425  1.1477  2.2125  2.1407
  156SAPE   C2917396   4.681   1.770   9.261 -0.2251 -0.3034  0.0847
  156SAPE   H9R17397   4.591   1.755   9.200 -0.8094 -1.0618  1.1124
  156SAPE  C21017398   4.810   1.761   9.184  0.4197  0.2755  0.6335
  156SAPE  H10R17399   4.800   1.687   9.101 -2.3856  2.4524 -1.1803
  156SAPE  H10S17400   4.893   1.743   9.256 -0.1153 -1.2668  0.8977
  156SAPE  C21117401   4.821   1.900   9.122  0.2249  0.6580 -0.1703
  156SAPE  H11R17402   4.809   1.979   9.197 -2.3098 -1.1924  1.5314
  156SAPE  C21217403   4.828   1.934   8.996  0.4331  0.6159  0.7464
  156SAPE  H12R17404   4.853   2.037   8.964  2.5736 -0.7054 -2.3231
  156SAPE  C21317405   4.821   1.845   8.873 -0.6492  0.4407  0.3109
  156SAPE  H13R17406   4.713   1.838   8.849  0.0614  1.0999 -3.8518
  156SAPE  H13S17407   4.859   1.741   8.879 -0.6191  0.4225 -0.1656
  156SAPE  C21417408   4.904   1.904   8.756 -0.0198 -0.2897  0.2691
  156SAPE  H14R17409   5.000   1.950   8.783  0.3694  0.0805 -1.5842
  156SAPE  C21517410   4.858   1.940   8.631 -0.1554 -0.6469 -0.2865
  156SAPE  H15R17411   4.931   1.992   8.567  1.9973  0.1405  2.6237
  156SAPE  C21617412   4.719   1.924   8.579 -0.1634  0.1564 -0.4403
  156SAPE  H16R17413   4.666   2.018   8.555 -1.6855 -0.9236 -1.5274
  156SAPE  H16S17414   4.661   1.865   8.654  0.8983 -0.7216 -0.2710
  156SAPE  C21717415   4.717   1.834   8.453 -0.0395 -0.4472 -0.1072
  156SAPE  H17R17416   4.779   1.883   8.375 -1.6634  0.1632 -1.0790
  156SAPE  H17S17417   4.616   1.842   8.407  0.9217 -0.8222 -2.4144
  156SAPE  C21817418   4.755   1.685   8.470 -0.9180  0.2191 -0.5965
  156SAPE  H18R17419   4.679   1.628   8.528  1.8571 -1.0534  2.0362
  156SAPE  H18S17420   4.843   1.674   8.536 -0.6545  2.4320 -0.5067
  156SAPE  C21917421   4.789   1.618   8.328  0.7214  0.5063 -0.3066
  156SAPE  H19R17422   4.886   1.659   8.293 -0.5458  1.3821 -3.0847
  156SAPE  H19S17423   4.721   1.657   8.249 -0.2347 -0.2973  0.1025
  156SAPE  C22017424   4.760   1.471   8.338  0.3090 -0.2430 -0.2389
  156SAPE  H20R17425   4.836   1.423   8.404  0.0988  0.3571  0.4561
  156SAPE  H20S17426   4.771   1.411   8.245  0.2022 -1.5255  0.5502
  156SAPE  H20T17427   4.666   1.440   8.390 -0.1030  1.3234 -0.0136
  156SAPE   C3317428   5.020   2.388   9.984  0.5966 -0.5620 -0.0723
  156SAPE   H3X17429   5.031   2.278   9.992  0.3094 -0.4946  1.5782
  156SAPE   H3Y17430   5.121   2.432   9.999  0.7487 -0.4896 -1.2000
  156SAPE   C3417431   4.975   2.437   9.845  0.1551  0.2478 -0.2283
  156SAPE   H4X17432   5.002   2.545   9.844 -3.1342  1.2473  1.9640
  156SAPE   H4Y17433   4.867   2.432   9.821  0.3126 -0.6449 -0.7964
  156SAPE   C3517434   5.050   2.376   9.722 -0.0788 -0.5378 -0.0104
  156SAPE   H5X17435   5.160   2.383   9.737 -0.2157 -0.8445  1.2701
  156SAPE   H5Y17436   5.040   2.434   9.628  1.8216  2.4563  1.4795
  156SAPE   C3617437   5.015   2.233   9.690 -0.0994  0.4843  0.3448
  156SAPE   H6X17438   4.904   2.227   9.680 -0.1707  1.9190  0.0449
  156SAPE   H6Y17439   5.028   2.160   9.772 -1.3302 -2.4695 -1.8831
  156SAPE   C3717440   5.085   2.173   9.567 -0.2404  0.1043  0.6464
  156SAPE   H7X17441   5.030   2.080   9.543  0.3046 -0.2364  0.6993
  156SAPE   H7Y17442   5.189   2.138   9.582 -0.5285 -2.3771 -2.2400
  156SAPE   C3817443   5.083   2.256   9.439  0.8103  0.9582  0.3499
  156SAPE   H8X17444   5.157   2.339   9.446  0.8694  1.0791 -1.2889
  156SAPE   H8Y17445   4.981   2.299   9.434 -0.0978 -0.8230  2.1916
  156SAPE   C3917446   5.098   2.168   9.316 -0.2548  0.1319  0.1631
  156SAPE   H9X17447   5.010   2.100   9.302  0.5469 -0.5235 -2.2285
  156SAPE   H9Y17448   5.183   2.103   9.345  0.1490  1.4293  2.0371
  156SAPE  C31017449   5.145   2.239   9.195 -0.7630  0.5892  1.7210
  156SAPE  H10X17450   5.219   2.314   9.228 -0.5782  0.8757  0.7045
  156SAPE  H10Y17451   5.054   2.291   9.157 -0.2371  0.0865 -0.3638
  156SAPE  C31117452   5.189   2.137   9.085  0.1707 -0.7973  0.3648
  156SAPE  H11X17453   5.143   2.036   9.087  1.7136 -1.5557 -0.5402
  156SAPE  H11Y17454   5.294   2.121   9.119  0.2233 -1.6217 -0.1812
  156SAPE  C31217455   5.181   2.194   8.942 -0.6427 -0.5970 -0.4341
  156SAPE  H12X17456   5.223   2.296   8.928 -1.3534 -0.4309 -1.3843
  156SAPE  H12Y17457   5.071   2.194   8.928 -0.5271 -0.9030 -1.3626
  156SAPE  C31317458   5.235   2.102   8.836 -0.4271 -0.5599 -0.2025
  156SAPE  H13X17459   5.193   2.001   8.852  3.8519 -2.2494  1.9891
  156SAPE  H13Y17460   5.346   2.103   8.844 -0.4396  0.0598  0.0155
  156SAPE  C31417461   5.194   2.158   8.698  0.3963 -0.0179 -0.1290
  156SAPE  H14X17462   5.246   2.255   8.680  1.2317 -0.3657  0.3203
  156SAPE  H14Y17463   5.086   2.178   8.707 -0.4816 -3.5588 -1.2587
  156SAPE  C31517464   5.223   2.057   8.585 -0.0087  0.4806 -0.0888
  156SAPE  H15X17465   5.183   1.955   8.600 -0.0178  0.3577 -0.8973
  156SAPE  H15Y17466   5.333   2.063   8.570  0.1346  0.0485  0.7530
  156SAPE  C31617467   5.165   2.114   8.451 -0.1102  0.6015  0.2267
  156SAPE  H16X17468   5.223   2.203   8.417  0.8079 -0.2558 -0.5360
  156SAPE  H16Y17469   5.062   2.154   8.457 -0.3237  0.1173 -0.0885
  156SAPE  C31717470   5.189   2.024   8.327  0.3176  0.1880 -1.3616
  156SAPE  H17X17471   5.113   2.060   8.254 -0.8751 -0.5454 -0.5145
  156SAPE  H17Y17472   5.153   1.920   8.340  1.4320 -0.2261 -1.4388
  156SAPE  C31817473   5.334   2.013   8.284 -1.2790  0.7904  0.3988
  156SAPE  H18X17474   5.390   2.109   8.279  0.5697 -0.2936 -2.0757
  156SAPE  H18Y17475   5.336   1.966   8.184  0.0452 -0.5197  0.9958
  156SAPE  H18Z17476   5.392   1.943   8.347 -1.2215  1.3213  0.9512
  157SAPE     N17477   3.494   2.221  10.812  0.5165  0.1024  0.1919
  157SAPE   HN117478   3.395   2.248  10.798 -0.3631 -2.2806  1.3610
  157SAPE   HN217479   3.490   2.210  10.915  1.6842  0.6445  0.3203
  157SAPE   HN317480   3.552   2.307  10.799 -0.5550  1.2366  2.4678
  157SAPE   C1217481   3.536   2.097  10.734  0.0328 -0.0221  0.0379
  157SAPE  H12A17482   3.637   2.062  10.764  0.3362  0.8445  0.0444
  157SAPE  H12B17483   3.536   2.125  10.626 -0.8271  1.1539  0.3245
  157SAPE   C1117484   3.435   1.985  10.764 -0.0412 -1.1535 -1.4874
  157SAPE  H11A17485   3.334   2.029  10.777 -0.5200 -2.7144  0.8118
  157SAPE  H11B17486   3.436   1.940  10.866 -0.2710  0.5669 -0.6957
  157SAPE     P17487   3.316   1.778  10.665  0.3736  0.1854 -0.3651
  157SAPE   O1317488   3.378   1.655  10.712 -0.3331  0.1819 -0.2657
  157SAPE   O1417489   3.202   1.828  10.745  0.0292 -0.1026  0.4641
  157SAPE   O1217490   3.427   1.889  10.661 -0.5796  0.1814 -0.1843
  157SAPE   O1117491   3.261   1.769  10.516 -0.1862  0.0313  0.0238
  157SAPE    C117492   3.209   1.884  10.456 -0.3614  0.1196  0.2747
  157SAPE    HA17493   3.114   1.855  10.408  0.2350 -1.3755 -0.0801
  157SAPE    HB17494   3.194   1.970  10.525  0.7247 -0.5532  1.4076
  157SAPE    C217495   3.292   1.919  10.331  0.1581 -0.0602 -0.0837
  157SAPE    HS17496   3.223   1.969  10.260  0.2492 -1.1080 -0.9259
  157SAPE   O2117497   3.349   1.801  10.272  0.3697  0.2844 -0.5097
  157SAPE   C2117498   3.313   1.785  10.145 -1.1764  0.8196 -0.6666
  157SAPE   O2217499   3.223   1.843  10.087  0.2815  0.0806 -0.0387
  157SAPE   C2217500   3.401   1.682  10.078  0.3867  0.1090  0.0973
  157SAPE   H2R17501   3.465   1.730  10.000  1.3515 -1.1042  0.1210
  157SAPE   H2S17502   3.454   1.625  10.156 -0.2629 -1.1480 -0.3482
  157SAPE    C317503   3.409   2.016  10.360  0.0071  0.3665 -0.3434
  157SAPE    HX17504   3.481   1.968  10.430  0.0923 -1.7420 -1.7750
  157SAPE    HY17505   3.362   2.108  10.400 -0.9214 -0.0635 -0.4039
  157SAPE   O3117506   3.484   2.048  10.242  0.0028 -0.0148 -0.3188
  157SAPE   C3117507   3.557   2.161  10.243 -0.4640 -0.4588 -0.4487
  157SAPE   O3217508   3.564   2.236  10.335 -0.0126  0.3259 -0.1277
  157SAPE   C3217509   3.625   2.182  10.110  0.0640  0.1651  0.7752
  157SAPE   H2X17510   3.549   2.233  10.047  3.7964  2.3487 -2.3634
  157SAPE   H2Y17511   3.649   2.079  10.075 -1.0579 -0.4934  1.8354
  157SAPE   C2317512   3.326   1.587   9.984 -0.3010  0.2573  0.4502
  157SAPE   H3R17513   3.279   1.647   9.903 -0.4100 -1.5756 -0.9188
  157SAPE   H3S17514   3.247   1.527  10.034  0.7050 -1.4077  0.0984
  157SAPE   C2417515   3.415   1.493   9.903  0.0758  0.7319  0.4048
  157SAPE   H4R17516   3.468   1.424   9.971  0.9626  2.1291  1.1679
  157SAPE   H4S17517   3.486   1.557   9.847 -0.5158  0.3171 -0.8632
  157SAPE   C2517518   3.337   1.411   9.797  0.3971  0.3531  0.5248
  157SAPE   H5R17519   3.297   1.310   9.816  0.2388  0.1963 -0.5976
  157SAPE   C2617520   3.303   1.462   9.670  0.5793  0.1774 -0.1909
  157SAPE   H6R17521   3.246   1.400   9.599  1.2019  0.7429 -1.1973
  157SAPE   C2717522   3.332   1.595   9.605  0.1962  0.0298 -0.1008
  157SAPE   H7R17523   3.382   1.664   9.676 -0.9213 -1.3097  2.1069
  157SAPE   H7S17524   3.231   1.640   9.598  0.0124  0.2351  2.5440
  157SAPE   C2817525   3.402   1.579   9.470  0.2229 -0.1662 -0.1658
  157SAPE   H8R17526   3.477   1.499   9.466 -0.1159 -0.4412 -1.2705
  157SAPE   C2917527   3.356   1.637   9.353  0.0488 -0.5028 -0.1998
  157SAPE   H9R17528   3.416   1.635   9.261 -2.1621  1.0421 -1.7718
  157SAPE  C21017529   3.233   1.721   9.349 -0.6330  0.2339  0.2093
  157SAPE  H10R17530   3.248   1.804   9.420 -2.5168 -1.2312  2.4743
  157SAPE  H10S17531   3.147   1.661   9.384  1.1095 -1.3038  2.1285
  157SAPE  C21117532   3.211   1.774   9.212  0.2642  0.0739  0.0237
  157SAPE  H11R17533   3.220   1.884   9.216 -0.7470  0.1152  1.8350
  157SAPE  C21217534   3.189   1.712   9.089  0.3470  0.3855  0.5032
  157SAPE  H12R17535   3.173   1.766   8.994  1.4057  0.8725  0.5935
  157SAPE  C21317536   3.196   1.560   9.063 -0.2333  0.0077  1.0783
  157SAPE  H13R17537   3.114   1.545   8.990 -0.5976  3.0152  0.7187
  157SAPE  H13S17538   3.170   1.501   9.154 -2.1644 -0.8593  0.0262
  157SAPE  C21417539   3.329   1.509   9.013  0.2173 -0.4654  0.2295
  157SAPE  H14R17540   3.403   1.490   9.092 -0.4575  1.2138  1.3281
  157SAPE  C21517541   3.352   1.458   8.893  0.1348 -0.6873 -0.6389
  157SAPE  H15R17542   3.449   1.410   8.870  0.7228 -0.4599  1.1862
  157SAPE  C21617543   3.260   1.441   8.778  0.7255 -0.1050 -0.0036
  157SAPE  H16R17544   3.156   1.453   8.815  1.2167  0.0865  1.4068
  157SAPE  H16S17545   3.266   1.340   8.733 -4.1243 -1.2886  1.3644
  157SAPE  C21717546   3.290   1.543   8.666 -0.8058  0.0855  0.1820
  157SAPE  H17R17547   3.252   1.643   8.695 -0.7849  0.9238 -2.4303
  157SAPE  H17S17548   3.237   1.516   8.572 -5.2325  0.9483  2.1587
  157SAPE  C21817549   3.434   1.553   8.617 -0.4055 -0.2682  0.3155
  157SAPE  H18R17550   3.467   1.452   8.587 -0.3030  0.1399 -0.9848
  157SAPE  H18S17551   3.487   1.597   8.705  1.2181 -1.0969 -0.2049
  157SAPE  C21917552   3.459   1.639   8.497 -0.4298 -0.3176  0.2965
  157SAPE  H19R17553   3.428   1.745   8.511 -2.3930 -0.3473 -2.7849
  157SAPE  H19S17554   3.386   1.604   8.420 -3.5177  4.0552  0.8169
  157SAPE  C22017555   3.602   1.635   8.432  0.8886  0.0977  0.1371
  157SAPE  H20R17556   3.680   1.661   8.508  0.7711  1.1255 -0.0853
  157SAPE  H20S17557   3.607   1.697   8.340 -1.5778  0.7690  0.4032
  157SAPE  H20T17558   3.635   1.535   8.397  1.9193  0.0358  1.1911
  157SAPE   C3317559   3.748   2.283  10.116 -0.0727  0.4864 -0.2489
  157SAPE   H3X17560   3.828   2.227  10.168 -0.0759  0.3664 -0.3712
  157SAPE   H3Y17561   3.715   2.363  10.185 -0.7762 -1.1543  1.3852
  157SAPE   C3417562   3.775   2.345   9.975  0.3092  0.4617 -0.4726
  157SAPE   H4X17563   3.801   2.453   9.978 -2.6241  1.2730 -0.7545
  157SAPE   H4Y17564   3.680   2.331   9.919  1.4185  1.5327 -2.7211
  157SAPE   C3517565   3.879   2.265   9.898  0.8861 -1.2273 -0.0702
  157SAPE   H5X17566   3.836   2.163   9.888  1.7001 -1.7134  1.0518
  157SAPE   H5Y17567   3.968   2.252   9.964  0.8144 -0.1916  0.2450
  157SAPE   C3617568   3.915   2.337   9.772  0.4264  0.0191 -0.6492
  157SAPE   H6X17569   3.975   2.427   9.797  1.2247 -0.6324 -0.1948
  157SAPE   H6Y17570   3.818   2.371   9.729 -0.2965  0.2791  1.1070
  157SAPE   C3717571   3.973   2.244   9.660 -0.1459  0.0902  0.3663
  157SAPE   H7X17572   3.921   2.150   9.632 -0.5739  0.9089 -1.7040
  157SAPE   H7Y17573   4.064   2.197   9.704  0.4533  0.1992 -0.7188
  157SAPE   C3817574   4.008   2.319   9.541 -0.8021 -0.1894 -0.6017
  157SAPE   H8X17575   4.085   2.396   9.563 -1.2651  0.2469 -0.4891
  157SAPE   H8Y17576   3.920   2.373   9.500  0.4540  3.0166  0.5713
  157SAPE   C3917577   4.076   2.236   9.427  0.0785 -0.4443 -0.1794
  157SAPE   H9X17578   3.998   2.172   9.380 -0.1112  1.4448 -2.6275
  157SAPE   H9Y17579   4.163   2.177   9.460  0.7478 -0.2054 -1.4614
  157SAPE  C31017580   4.131   2.338   9.324 -1.4092  0.1113  0.4231
  157SAPE  H10X17581   4.207   2.397   9.379 -1.8110  0.0653  1.0306
  157SAPE  H10Y17582   4.058   2.404   9.272  0.6571  0.9842 -1.5424
  157SAPE  C31117583   4.212   2.262   9.217  0.1757  0.2585  0.2666
  157SAPE  H11X17584   4.138   2.189   9.178  1.6180 -1.5930  0.8387
  157SAPE  H11Y17585   4.299   2.209   9.261  0.2136 -0.2308 -0.3958
  157SAPE  C31217586   4.267   2.335   9.092 -0.5456 -0.0278  0.1671
  157SAPE  H12X17587   4.327   2.422   9.127  1.2572 -0.0563 -2.5367
  157SAPE  H12Y17588   4.179   2.370   9.033 -1.0242  0.0413  0.9108
  157SAPE  C31317589   4.352   2.254   8.992 -0.8128 -0.5985 -0.2098
  157SAPE  H13X17590   4.307   2.157   8.959  1.5700 -0.7614 -3.5693
  157SAPE  H13Y17591   4.451   2.234   9.038 -0.2007 -1.9806 -1.9828
  157SAPE  C31417592   4.390   2.339   8.865 -0.2018  0.1981 -0.6624
  157SAPE  H14X17593   4.497   2.370   8.865 -0.4161  1.0424 -2.5822
  157SAPE  H14Y17594   4.333   2.433   8.882  0.8888  0.8947 -0.7366
  157SAPE  C31517595   4.338   2.266   8.741 -0.2558 -0.5294  0.0498
  157SAPE  H15X17596   4.321   2.347   8.667  2.2560 -1.3424 -1.5249
  157SAPE  H15Y17597   4.237   2.227   8.765 -1.0306  1.7818  0.9015
  157SAPE  C31617598   4.431   2.156   8.686 -0.1634 -0.8903  0.6489
  157SAPE  H16X17599   4.421   2.061   8.744  0.7857 -1.9711 -0.8660
  157SAPE  H16Y17600   4.534   2.198   8.687 -0.2438 -0.6392 -0.3595
  157SAPE  C31717601   4.393   2.111   8.538  0.1775 -0.1111 -0.3686
  157SAPE  H17X17602   4.294   2.063   8.532 -0.2488  0.9161 -2.1700
  157SAPE  H17Y17603   4.472   2.040   8.508  1.1094  1.0392 -0.7363
  157SAPE  C31817604   4.402   2.225   8.426  0.1214  0.0565  0.0996
  157SAPE  H18X17605   4.317   2.296   8.423 -1.0749 -1.3421 -0.4926
  157SAPE  H18Y17606   4.407   2.176   8.326 -0.0922 -1.6261  0.8653
  157SAPE  H18Z17607   4.495   2.285   8.434  1.2768 -1.1361 -2.9354
  158SAPE     N17608   5.192   2.841  10.739  0.5349 -0.0727 -0.2602
  158SAPE   HN117609   5.110   2.814  10.680 -1.2122  1.1614  1.4824
  158SAPE   HN217610   5.173   2.925  10.796 -0.6486 -1.7475  1.9740
  158SAPE   HN317611   5.276   2.859  10.680  1.9673  1.7165  2.1747
  158SAPE   C1217612   5.221   2.723  10.828  0.2448 -0.0976 -0.4855
  158SAPE  H12A17613   5.126   2.671  10.853  0.2731  0.2525  0.3914
  158SAPE  H12B17614   5.255   2.766  10.925  0.9410  0.7783 -1.1024
  158SAPE   C1117615   5.331   2.626  10.781  0.0598 -0.2587  0.7866
  158SAPE  H11A17616   5.300   2.579  10.685 -2.6838  1.1680  0.8564
  158SAPE  H11B17617   5.340   2.543  10.853  1.4423 -1.0887 -0.2925
  158SAPE     P17618   5.581   2.616  10.697 -0.0374 -0.2726 -0.0122
  158SAPE   O1317619   5.674   2.720  10.650 -0.3410 -0.2705 -0.1381
  158SAPE   O1417620   5.637   2.511  10.785  0.4084 -0.8049 -0.3735
  158SAPE   O1217621   5.456   2.693  10.771 -0.3445  0.7481 -0.4930
  158SAPE   O1117622   5.512   2.549  10.574  0.0276 -0.3408  0.0733
  158SAPE    C117623   5.483   2.406  10.574 -0.0862 -0.0837 -0.1411
  158SAPE    HA17624   5.469   2.373  10.679  2.2268  2.3630  1.0733
  158SAPE    HB17625   5.389   2.389  10.518 -0.3831 -3.1606  1.0700
  158SAPE    C217626   5.587   2.321  10.504  0.2065  0.8727  0.3949
  158SAPE    HS17627   5.683   2.333  10.560 -0.7350  0.4100  2.1676
  158SAPE   O2117628   5.595   2.374  10.370  0.0244 -0.7945 -0.2997
  158SAPE   C2117629   5.711   2.407  10.317 -0.3233 -0.0199 -0.5754
  158SAPE   O2217630   5.822   2.381  10.365 -0.1729  0.4458 -0.5445
  158SAPE   C2217631   5.693   2.467  10.178  0.4199  0.6245  0.2657
  158SAPE   H2R17632   5.591   2.509  10.172 -0.4997 -1.5351  0.0199
  158SAPE   H2S17633   5.759   2.553  10.156  0.3752  0.5054 -0.3546
  158SAPE    C317634   5.572   2.162  10.479  0.6015  0.4570 -0.5619
  158SAPE    HX17635   5.579   2.124  10.583  3.4650  1.4990 -0.2613
  158SAPE    HY17636   5.669   2.126  10.438  0.7662 -0.1401  0.3250
  158SAPE   O3117637   5.454   2.115  10.411  0.1099  0.2287  0.2029
  158SAPE   C3117638   5.350   2.092  10.486 -0.2648 -1.0407 -0.6362
  158SAPE   O3217639   5.347   2.104  10.605 -0.6159  0.3289 -0.5030
  158SAPE   C3217640   5.237   2.037  10.410 -0.0161 -0.6381 -0.0372
  158SAPE   H2X17641   5.202   2.124  10.351 -0.2929 -0.8525 -0.1908
  158SAPE   H2Y17642   5.160   2.001  10.480 -1.4037  0.5916 -0.8770
  158SAPE   C2317643   5.711   2.359  10.070 -0.3599 -0.0298  1.1331
  158SAPE   H3R17644   5.803   2.303  10.096 -0.2386 -0.4280 -0.1006
  158SAPE   H3S17645   5.716   2.398   9.966 -0.7738  1.4699  1.6345
  158SAPE   C2417646   5.598   2.249  10.071 -0.4997  0.5652  0.6519
  158SAPE   H4R17647   5.564   2.203  10.166 -2.5916 -0.3074 -0.4709
  158SAPE   H4S17648   5.628   2.159  10.013  0.5505  2.0890 -1.3134
  158SAPE   C2517649   5.481   2.318  10.002  0.1571 -0.1858  0.7256
  158SAPE   H5R17650   5.437   2.406  10.051  1.0128  1.1003 -0.7258
  158SAPE   C2617651   5.427   2.277   9.886 -1.1193  0.3557 -0.3053
  158SAPE   H6R17652   5.332   2.323   9.852 -1.3169  0.6999  0.6919
  158SAPE   C2717653   5.469   2.169   9.791 -0.4801  0.0832 -0.5805
  158SAPE   H7R17654   5.401   2.178   9.704  0.0790 -0.5242 -1.0878
  158SAPE   H7S17655   5.437   2.074   9.839 -0.3877  1.2934  2.1039
  158SAPE   C2817656   5.614   2.148   9.746  0.0685  0.8259  0.2642
  158SAPE   H8R17657   5.667   2.078   9.812  1.1252  0.5295 -0.8582
  158SAPE   C2917658   5.682   2.178   9.635 -0.1473 -0.4985  0.7632
  158SAPE   H9R17659   5.785   2.142   9.616 -0.4981 -1.7077  1.0514
  158SAPE  C21017660   5.608   2.249   9.524  0.1877 -0.4293 -0.0836
  158SAPE  H10R17661   5.680   2.326   9.488  0.7984 -0.3214  1.3227
  158SAPE  H10S17662   5.523   2.308   9.566 -0.3142 -1.8624  1.0132
  158SAPE  C21117663   5.550   2.172   9.409 -0.6233 -0.2253 -0.6134
  158SAPE  H11R17664   5.443   2.149   9.403 -0.2553 -1.7521 -2.6912
  158SAPE  C21217665   5.622   2.107   9.315 -0.3551 -0.5234  0.2362
  158SAPE  H12R17666   5.570   2.038   9.246  0.8630 -1.1747 -0.0512
  158SAPE  C21317667   5.773   2.092   9.308  0.0297 -0.5221  0.0878
  158SAPE  H13R17668   5.804   2.023   9.390 -1.1344  0.5757  1.5192
  158SAPE  H13S17669   5.825   2.190   9.318  0.7592 -0.3958 -3.4976
  158SAPE  C21417670   5.822   2.020   9.178  0.1318  0.0815 -0.8759
  158SAPE  H14R17671   5.869   1.921   9.189  1.7521  0.9579  0.7895
  158SAPE  C21517672   5.828   2.069   9.055  0.0647  0.6054  0.2001
  158SAPE  H15R17673   5.874   2.005   8.979 -0.3959  1.0575 -0.4701
  158SAPE  C21617674   5.791   2.207   9.004  0.3527 -0.3567 -0.1705
  158SAPE  H16R17675   5.869   2.229   8.928 -0.4709  0.2932 -0.8560
  158SAPE  H16S17676   5.789   2.282   9.086 -0.1817 -1.1500  0.5603
  158SAPE  C21717677   5.661   2.203   8.915 -0.1978 -0.3585  0.2373
  158SAPE  H17R17678   5.637   2.304   8.876  2.8074 -0.2932 -1.7919
  158SAPE  H17S17679   5.577   2.157   8.971 -1.6663  3.1909  1.1918
  158SAPE  C21817680   5.673   2.112   8.786  0.2158  1.0865 -0.0177
  158SAPE  H18R17681   5.570   2.094   8.750  1.2168 -0.9202 -2.1779
  158SAPE  H18S17682   5.711   2.011   8.811  1.5720  1.2546 -1.2506
  158SAPE  C21917683   5.761   2.172   8.673 -0.0721 -0.5207 -0.1475
  158SAPE  H19R17684   5.864   2.186   8.712 -0.4493 -3.6133  2.2750
  158SAPE  H19S17685   5.720   2.274   8.656 -0.0903 -0.5050 -0.0123
  158SAPE  C22017686   5.753   2.105   8.539  0.2880  0.0095 -0.1367
  158SAPE  H20R17687   5.838   2.034   8.532  0.3539  0.1749 -1.2619
  158SAPE  H20S17688   5.752   2.172   8.450  2.1368 -0.1276 -0.2941
  158SAPE  H20T17689   5.663   2.041   8.527  0.7757 -1.0626  1.5647
  158SAPE   C3317690   5.281   1.922  10.319 -0.5411 -0.3269  0.4308
  158SAPE   H3X17691   5.368   1.865  10.358  0.0069 -0.5736 -1.0904
  158SAPE   H3Y17692   5.327   1.971  10.230 -2.3218  1.2135  0.3059
  158SAPE   C3417693   5.157   1.838  10.271  0.2123  0.2918  0.0960
  158SAPE   H4X17694   5.093   1.824  10.361 -0.8754 -2.3161 -0.9906
  158SAPE   H4Y17695   5.181   1.735  10.236 -2.1370 -0.1326 -0.4106
  158SAPE   C3517696   5.080   1.911  10.158 -1.3453  0.2811 -0.5708
  158SAPE   H5X17697   5.048   2.004  10.209  0.6891  0.3256  0.7323
  158SAPE   H5Y17698   4.990   1.854  10.126 -0.7151 -0.5279 -0.9397
  158SAPE   C3617699   5.161   1.939  10.032  0.4500 -0.1454 -0.2884
  158SAPE   H6X17700   5.270   1.923  10.044  0.0411 -2.8975  0.4840
  158SAPE   H6Y17701   5.150   2.049  10.016  1.3906  0.4676  2.6064
  158SAPE   C3717702   5.121   1.850   9.916  0.3218 -0.0047 -0.0448
  158SAPE   H7X17703   5.013   1.873   9.906 -0.3569  0.2277  4.9881
  158SAPE   H7Y17704   5.133   1.747   9.955 -0.2123 -2.1422 -4.8544
  158SAPE   C3817705   5.205   1.857   9.794  0.0268  0.2957 -0.0017
  158SAPE   H8X17706   5.314   1.862   9.814 -0.0372  0.2564  0.3592
  158SAPE   H8Y17707   5.172   1.948   9.739 -0.4250  0.0483 -0.1386
  158SAPE   C3917708   5.174   1.736   9.699  0.0498 -0.4966 -0.1971
  158SAPE   H9X17709   5.071   1.747   9.659 -0.4215  0.3097  1.1835
  158SAPE   H9Y17710   5.181   1.636   9.747  0.0578 -1.2871 -1.7669
  158SAPE  C31017711   5.257   1.721   9.572 -0.0537  0.2541 -0.4879
  158SAPE  H10X17712   5.219   1.634   9.514  1.1714 -1.5890  1.2733
  158SAPE  H10Y17713   5.364   1.694   9.582 -0.4959 -2.4900 -1.9170
  158SAPE  C31117714   5.256   1.854   9.488 -0.3154  0.3665 -0.3124
  158SAPE  H11X17715   5.314   1.931   9.544 -0.9109  1.1564 -0.7621
  158SAPE  H11Y17716   5.151   1.888   9.475 -0.9766 -0.0079  3.0805
  158SAPE  C31217717   5.324   1.847   9.347 -0.4635  0.1550 -0.2584
  158SAPE  H12X17718   5.413   1.781   9.338  0.9578  1.6702  1.6360
  158SAPE  H12Y17719   5.356   1.950   9.321 -1.1012 -0.0717 -2.0656
  158SAPE  C31317720   5.217   1.808   9.252 -0.4682  0.2035  0.5068
  158SAPE  H13X17721   5.139   1.887   9.245 -1.0282 -0.1388  2.3185
  158SAPE  H13Y17722   5.168   1.716   9.292  1.2437 -1.3720 -0.8741
  158SAPE  C31417723   5.279   1.786   9.112 -0.6105  0.8151  0.4267
  158SAPE  H14X17724   5.364   1.714   9.115 -0.7984  0.5513  3.5731
  158SAPE  H14Y17725   5.321   1.885   9.087 -1.0875  1.0735  0.6334
  158SAPE  C31517726   5.173   1.736   9.013  0.3574 -0.0096  0.4047
  158SAPE  H15X17727   5.101   1.819   8.995 -0.3654 -1.1199 -2.3336
  158SAPE  H15Y17728   5.124   1.648   9.061  1.2725 -0.1021  1.2028
  158SAPE  C31617729   5.228   1.685   8.876  0.3883  0.6193 -0.5449
  158SAPE  H16X17730   5.302   1.761   8.841  0.9825 -0.0058 -0.6586
  158SAPE  H16Y17731   5.141   1.681   8.806  1.1042  2.1072 -1.5655
  158SAPE  C31717732   5.287   1.543   8.898  0.0025  0.0044  0.2894
  158SAPE  H17X17733   5.371   1.541   8.971  0.6758 -2.1946 -0.4765
  158SAPE  H17Y17734   5.338   1.525   8.801 -1.2166 -0.0671 -0.3631
  158SAPE  C31817735   5.193   1.427   8.927 -0.2841  0.4156  0.4091
  158SAPE  H18X17736   5.110   1.406   8.857 -0.3319 -2.2324  1.1429
  158SAPE  H18Y17737   5.150   1.423   9.030  0.7250 -0.2170  0.8264
  158SAPE  H18Z17738   5.258   1.336   8.929 -0.2874  0.4100  0.2535
  159SAPE     N17739   4.307   5.726   6.078 -0.1899  0.7464 -0.9636
  159SAPE   HN117740   4.243   5.645   6.083  2.2843 -1.2906  0.3747
  159SAPE   HN217741   4.265   5.811   6.036 -2.8195 -0.6550 -1.3520
  159SAPE   HN317742   4.390   5.696   6.022 -1.8028  1.4664 -3.9433
  159SAPE   C1217743   4.340   5.758   6.220 -0.2327 -0.0898  0.3792
  159SAPE  H12A17744   4.252   5.796   6.276  0.3181 -0.7271  1.7197
  159SAPE  H12B17745   4.422   5.831   6.207 -0.7100  0.2078 -1.2941
  159SAPE   C1117746   4.387   5.635   6.294 -0.1226  0.1684 -0.4861
  159SAPE  H11A17747   4.464   5.582   6.234 -0.1442 -1.0623  0.5244
  159SAPE  H11B17748   4.307   5.558   6.299  1.4750 -1.7707 -2.5424
  159SAPE     P17749   4.396   5.585   6.546 -0.9800  0.0222  0.1303
  159SAPE   O1317750   4.484   5.600   6.670 -0.3832  0.1398  0.0537
  159SAPE   O1417751   4.248   5.611   6.558 -0.1183  0.7725 -0.3258
  159SAPE   O1217752   4.441   5.679   6.426 -0.0916 -0.2054  0.1210
  159SAPE   O1117753   4.428   5.443   6.474 -0.2641  0.4232 -0.6639
  159SAPE    C117754   4.347   5.326   6.494  0.4223 -0.7319  0.1860
  159SAPE    HA17755   4.240   5.354   6.506  0.8835  0.7700  1.0865
  159SAPE    HB17756   4.357   5.264   6.402 -0.3283  0.2761 -0.6110
  159SAPE    C217757   4.393   5.243   6.614 -0.1200 -0.2611 -0.2450
  159SAPE    HS17758   4.339   5.146   6.613 -0.2709 -0.1844 -1.6591
  159SAPE   O2117759   4.368   5.324   6.735  0.1007  0.3413  0.0688
  159SAPE   C2117760   4.325   5.256   6.835 -1.0703 -0.2901 -0.8980
  159SAPE   O2217761   4.307   5.137   6.842  0.2018 -0.0491  0.1901
  159SAPE   C2217762   4.291   5.348   6.960  0.1251  0.4510  0.0289
  159SAPE   H2R17763   4.375   5.420   6.973  0.6703  0.0523 -1.1269
  159SAPE   H2S17764   4.198   5.402   6.934 -1.1961 -2.2498 -1.2566
  159SAPE    C317765   4.547   5.223   6.604  0.1672  0.3183 -0.2358
  159SAPE    HX17766   4.595   5.322   6.585  0.5527  0.1231 -0.2754
  159SAPE    HY17767   4.565   5.161   6.514  1.0460  0.2002  0.0168
  159SAPE   O3117768   4.599   5.158   6.722  0.4495  0.0086 -0.1496
  159SAPE   C3117769   4.579   5.031   6.738 -0.2942 -0.2329  0.0848
  159SAPE   O3217770   4.530   4.950   6.657 -0.0044 -0.1201 -0.6219
  159SAPE   C3217771   4.626   4.997   6.887  0.0774  0.4470  0.1874
  159SAPE   H2X17772   4.539   4.991   6.955  0.7375 -1.3920  0.9412
  159SAPE   H2Y17773   4.697   5.076   6.921  1.0582 -0.1643 -0.3772
  159SAPE   C2317774   4.255   5.276   7.095  0.0320  0.0129  0.0822
  159SAPE   H3R17775   4.345   5.222   7.131 -0.9227 -0.9572  1.1008
  159SAPE   H3S17776   4.183   5.194   7.072 -0.0787 -0.3081  1.5079
  159SAPE   C2417777   4.209   5.374   7.206  0.2194 -0.0317  0.0997
  159SAPE   H4R17778   4.183   5.311   7.293  0.8304 -1.6517 -0.8557
  159SAPE   H4S17779   4.111   5.415   7.172  0.3522 -0.5838 -0.9882
  159SAPE   C2517780   4.303   5.491   7.245 -0.1963  0.1991 -0.1426
  159SAPE   H5R17781   4.288   5.577   7.177 -3.7537 -0.7471 -0.7895
  159SAPE   C2617782   4.371   5.503   7.356 -1.0646 -0.0226  0.6683
  159SAPE   H6R17783   4.436   5.592   7.364 -1.6816  0.7485 -1.9301
  159SAPE   C2717784   4.390   5.404   7.469  0.6087  0.1052  0.2628
  159SAPE   H7R17785   4.497   5.419   7.497  0.8776  1.2306 -1.2407
  159SAPE   H7S17786   4.381   5.302   7.427  0.2105 -0.0839  0.7930
  159SAPE   C2817787   4.296   5.429   7.586  0.0421  0.1345  0.6602
  159SAPE   H8R17788   4.213   5.498   7.569 -0.0643  1.0382  4.1613
  159SAPE   C2917789   4.303   5.378   7.703 -0.1767 -0.3551  0.3270
  159SAPE   H9R17790   4.228   5.411   7.777 -0.4476 -1.2359  0.4568
  159SAPE  C21017791   4.403   5.281   7.755  0.0084  0.4461 -0.8250
  159SAPE  H10R17792   4.453   5.216   7.680  1.4531 -0.1155  0.5732
  159SAPE  H10S17793   4.354   5.201   7.814  1.7151  0.5688  0.8635
  159SAPE  C21117794   4.508   5.341   7.840 -0.1374  0.3273  0.6187
  159SAPE  H11R17795   4.543   5.442   7.813  0.1243  0.7107  2.2757
  159SAPE  C21217796   4.576   5.280   7.938  0.5831  0.9719  0.4814
  159SAPE  H12R17797   4.658   5.335   7.987  1.1059  1.5990 -1.0197
  159SAPE  C21317798   4.550   5.142   8.004 -0.0016 -0.0123  0.0983
  159SAPE  H13R17799   4.478   5.157   8.088 -0.6004  0.7877 -0.5365
  159SAPE  H13S17800   4.646   5.107   8.046  0.2181 -1.1179 -1.2740
  159SAPE  C21417801   4.513   5.027   7.916 -0.5590  0.2258 -0.2110
  159SAPE  H14R17802   4.412   4.986   7.930 -0.4596 -0.2067 -0.7425
  159SAPE  C21517803   4.594   4.967   7.831 -0.0971  0.1847  1.2151
  159SAPE  H15R17804   4.555   4.883   7.772 -2.6704  0.0404  2.9579
  159SAPE  C21617805   4.745   4.993   7.805  0.5644  0.5607  0.2312
  159SAPE  H16R17806   4.800   4.948   7.891  0.2488  0.5959  0.4547
  159SAPE  H16S17807   4.761   5.102   7.820  0.3784  0.4104  1.6764
  159SAPE  C21717808   4.795   4.943   7.669  0.0966  0.7895 -0.4231
  159SAPE  H17R17809   4.784   4.833   7.657  0.8793  0.7076 -0.4464
  159SAPE  H17S17810   4.898   4.983   7.662  0.3183 -0.0399 -2.8079
  159SAPE  C21817811   4.711   4.998   7.551 -0.6778 -0.2226  1.0436
  159SAPE  H18R17812   4.703   5.109   7.557 -0.2998  0.0849 -2.1968
  159SAPE  H18S17813   4.607   4.961   7.555 -1.2656  0.5998 -2.6438
  159SAPE  C21917814   4.768   4.963   7.410 -0.1744 -0.0934  0.7751
  159SAPE  H19R17815   4.871   5.001   7.400  0.1248 -1.1597 -0.4475
  159SAPE  H19S17816   4.692   5.009   7.343 -0.9815 -2.5947 -0.1578
  159SAPE  C22017817   4.769   4.817   7.385 -0.3813  0.4244  0.7281
  159SAPE  H20R17818   4.676   4.777   7.431 -0.3265 -0.4385  0.0986
  159SAPE  H20S17819   4.847   4.764   7.444 -0.9601 -0.7168  0.5011
  159SAPE  H20T17820   4.758   4.780   7.281 -2.6476 -0.9038  1.3599
  159SAPE   C3317821   4.698   4.859   6.871  0.0027  0.2508 -0.1744
  159SAPE   H3X17822   4.787   4.858   6.804 -0.8562 -1.7691 -1.3509
  159SAPE   H3Y17823   4.624   4.785   6.834 -0.3075  0.5136 -0.0828
  159SAPE   C3417824   4.755   4.805   6.999 -0.0298 -0.8904 -0.4698
  159SAPE   H4X17825   4.684   4.764   7.074  1.5824  1.1049  2.3480
  159SAPE   H4Y17826   4.807   4.889   7.050 -2.0521  1.6346 -2.2341
  159SAPE   C3517827   4.858   4.694   6.973  0.4516 -0.1830 -0.2861
  159SAPE   H5X17828   4.915   4.724   6.883  0.2310  0.9814 -0.0578
  159SAPE   H5Y17829   4.809   4.597   6.948 -1.1280  0.3137  0.7328
  159SAPE   C3617830   4.958   4.687   7.094  0.0673 -0.0963 -0.4014
  159SAPE   H6X17831   4.885   4.667   7.176 -0.2030 -0.6240 -0.7685
  159SAPE   H6Y17832   5.012   4.781   7.120 -0.1438 -0.0491 -0.1250
  159SAPE   C3717833   5.063   4.576   7.077 -0.1210 -0.4687  0.1650
  159SAPE   H7X17834   5.109   4.589   6.976  0.8304 -0.7868  0.5498
  159SAPE   H7Y17835   5.008   4.482   7.096 -0.0008 -0.2616  1.6365
  159SAPE   C3817836   5.176   4.602   7.176  0.2033 -0.1694  0.9634
  159SAPE   H8X17837   5.224   4.701   7.164  1.6519 -0.9215  0.3744
  159SAPE   H8Y17838   5.254   4.524   7.165 -0.3598 -0.4639 -1.5733
  159SAPE   C3917839   5.115   4.612   7.322  0.8635 -0.6018  0.5369
  159SAPE   H9X17840   5.054   4.519   7.332  0.0533 -0.0170  1.1767
  159SAPE   H9Y17841   5.057   4.707   7.319  1.0926 -0.4823 -1.0242
  159SAPE  C31017842   5.213   4.602   7.425  0.4594 -0.4063 -0.4504
  159SAPE  H10X17843   5.295   4.678   7.422  0.8402 -0.7968 -0.0346
  159SAPE  H10Y17844   5.254   4.501   7.404  0.2331 -0.6234  0.1164
  159SAPE  C31117845   5.155   4.609   7.566 -0.4223 -0.6618 -0.5869
  159SAPE  H11X17846   5.061   4.551   7.563 -0.9540  0.0728  0.8123
  159SAPE  H11Y17847   5.129   4.713   7.596  0.9817 -0.3765 -0.2539
  159SAPE  C31217848   5.248   4.533   7.667  1.0788 -0.5899 -0.7132
  159SAPE  H12X17849   5.338   4.598   7.678  0.0672  0.6821  0.3735
  159SAPE  H12Y17850   5.282   4.436   7.625  1.7126 -0.2150 -1.0893
  159SAPE  C31317851   5.190   4.514   7.808 -0.2986  0.3823 -0.4509
  159SAPE  H13X17852   5.274   4.479   7.873 -1.5598  1.1102  1.6983
  159SAPE  H13Y17853   5.117   4.430   7.810 -0.8833  0.8429  2.4169
  159SAPE  C31417854   5.124   4.636   7.876 -0.3585  0.0577  0.4854
  159SAPE  H14X17855   5.028   4.671   7.832  0.6697  2.2595 -0.1218
  159SAPE  H14Y17856   5.204   4.713   7.864 -0.7149  0.5599  1.3058
  159SAPE  C31517857   5.088   4.585   8.015 -0.3512 -0.4195  0.7810
  159SAPE  H15X17858   5.179   4.610   8.074  0.1646  1.0121 -0.5623
  159SAPE  H15Y17859   5.069   4.475   8.013  0.4810 -0.5493 -0.8226
  159SAPE  C31617860   4.970   4.655   8.084  0.5552  0.1401 -0.5580
  159SAPE  H16X17861   4.880   4.652   8.019  0.0331 -0.8483  0.1918
  159SAPE  H16Y17862   5.001   4.756   8.117  2.3663 -0.3396 -0.6687
  159SAPE  C31717863   4.940   4.574   8.213 -0.4374 -0.0011 -0.9649
  159SAPE  H17X17864   5.025   4.586   8.284 -1.1015  0.0300 -0.1487
  159SAPE  H17Y17865   4.930   4.466   8.190  1.5474 -0.6010  0.6670
  159SAPE  C31817866   4.816   4.626   8.283  0.8710  0.4500  0.2258
  159SAPE  H18X17867   4.729   4.629   8.214  0.4969  1.5644  0.7174
  159SAPE  H18Y17868   4.830   4.727   8.327  1.4575  2.2989 -3.7473
  159SAPE  H18Z17869   4.786   4.560   8.366 -2.5465 -0.0808 -1.2677
  160SAPE     N17870   3.428   6.125   6.524  0.2229 -0.0512 -0.0394
  160SAPE   HN117871   3.506   6.129   6.455  0.6697 -0.3880  0.4347
  160SAPE   HN217872   3.447   6.193   6.601 -1.1746 -1.3038  1.4892
  160SAPE   HN317873   3.418   6.035   6.575  0.3975  0.5918  1.1780
  160SAPE   C1217874   3.307   6.172   6.447 -0.5907 -0.1453 -0.1332
  160SAPE  H12A17875   3.218   6.160   6.512 -0.1432  0.0955  0.5308
  160SAPE  H12B17876   3.303   6.119   6.349  0.0017  1.1799 -0.9092
  160SAPE   C1117877   3.326   6.324   6.411 -0.2252  0.6048 -0.4822
  160SAPE  H11A17878   3.250   6.370   6.345  0.4127  1.1753 -0.8367
  160SAPE  H11B17879   3.420   6.324   6.351  0.9155 -1.1983  1.2185
  160SAPE     P17880   3.340   6.566   6.527 -0.0177  0.2818  0.0835
  160SAPE   O1317881   3.358   6.614   6.392 -0.1233  0.0832  0.3736
  160SAPE   O1417882   3.219   6.609   6.592  0.1299  0.1329 -0.1289
  160SAPE   O1217883   3.338   6.402   6.529 -0.2736 -0.0302 -0.1194
  160SAPE   O1117884   3.469   6.611   6.607  0.5698 -0.0917 -0.0958
  160SAPE    C117885   3.568   6.520   6.650  0.1543 -0.2425 -0.0590
  160SAPE    HA17886   3.575   6.421   6.601 -2.9299 -0.7334  0.3236
  160SAPE    HB17887   3.668   6.566   6.630 -0.3817  2.6173  2.8793
  160SAPE    C217888   3.561   6.503   6.807  0.3104 -0.0752 -0.6255
  160SAPE    HS17889   3.634   6.426   6.841  4.1414  2.9514 -1.2029
  160SAPE   O2117890   3.428   6.470   6.856 -0.2503  0.2060  0.5252
  160SAPE   C2117891   3.385   6.348   6.834  0.0273 -0.2139 -0.0723
  160SAPE   O2217892   3.446   6.262   6.767  0.1982 -0.1785  0.9775
  160SAPE   C2217893   3.256   6.343   6.913  0.3148  0.7527  0.0538
  160SAPE   H2R17894   3.188   6.422   6.874 -2.2498 -0.1520  2.4004
  160SAPE   H2S17895   3.202   6.255   6.872 -1.5893  1.3591  1.1725
  160SAPE    C317896   3.608   6.641   6.879 -0.4421  0.2898 -0.2898
  160SAPE    HX17897   3.569   6.727   6.820 -1.0855  0.6602  0.6633
  160SAPE    HY17898   3.717   6.657   6.867 -0.5284  2.1874  1.0409
  160SAPE   O3117899   3.563   6.649   7.017  0.5263  0.0929  0.0312
  160SAPE   C3117900   3.447   6.705   7.046 -1.0901 -0.0490 -0.0821
  160SAPE   O3217901   3.368   6.751   6.962 -0.3857  0.5092 -0.3269
  160SAPE   C3217902   3.437   6.723   7.194 -0.1497 -0.4726 -0.0686
  160SAPE   H2X17903   3.397   6.624   7.226  0.8295 -1.6566 -2.2852
  160SAPE   H2Y17904   3.362   6.802   7.215 -0.1654 -0.5440  0.1470
  160SAPE   C2317905   3.268   6.327   7.067 -0.0268  0.6949  0.1296
  160SAPE   H3R17906   3.339   6.409   7.093  0.5488  1.5156 -3.5516
  160SAPE   H3S17907   3.323   6.235   7.096 -0.4270  1.0019  1.9917
  160SAPE   C2417908   3.133   6.321   7.136  0.1134  1.2759  0.1380
  160SAPE   H4R17909   3.153   6.261   7.228  0.5628  0.5420 -0.4276
  160SAPE   H4S17910   3.056   6.271   7.073 -0.4821  1.8045  0.4388
  160SAPE   C2517911   3.084   6.454   7.184  0.4068  0.1733 -0.5857
  160SAPE   H5R17912   3.010   6.503   7.120  1.1256  0.9535 -0.8257
  160SAPE   C2617913   3.131   6.523   7.290  0.3136 -0.0710 -0.0689
  160SAPE   H6R17914   3.077   6.616   7.314  0.6745  0.8534 -2.5977
  160SAPE   C2717915   3.233   6.475   7.388  1.0364 -0.3660 -1.2243
  160SAPE   H7R17916   3.334   6.468   7.343  2.1541  0.8675  0.9417
  160SAPE   H7S17917   3.191   6.382   7.433  2.1088 -0.6168 -0.7114
  160SAPE   C2817918   3.248   6.569   7.506  1.2359 -0.7488  0.4508
  160SAPE   H8R17919   3.164   6.639   7.518 -0.1174 -2.2799  0.2535
  160SAPE   C2917920   3.341   6.567   7.604 -0.2753  0.1722 -0.4204
  160SAPE   H9R17921   3.338   6.651   7.675  2.2845  0.8019 -0.9536
  160SAPE  C21017922   3.458   6.469   7.617 -0.3453 -0.3276 -0.1189
  160SAPE  H10R17923   3.554   6.526   7.619  0.1502 -0.9564 -2.5689
  160SAPE  H10S17924   3.468   6.397   7.533 -3.1807 -3.1204  1.7013
  160SAPE  C21117925   3.455   6.382   7.747  0.0810 -0.1338 -0.5616
  160SAPE  H11R17926   3.369   6.313   7.744 -0.5723  0.6367 -0.0948
  160SAPE  C21217927   3.535   6.382   7.854  0.3352  0.7146 -0.0862
  160SAPE  H12R17928   3.496   6.319   7.936 -0.9381 -0.0529 -1.2327
  160SAPE  C21317929   3.654   6.469   7.889 -0.1058 -0.6028 -0.0646
  160SAPE  H13R17930   3.645   6.499   7.996 -4.8937  0.7792 -0.6335
  160SAPE  H13S17931   3.648   6.564   7.834 -1.8694  0.5609  2.0004
  160SAPE  C21417932   3.787   6.410   7.859  0.1097 -0.0280  0.2142
  160SAPE  H14R17933   3.806   6.381   7.754 -0.8496  0.5944 -0.1493
  160SAPE  C21517934   3.885   6.386   7.945 -0.7254 -0.4153  0.5717
  160SAPE  H15R17935   3.979   6.342   7.907  0.6139  1.1373  1.8972
  160SAPE  C21617936   3.884   6.417   8.093  0.5300 -0.2241  0.4235
  160SAPE  H16R17937   3.800   6.487   8.117  0.5567 -0.0161 -0.0689
  160SAPE  H16S17938   3.968   6.483   8.125 -0.3652  0.1248  2.1764
  160SAPE  C21717939   3.898   6.309   8.189 -0.7057 -0.0613 -0.4638
  160SAPE  H17R17940   3.993   6.253   8.180 -1.5298 -1.2602 -2.2919
  160SAPE  H17S17941   3.809   6.243   8.176 -1.2034  0.6822 -0.9089
  160SAPE  C21817942   3.887   6.363   8.338 -0.6974  0.5440  0.0477
  160SAPE  H18R17943   3.980   6.418   8.363  0.2344 -1.0084  0.1580
  160SAPE  H18S17944   3.886   6.268   8.397 -1.5500  1.5829  1.7725
  160SAPE  C21917945   3.766   6.454   8.366 -0.5976 -0.4866  0.8179
  160SAPE  H19R17946   3.676   6.408   8.320 -0.0009 -0.7521 -0.1063
  160SAPE  H19S17947   3.773   6.548   8.307  0.0904 -0.9503  0.1448
  160SAPE  C22017948   3.732   6.484   8.515 -0.6113 -0.0885 -0.1612
  160SAPE  H20R17949   3.696   6.383   8.545 -2.5937  1.4217  3.1300
  160SAPE  H20S17950   3.654   6.563   8.515 -1.2939 -0.7389 -0.9507
  160SAPE  H20T17951   3.825   6.519   8.565 -0.2923 -1.0769 -0.0358
  160SAPE   C3317952   3.569   6.760   7.257  0.1098  0.2613  0.0458
  160SAPE   H3X17953   3.585   6.861   7.214 -0.8252  0.3173 -0.2006
  160SAPE   H3Y17954   3.653   6.699   7.217  1.9469  2.3204  0.5784
  160SAPE   C3417955   3.565   6.752   7.409  0.6056  0.3215 -0.0848
  160SAPE   H4X17956   3.582   6.644   7.431 -0.5030  0.0420 -0.5279
  160SAPE   H4Y17957   3.464   6.780   7.445  0.7509  0.0734  0.5466
  160SAPE   C3517958   3.682   6.829   7.473 -0.1521 -0.0509 -0.7885
  160SAPE   H5X17959   3.657   6.936   7.459  0.8984  0.4329  0.6685
  160SAPE   H5Y17960   3.776   6.806   7.419  1.7094  2.8856  0.8890
  160SAPE   C3617961   3.696   6.798   7.622 -0.4875  0.2264  0.2686
  160SAPE   H6X17962   3.756   6.704   7.622 -0.2648  0.3378 -1.3802
  160SAPE   H6Y17963   3.598   6.764   7.662 -0.4858 -2.6642 -1.7886
  160SAPE   C3717964   3.773   6.902   7.710  0.0079  0.3853  0.2449
  160SAPE   H7X17965   3.727   7.003   7.717  1.7015  1.1850  0.4865
  160SAPE   H7Y17966   3.875   6.913   7.665 -0.6660  0.4846 -1.3375
  160SAPE   C3817967   3.794   6.849   7.848  0.4371 -0.1762 -0.1675
  160SAPE   H8X17968   3.873   6.911   7.895  0.8889 -0.3077 -0.7460
  160SAPE   H8Y17969   3.835   6.746   7.838 -1.7002 -1.1336  0.2616
  160SAPE   C3917970   3.676   6.827   7.938 -0.4521 -0.8075 -0.0118
  160SAPE   H9X17971   3.594   6.761   7.901 -1.7430  0.7058  0.0499
  160SAPE   H9Y17972   3.629   6.925   7.963 -0.4372 -1.3449  2.4645
  160SAPE  C31017973   3.715   6.775   8.075 -0.6938  0.7701 -0.3988
  160SAPE  H10X17974   3.768   6.682   8.046 -0.6731  0.9613 -0.9906
  160SAPE  H10Y17975   3.622   6.735   8.122  0.2296 -0.3063  0.5419
  160SAPE  C31117976   3.806   6.859   8.164 -0.0928  0.1240 -0.4194
  160SAPE  H11X17977   3.899   6.880   8.107 -0.4619  0.8814 -0.7581
  160SAPE  H11Y17978   3.843   6.786   8.239  1.4915  3.0034  1.8062
  160SAPE  C31217979   3.744   6.976   8.230 -0.3357 -0.1869 -0.0594
  160SAPE  H12X17980   3.650   6.945   8.280 -0.2646 -0.5976 -0.1837
  160SAPE  H12Y17981   3.703   7.053   8.160 -2.4589 -1.3206 -0.1343
  160SAPE  C31317982   3.840   7.027   8.333 -0.6716 -0.3293 -0.2841
  160SAPE  H13X17983   3.925   7.083   8.288 -1.8719  3.3097  1.5934
  160SAPE  H13Y17984   3.887   6.935   8.377 -3.2777 -1.0220  1.2643
  160SAPE  C31417985   3.787   7.121   8.440  0.2097 -0.1041 -0.7094
  160SAPE  H14X17986   3.709   7.061   8.493 -1.9497  1.6634 -1.7573
  160SAPE  H14Y17987   3.733   7.204   8.391 -0.5182 -0.4933 -0.5952
  160SAPE  C31517988   3.901   7.178   8.534  0.0180  0.4947  0.2440
  160SAPE  H15X17989   3.973   7.097   8.560  0.3902  1.0541  1.0034
  160SAPE  H15Y17990   3.869   7.231   8.626 -0.2283  0.5956  0.0997
  160SAPE  C31617991   3.982   7.284   8.468 -0.2209 -0.1500  0.3820
  160SAPE  H16X17992   4.007   7.257   8.363  0.7239 -1.2554  0.8746
  160SAPE  H16Y17993   4.081   7.293   8.517 -0.1583  1.1342  0.0695
  160SAPE  C31717994   3.907   7.426   8.467  0.0903  0.7731  0.0321
  160SAPE  H17X17995   3.875   7.450   8.571  0.4223 -0.8346  0.5291
  160SAPE  H17Y17996   3.818   7.427   8.400  0.2990 -0.3674 -0.2802
  160SAPE  C31817997   4.001   7.540   8.419  0.0909 -0.1890  0.9748
  160SAPE  H18X17998   3.994   7.534   8.308 -2.9241  0.6183  1.0342
  160SAPE  H18Y17999   4.102   7.523   8.463 -0.1441  0.4083  1.7697
  160SAPE  H18Z18000   3.951   7.636   8.443 -0.6611 -0.1554 -0.5773
  161SAPE     N18001   6.000   5.516   6.258 -0.0702 -0.6816  0.2060
  161SAPE   HN118002   5.935   5.595   6.239  0.2954 -0.4954 -0.2716
  161SAPE   HN218003   6.081   5.555   6.310 -0.7516  1.7556 -0.4573
  161SAPE   HN318004   6.033   5.482   6.166 -0.6947 -2.9826  0.7594
  161SAPE   C1218005   5.924   5.407   6.333  0.4505 -1.0856 -0.5835
  161SAPE  H12A18006   5.825   5.414   6.284  0.0770  0.9989  0.3811
  161SAPE  H12B18007   5.923   5.436   6.440 -1.6443  0.1033 -0.8642
  161SAPE   C1118008   5.980   5.257   6.312  0.0978 -0.3059 -0.6759
  161SAPE  H11A18009   5.984   5.227   6.205 -1.9538 -0.4203 -0.7529
  161SAPE  H11B18010   5.908   5.186   6.359  1.7111 -0.9562  0.9566
  161SAPE     P18011   6.164   5.101   6.402 -0.0934 -0.3015 -0.2395
  161SAPE   O1318012   6.118   5.000   6.303  0.5935 -0.4811  0.4814
  161SAPE   O1418013   6.310   5.118   6.409 -0.6541  0.0661 -0.0729
  161SAPE   O1218014   6.106   5.248   6.369  0.1322  0.6411  0.3694
  161SAPE   O1118015   6.113   5.065   6.549  0.2615  0.1331  1.2668
  161SAPE    C118016   5.983   5.028   6.592  0.3665 -0.1128  0.3927
  161SAPE    HA18017   5.908   5.045   6.513  0.2149 -1.6102  0.1754
  161SAPE    HB18018   5.981   4.917   6.602  3.6442 -0.3085 -0.0578
  161SAPE    C218019   5.947   5.100   6.720  0.6043  0.0221 -0.2408
  161SAPE    HS18020   5.966   5.207   6.697 -0.1862  0.5422  1.3558
  161SAPE   O2118021   6.041   5.067   6.823 -0.0598  0.3708  0.2080
  161SAPE   C2118022   6.076   5.154   6.908 -0.3449 -0.8340  0.1455
  161SAPE   O2218023   6.016   5.262   6.923  0.2622  0.1565 -0.6176
  161SAPE   C2218024   6.192   5.098   6.995 -0.4974 -0.0284 -0.2481
  161SAPE   H2R18025   6.186   4.987   6.999  0.6205 -0.1207 -0.5462
  161SAPE   H2S18026   6.287   5.131   6.947 -0.3449 -0.0729  0.0219
  161SAPE    C318027   5.797   5.077   6.758  0.7705 -0.3437 -1.3535
  161SAPE    HX18028   5.797   4.974   6.800 -0.1619  0.5447  1.0011
  161SAPE    HY18029   5.734   5.073   6.667 -1.9025 -1.8707  0.4418
  161SAPE   O3118030   5.739   5.160   6.864 -0.4763  0.5730 -0.5340
  161SAPE   C3118031   5.708   5.287   6.832  0.0233 -0.5397 -0.2390
  161SAPE   O3218032   5.695   5.317   6.714 -0.1418  0.3250  0.2083
  161SAPE   C3218033   5.698   5.377   6.959 -0.6757 -0.1301  0.4422
  161SAPE   H2X18034   5.656   5.477   6.933  0.8651  0.2241 -0.8801
  161SAPE   H2Y18035   5.804   5.407   6.975 -0.0414 -1.1823 -1.4718
  161SAPE   C2318036   6.204   5.167   7.140  0.3222 -0.3567 -0.4403
  161SAPE   H3R18037   6.208   5.277   7.133 -1.5018 -0.2488 -0.1800
  161SAPE   H3S18038   6.295   5.125   7.189 -1.1145 -1.2435  1.6296
  161SAPE   C2418039   6.081   5.136   7.229  0.6388  0.1080  0.9134
  161SAPE   H4R18040   6.092   5.032   7.267 -0.2224 -0.1087  0.5931
  161SAPE   H4S18041   5.990   5.136   7.166  0.7186  0.4681  0.7972
  161SAPE   C2518042   6.063   5.223   7.349  0.5627 -0.7144 -0.2044
  161SAPE   H5R18043   6.026   5.323   7.323  0.5963 -0.7657 -0.4480
  161SAPE   C2618044   6.099   5.204   7.475  0.1658 -0.0208 -0.0637
  161SAPE   H6R18045   6.086   5.290   7.543  3.0130  0.0734  0.4632
  161SAPE   C2718046   6.156   5.071   7.525  0.2122 -0.1211 -0.6863
  161SAPE   H7R18047   6.218   5.099   7.613 -0.0223 -0.0565 -0.5418
  161SAPE   H7S18048   6.232   5.023   7.460 -0.8845 -1.0309 -1.3267
  161SAPE   C2818049   6.053   4.975   7.570  0.2461 -0.1007  0.0958
  161SAPE   H8R18050   5.995   4.927   7.489 -1.9452  1.5929  0.5691
  161SAPE   C2918051   6.014   4.958   7.698 -1.3470 -0.8382  0.5290
  161SAPE   H9R18052   5.923   4.901   7.719 -2.2095  0.3856  0.1703
  161SAPE  C21018053   6.081   5.020   7.819  0.1912 -0.2947  0.0222
  161SAPE  H10R18054   6.008   5.051   7.897 -0.8321 -4.7839  1.0935
  161SAPE  H10S18055   6.132   5.115   7.790 -1.3419  0.1896 -1.2878
  161SAPE  C21118056   6.188   4.930   7.881  0.3815 -0.0068  0.6572
  161SAPE  H11R18057   6.224   4.841   7.827 -0.8186 -0.3444  0.3902
  161SAPE  C21218058   6.239   4.960   8.003  0.1845  0.1696 -0.3779
  161SAPE  H12R18059   6.313   4.897   8.055  2.7359  2.2123 -1.3562
  161SAPE  C21318060   6.191   5.072   8.086 -0.3033 -1.0261  0.0376
  161SAPE  H13R18061   6.082   5.069   8.111 -0.1999 -0.8222  0.5297
  161SAPE  H13S18062   6.211   5.162   8.023  1.6345  1.8583  4.2765
  161SAPE  C21418063   6.264   5.085   8.219 -0.0700  0.1658  0.2983
  161SAPE  H14R18064   6.372   5.104   8.214  0.1390 -1.1227 -0.8074
  161SAPE  C21518065   6.204   5.090   8.339  0.6949  0.1196  0.1784
  161SAPE  H15R18066   6.271   5.117   8.422  1.8155 -0.0389 -0.6682
  161SAPE  C21618067   6.057   5.085   8.374 -0.0156  0.2835 -0.3294
  161SAPE  H16R18068   6.012   5.013   8.302  1.2136 -2.7225  1.7307
  161SAPE  H16S18069   5.999   5.180   8.372  0.0826  0.4126  1.3672
  161SAPE  C21718070   6.054   5.016   8.520  0.1392 -0.1102  0.4686
  161SAPE  H17R18071   6.088   5.097   8.589  2.0229 -0.5146  0.0814
  161SAPE  H17S18072   6.112   4.922   8.531  0.0841 -0.0553  1.2978
  161SAPE  C21818073   5.911   4.974   8.564  0.1244 -0.0023 -0.1620
  161SAPE  H18R18074   5.904   4.871   8.522 -0.7397  0.1264 -0.3586
  161SAPE  H18S18075   5.846   5.047   8.511 -1.2346 -0.1420  1.2236
  161SAPE  C21918076   5.899   4.980   8.715  0.0139 -0.2420  0.2730
  161SAPE  H19R18077   5.944   5.078   8.743 -1.8206  1.0671 -1.1449
  161SAPE  H19S18078   5.944   4.889   8.761  0.2924 -0.4242 -0.3464
  161SAPE  C22018079   5.752   4.977   8.765 -0.7943  0.0474  0.3783
  161SAPE  H20R18080   5.742   5.012   8.870 -0.2171  0.7369  0.2157
  161SAPE  H20S18081   5.709   4.876   8.759  1.2939 -0.8868  0.0316
  161SAPE  H20T18082   5.694   5.045   8.700  2.9209  2.3415 -0.9086
  161SAPE   C3318083   5.644   5.304   7.081  0.1868  0.3613  0.0895
  161SAPE   H3X18084   5.685   5.202   7.090  1.3937  0.7208 -1.0849
  161SAPE   H3Y18085   5.534   5.289   7.075  0.2045  0.7569 -1.5494
  161SAPE   C3418086   5.683   5.373   7.216 -0.6065 -0.5730 -0.1451
  161SAPE   H4X18087   5.639   5.474   7.224  2.9856  1.0727  0.9010
  161SAPE   H4Y18088   5.793   5.389   7.212 -0.5260 -1.2232 -2.7978
  161SAPE   C3518089   5.679   5.268   7.333 -0.2442 -0.4267 -0.6931
  161SAPE   H5X18090   5.752   5.186   7.317  0.2203 -0.6355  2.0664
  161SAPE   H5Y18091   5.581   5.218   7.345 -0.8335  0.9634  0.5804
  161SAPE   C3618092   5.713   5.342   7.471  0.2271 -0.0808  0.3067
  161SAPE   H6X18093   5.639   5.425   7.481  1.0795  0.8851 -1.0790
  161SAPE   H6Y18094   5.814   5.386   7.472  0.2900 -0.1864 -0.5203
  161SAPE   C3718095   5.697   5.252   7.594 -0.0707  0.0245  0.6572
  161SAPE   H7X18096   5.755   5.159   7.576  0.6363  0.7329 -1.0127
  161SAPE   H7Y18097   5.591   5.222   7.605 -0.2064 -0.4308 -1.4182
  161SAPE   C3818098   5.751   5.319   7.721 -0.0038  0.2843 -0.1625
  161SAPE   H8X18099   5.708   5.422   7.719  0.3905  0.5110  1.7818
  161SAPE   H8Y18100   5.862   5.323   7.717  0.0542 -1.2094 -0.3415
  161SAPE   C3918101   5.706   5.257   7.854 -0.3061 -0.8042 -0.4104
  161SAPE   H9X18102   5.745   5.153   7.860  1.3343 -0.4890 -3.6242
  161SAPE   H9Y18103   5.595   5.263   7.860 -0.2797 -0.4840 -0.2160
  161SAPE  C31018104   5.766   5.336   7.971 -0.4108 -0.1002  0.2840
  161SAPE  H10X18105   5.719   5.437   7.975  1.2127  0.8313 -1.8314
  161SAPE  H10Y18106   5.877   5.346   7.963 -0.3427  1.0672  2.1575
  161SAPE  C31118107   5.758   5.264   8.103 -0.3185  0.5290 -0.5550
  161SAPE  H11X18108   5.782   5.336   8.184 -1.0184  1.8074 -1.4576
  161SAPE  H11Y18109   5.837   5.186   8.112  1.2455  2.2593  2.3872
  161SAPE  C31218110   5.628   5.192   8.143  0.4008  0.4986  0.0941
  161SAPE  H12X18111   5.612   5.105   8.077 -1.3947  0.3161  0.7399
  161SAPE  H12Y18112   5.545   5.263   8.125  1.3939  1.4498 -0.9630
  161SAPE  C31318113   5.622   5.150   8.286 -0.0927  0.6911 -0.5162
  161SAPE  H13X18114   5.635   5.238   8.353  0.1389 -0.6483  1.2702
  161SAPE  H13Y18115   5.714   5.088   8.296 -0.8169 -0.0343  2.7851
  161SAPE  C31418116   5.495   5.072   8.307  0.4982  0.9923 -0.8054
  161SAPE  H14X18117   5.472   4.992   8.233  0.4435  0.2031  0.0410
  161SAPE  H14Y18118   5.417   5.150   8.304 -0.0948  0.3898 -1.5381
  161SAPE  C31518119   5.461   5.020   8.449  0.4999 -0.4075 -0.0863
  161SAPE  H15X18120   5.502   5.101   8.514 -2.0336  1.8639 -1.1363
  161SAPE  H15Y18121   5.502   4.918   8.460  0.3883 -0.5781 -1.1330
  161SAPE  C31618122   5.315   5.006   8.489  0.5368  0.1870  0.3869
  161SAPE  H16X18123   5.261   5.102   8.497 -0.1859 -0.2395  0.7145
  161SAPE  H16Y18124   5.317   4.970   8.595  0.2798  0.0986  0.3612
  161SAPE  C31718125   5.239   4.898   8.399 -0.5273  0.3684 -0.1848
  161SAPE  H17X18126   5.321   4.834   8.361 -1.8030 -1.4222 -0.0493
  161SAPE  H17Y18127   5.197   4.947   8.308 -0.1421 -0.1651 -0.6525
  161SAPE  C31818128   5.133   4.822   8.469  0.2212  0.8662  0.0284
  161SAPE  H18X18129   5.185   4.766   8.549 -0.0393  0.0422 -0.3743
  161SAPE  H18Y18130   5.078   4.765   8.391  1.7828  1.4243 -1.5550
  161SAPE  H18Z18131   5.052   4.886   8.510 -0.6136 -1.3696  2.0740
  162SAPE     N18132   4.584   6.694   6.230 -0.3830  0.0608 -0.0345
  162SAPE   HN118133   4.641   6.738   6.155 -1.4233 -1.3880 -1.7806
  162SAPE   HN218134   4.620   6.597   6.229  1.8193  0.8151 -1.4632
  162SAPE   HN318135   4.483   6.692   6.206 -0.8500  1.8177  1.5092
  162SAPE   C1218136   4.611   6.769   6.355 -0.1551  0.3090 -0.0083
  162SAPE  H12A18137   4.572   6.716   6.445  1.4082 -0.2812  0.3480
  162SAPE  H12B18138   4.558   6.866   6.349  0.2111  0.6450  1.8587
  162SAPE   C1118139   4.764   6.801   6.371 -1.0639 -0.0267 -0.0185
  162SAPE  H11A18140   4.826   6.712   6.395  2.2772  1.6335 -1.7591
  162SAPE  H11B18141   4.789   6.868   6.456  3.8269  0.5606 -1.6142
  162SAPE     P18142   4.965   6.914   6.239  0.3301 -0.2888  0.3949
  162SAPE   O1318143   5.073   6.837   6.311  0.0429  0.0170  0.4753
  162SAPE   O1418144   4.993   6.963   6.106 -0.5828 -0.8404  0.5461
  162SAPE   O1218145   4.819   6.844   6.251  0.0199 -0.1720  0.2042
  162SAPE   O1118146   4.939   7.041   6.323  0.2106 -0.0099 -0.1075
  162SAPE    C118147   5.031   7.105   6.408 -0.2813  0.2831  0.2838
  162SAPE    HA18148   5.131   7.059   6.394 -0.2576  0.3052  0.3838
  162SAPE    HB18149   5.037   7.214   6.387  0.5253  0.5330  1.6817
  162SAPE    C218150   4.991   7.079   6.553 -0.0973  0.5725 -0.4220
  162SAPE    HS18151   4.937   6.983   6.564  3.1111 -1.3682 -0.2410
  162SAPE   O2118152   4.925   7.188   6.604 -0.0377  0.4749  0.6584
  162SAPE   C2118153   4.791   7.194   6.584  0.0700  0.0705  0.5781
  162SAPE   O2218154   4.720   7.112   6.525 -0.3358 -0.1242  0.1494
  162SAPE   C2218155   4.741   7.333   6.637  0.2737  0.2560  0.4000
  162SAPE   H2R18156   4.788   7.346   6.737 -2.8477  0.8082  1.9073
  162SAPE   H2S18157   4.777   7.407   6.563  0.7047  0.7032  1.0513
  162SAPE    C318158   5.117   7.045   6.632  0.7122 -0.0994 -0.2488
  162SAPE    HX18159   5.188   7.129   6.616  0.9167  0.1528  1.7287
  162SAPE    HY18160   5.165   6.955   6.587 -1.5524 -0.9255 -1.1633
  162SAPE   O3118161   5.095   7.031   6.776 -0.3149  0.2568  0.2779
  162SAPE   C3118162   5.202   6.985   6.844 -0.0876  0.0203 -0.0439
  162SAPE   O3218163   5.311   6.952   6.796 -0.4736 -0.0619 -0.4459
  162SAPE   C3218164   5.164   6.984   6.989  0.1990  0.2970 -0.2018
  162SAPE   H2X18165   5.079   6.913   7.003 -0.2823  1.0247  0.6696
  162SAPE   H2Y18166   5.121   7.082   7.020  1.1343  0.7129 -0.2017
  162SAPE   C2318167   4.589   7.339   6.644  0.5371 -0.3074  0.7731
  162SAPE   H3R18168   4.551   7.246   6.691 -0.9063 -0.7019 -1.0593
  162SAPE   H3S18169   4.547   7.333   6.541  1.0094 -1.5901  0.6322
  162SAPE   C2418170   4.554   7.463   6.726  0.0702  0.8812  0.4198
  162SAPE   H4R18171   4.551   7.433   6.832 -2.7354  1.4841  0.6020
  162SAPE   H4S18172   4.444   7.480   6.717 -0.0070  0.2152  0.0047
  162SAPE   C2518173   4.621   7.593   6.693  0.2495  0.7069 -0.9314
  162SAPE   H5R18174   4.618   7.631   6.590  1.7580  4.5052  0.2196
  162SAPE   C2618175   4.694   7.671   6.783  0.1598 -0.0975 -0.7139
  162SAPE   H6R18176   4.744   7.765   6.756 -0.3807  0.5621  0.4723
  162SAPE   C2718177   4.721   7.649   6.933  0.2130  0.5632 -0.4066
  162SAPE   H7R18178   4.810   7.703   6.971  1.5757 -2.8094  1.5675
  162SAPE   H7S18179   4.763   7.547   6.932 -1.9693 -0.3882 -0.6039
  162SAPE   C2818180   4.596   7.651   7.020 -0.4233  0.8816 -0.1281
  162SAPE   H8R18181   4.495   7.669   6.980 -1.2114  0.5451  1.5997
  162SAPE   C2918182   4.598   7.639   7.154  0.3435  0.2655  0.2518
  162SAPE   H9R18183   4.507   7.636   7.215  0.3910 -1.2212  0.2818
  162SAPE  C21018184   4.716   7.634   7.236 -0.7250 -0.0289 -0.4307
  162SAPE  H10R18185   4.774   7.726   7.211 -3.5177  1.7930 -0.6468
  162SAPE  H10S18186   4.779   7.547   7.209  0.6424 -0.0369  2.3938
  162SAPE  C21118187   4.686   7.648   7.383  0.3147 -0.2342  0.5006
  162SAPE  H11R18188   4.578   7.654   7.401  0.4174 -0.7638  1.4029
  162SAPE  C21218189   4.769   7.641   7.487  0.4644 -0.1738  0.1632
  162SAPE  H12R18190   4.728   7.655   7.588 -0.9166  0.5591 -0.4607
  162SAPE  C21318191   4.916   7.619   7.479  0.0763 -0.4166 -0.2449
  162SAPE  H13R18192   4.971   7.710   7.510 -1.2463  0.4037 -0.2394
  162SAPE  H13S18193   4.946   7.607   7.373  0.2574  1.7148 -0.4729
  162SAPE  C21418194   4.945   7.484   7.538  0.0525  0.9373 -0.1399
  162SAPE  H14R18195   4.983   7.405   7.471  2.8991  0.3760  1.9380
  162SAPE  C21518196   4.960   7.467   7.672 -0.4381  0.0643 -0.4472
  162SAPE  H15R18197   4.986   7.368   7.711 -0.3539  0.5298  0.7429
  162SAPE  C21618198   4.936   7.575   7.773  0.2059 -0.0854 -0.3187
  162SAPE  H16R18199   4.862   7.544   7.849 -1.2285 -1.2648 -2.1286
  162SAPE  H16S18200   4.890   7.662   7.722  1.5418  0.3639 -0.8237
  162SAPE  C21718201   5.066   7.619   7.844 -0.2989  0.5462  0.1353
  162SAPE  H17R18202   5.129   7.693   7.791 -1.9671  0.4945 -2.0537
  162SAPE  H17S18203   5.130   7.529   7.854 -1.5484 -0.3455  0.3299
  162SAPE  C21818204   5.040   7.670   7.987 -0.2278 -0.9395  0.6482
  162SAPE  H18R18205   4.967   7.606   8.041 -0.6717  0.5064  1.8564
  162SAPE  H18S18206   4.976   7.761   7.976  1.9723  0.5412 -0.6165
  162SAPE  C21918207   5.161   7.703   8.079  0.5116  0.2470 -0.1936
  162SAPE  H19R18208   5.234   7.778   8.044  0.3207  1.0972  1.1487
  162SAPE  H19S18209   5.225   7.613   8.095  1.8144  0.9528 -1.3104
  162SAPE  C22018210   5.125   7.754   8.225  0.0740 -0.1934  0.3854
  162SAPE  H20R18211   5.216   7.773   8.287  0.2013  2.2754 -0.4381
  162SAPE  H20S18212   5.068   7.672   8.274  0.2457  0.5212  1.8635
  162SAPE  H20T18213   5.067   7.849   8.221  0.0116 -0.1701  1.4557
  162SAPE   C3318214   5.282   6.950   7.084 -0.7588  0.1513  0.0783
  162SAPE   H3X18215   5.370   7.018   7.077 -0.8931  0.3168 -0.0106
  162SAPE   H3Y18216   5.311   6.849   7.047  0.3085  0.7924 -0.9090
  162SAPE   C3418217   5.242   6.933   7.226  0.2823  0.9217  0.6627
  162SAPE   H4X18218   5.161   6.859   7.244  0.6627 -0.7500 -3.3255
  162SAPE   H4Y18219   5.198   7.033   7.248 -0.2075  0.5060  1.6162
  162SAPE   C3518220   5.347   6.922   7.336  0.0968  0.4738 -0.8848
  162SAPE   H5X18221   5.430   6.994   7.319  0.6264  0.1565  0.2700
  162SAPE   H5Y18222   5.392   6.820   7.331 -0.3234  0.3125 -1.5901
  162SAPE   C3618223   5.306   6.947   7.484  0.3786 -0.0489  0.5685
  162SAPE   H6X18224   5.218   6.882   7.501 -0.1945  0.2913 -0.8966
  162SAPE   H6Y18225   5.278   7.055   7.489 -3.4864 -0.7292 -1.8600
  162SAPE   C3718226   5.429   6.915   7.570  0.5282  0.4963  0.0317
  162SAPE   H7X18227   5.519   6.978   7.553  1.6331 -0.5939  1.5175
  162SAPE   H7Y18228   5.462   6.811   7.549  0.6795  0.6762 -0.6245
  162SAPE   C3818229   5.395   6.911   7.718 -0.2163 -0.1243 -0.7169
  162SAPE   H8X18230   5.317   6.833   7.726 -1.0231  0.5000 -2.0722
  162SAPE   H8Y18231   5.342   7.007   7.737  1.5796  0.8801 -0.5026
  162SAPE   C3918232   5.506   6.891   7.814 -0.3790  0.1514  0.1104
  162SAPE   H9X18233   5.582   6.971   7.820 -0.2576 -0.0432  1.7280
  162SAPE   H9Y18234   5.570   6.802   7.793  1.5787  1.4662  0.1986
  162SAPE  C31018235   5.442   6.868   7.956 -0.1449  0.3153  0.9651
  162SAPE  H10X18236   5.357   6.797   7.945 -1.4029  1.7972  0.8252
  162SAPE  H10Y18237   5.392   6.963   7.982  1.3421  1.8960 -1.5184
  162SAPE  C31118238   5.543   6.835   8.063 -0.9342  0.0962  0.3585
  162SAPE  H11X18239   5.596   6.928   8.095  0.0210  0.7952 -2.8831
  162SAPE  H11Y18240   5.609   6.761   8.013  0.0373  0.5654  0.9110
  162SAPE  C31218241   5.480   6.772   8.185 -0.3637 -0.3085  0.1447
  162SAPE  H12X18242   5.405   6.700   8.146 -1.0690  0.0634  0.7657
  162SAPE  H12Y18243   5.434   6.852   8.247 -1.3173 -0.7132 -0.0185
  162SAPE  C31318244   5.570   6.693   8.289  0.6205 -0.0608  0.1133
  162SAPE  H13X18245   5.605   6.597   8.245 -0.1306  0.5758 -2.0115
  162SAPE  H13Y18246   5.489   6.666   8.360 -0.7799 -0.2010 -1.4828
  162SAPE  C31418247   5.675   6.775   8.361  0.9029 -0.2586 -0.3470
  162SAPE  H14X18248   5.657   6.878   8.400  0.4758  0.4551 -2.2894
  162SAPE  H14Y18249   5.758   6.779   8.287 -0.8409  1.3443 -2.3341
  162SAPE  C31518250   5.720   6.693   8.493  0.1678 -0.2044  0.2538
  162SAPE  H15X18251   5.761   6.593   8.468 -3.1435 -3.2535  5.1931
  162SAPE  H15Y18252   5.632   6.685   8.560 -0.0465  1.0599  0.1456
  162SAPE  C31618253   5.825   6.781   8.568 -0.6710  0.2967  0.5338
  162SAPE  H16X18254   5.832   6.727   8.664  4.1612  0.8007  0.7397
  162SAPE  H16Y18255   5.781   6.882   8.580 -0.2798  0.5503 -0.0930
  162SAPE  C31718256   5.962   6.799   8.493 -0.0479 -0.4614  0.0676
  162SAPE  H17X18257   5.936   6.777   8.388 -1.4979  2.2560 -0.2399
  162SAPE  H17Y18258   6.037   6.731   8.540 -0.1875 -0.4107  0.3699
  162SAPE  C31818259   6.020   6.943   8.513  0.7406 -0.2438  0.4828
  162SAPE  H18X18260   5.960   7.016   8.455 -0.0552 -1.3897 -0.1945
  162SAPE  H18Y18261   6.125   6.956   8.478  1.6655  0.6639  3.3600
  162SAPE  H18Z18262   6.019   6.973   8.619  1.0531  0.8558  0.1838
  163SAPE     N18263   1.876   5.987   6.622 -0.0070 -0.7193 -0.1058
  163SAPE   HN118264   1.838   6.046   6.699 -0.7739  0.0473 -1.0362
  163SAPE   HN218265   1.811   5.907   6.609 -0.6472 -0.8917  3.1593
  163SAPE   HN318266   1.964   5.938   6.649  0.4208 -1.8701 -3.2428
  163SAPE   C1218267   1.896   6.055   6.487 -0.1151 -0.1028 -0.5851
  163SAPE  H12A18268   1.795   6.063   6.441 -0.3141 -1.4408 -0.4251
  163SAPE  H12B18269   1.946   5.982   6.419 -2.2591 -0.5476 -1.7861
  163SAPE   C1118270   1.983   6.183   6.496  0.2795  0.1262 -0.0151
  163SAPE  H11A18271   1.917   6.254   6.550 -0.2376 -0.7675  0.5519
  163SAPE  H11B18272   1.994   6.226   6.394 -1.3796  0.9852  0.1405
  163SAPE     P18273   2.248   6.230   6.517  0.2458 -0.0357  0.1354
  163SAPE   O1318274   2.327   6.149   6.416 -0.2972 -0.2667 -0.1858
  163SAPE   O1418275   2.219   6.367   6.475 -0.3406 -0.2962  0.0909
  163SAPE   O1218276   2.112   6.161   6.564 -0.4674 -0.0489  0.3705
  163SAPE   O1118277   2.335   6.240   6.646 -0.3887  0.1092  0.4066
  163SAPE    C118278   2.300   6.302   6.771  0.0113 -0.4846 -0.6734
  163SAPE    HA18279   2.191   6.303   6.789 -0.0421 -0.0865 -1.0026
  163SAPE    HB18280   2.349   6.240   6.849  1.1388  0.9698 -0.1637
  163SAPE    C218281   2.365   6.447   6.795  0.3052  0.6674  0.0066
  163SAPE    HS18282   2.337   6.511   6.708  2.3070 -0.5665 -1.6475
  163SAPE   O2118283   2.507   6.434   6.804 -0.4562 -0.6795 -0.0161
  163SAPE   C2118284   2.576   6.547   6.787  0.7565 -0.3099  0.5449
  163SAPE   O2218285   2.535   6.652   6.737  0.2235  0.8298  0.1924
  163SAPE   C2218286   2.730   6.524   6.820  0.1997  0.3241  0.5455
  163SAPE   H2R18287   2.735   6.418   6.852  0.4575  0.9825  2.8259
  163SAPE   H2S18288   2.792   6.548   6.731  2.1156 -1.4295  1.3299
  163SAPE    C318289   2.297   6.511   6.923 -0.7417 -0.8325 -0.0665
  163SAPE    HX18290   2.190   6.536   6.907 -0.0707  1.6545 -1.0967
  163SAPE    HY18291   2.345   6.611   6.924  0.4687 -1.3931  0.3226
  163SAPE   O3118292   2.328   6.448   7.051 -0.2749 -0.1388  0.4215
  163SAPE   C3118293   2.229   6.390   7.114  0.3296 -0.1555  0.2873
  163SAPE   O3218294   2.113   6.383   7.079  0.5300  0.0336 -0.3221
  163SAPE   C3218295   2.289   6.300   7.224 -0.1449  0.0090 -0.5314
  163SAPE   H2X18296   2.383   6.351   7.253 -0.6786  0.4355  0.5324
  163SAPE   H2Y18297   2.299   6.195   7.191 -0.6713 -1.0907  2.4849
  163SAPE   C2318298   2.776   6.614   6.932  0.8834  0.3407 -0.1531
  163SAPE   H3R18299   2.775   6.720   6.899 -1.9937 -0.0565 -1.6571
  163SAPE   H3S18300   2.875   6.590   6.977  1.0458  1.6551  0.2228
  163SAPE   C2418301   2.672   6.627   7.050 -0.6808 -0.4957 -0.5453
  163SAPE   H4R18302   2.578   6.676   7.015 -0.4698  0.7320  0.5213
  163SAPE   H4S18303   2.723   6.692   7.125 -1.3076  3.2299 -3.0346
  163SAPE   C2518304   2.632   6.493   7.116  0.6245  0.1398  0.7757
  163SAPE   H5R18305   2.581   6.424   7.047 -0.3521 -0.3729  1.9890
  163SAPE   C2618306   2.647   6.455   7.252 -0.2363 -0.0546 -0.0565
  163SAPE   H6R18307   2.613   6.354   7.277 -0.4226  0.1695  0.6162
  163SAPE   C2718308   2.722   6.524   7.366 -0.7532  0.1572 -0.4145
  163SAPE   H7R18309   2.722   6.635   7.355 -1.1535  0.2879  0.6838
  163SAPE   H7S18310   2.830   6.503   7.378 -0.3641  0.9867 -2.1228
  163SAPE   C2818311   2.649   6.497   7.492  0.2182 -0.1247 -0.5813
  163SAPE   H8R18312   2.540   6.507   7.503  0.2591 -0.5538  0.2818
  163SAPE   C2918313   2.709   6.444   7.605 -0.0438 -0.7608  0.0387
  163SAPE   H9R18314   2.652   6.450   7.699  0.4770  2.5952  0.2709
  163SAPE  C21018315   2.854   6.412   7.624 -0.3817  0.0111 -0.5507
  163SAPE  H10R18316   2.890   6.369   7.528 -0.6810  2.6540 -1.9403
  163SAPE  H10S18317   2.862   6.333   7.701 -1.1813 -0.1313 -0.6057
  163SAPE  C21118318   2.949   6.537   7.653  0.5695  0.2394 -0.5400
  163SAPE  H11R18319   2.949   6.613   7.573 -0.4172 -0.4027 -1.1735
  163SAPE  C21218320   3.009   6.565   7.771 -0.6238  0.1248 -0.9859
  163SAPE  H12R18321   3.070   6.657   7.767 -0.8363  0.2221 -2.7107
  163SAPE  C21318322   3.019   6.494   7.899  0.5306 -0.2955  0.1725
  163SAPE  H13R18323   3.117   6.533   7.934  1.1561 -0.7380 -1.0254
  163SAPE  H13S18324   3.036   6.385   7.884  2.2035 -0.0891  0.3485
  163SAPE  C21418325   2.915   6.526   8.003  0.1118 -0.6786  0.9898
  163SAPE  H14R18326   2.814   6.550   7.967  0.8288 -0.0877 -0.6802
  163SAPE  C21518327   2.946   6.540   8.131  0.0322  0.5083 -0.2954
  163SAPE  H15R18328   2.877   6.590   8.201  3.8222  0.4712  3.8852
  163SAPE  C21618329   3.080   6.512   8.196 -0.5624 -0.0109 -0.0778
  163SAPE  H16R18330   3.139   6.435   8.142 -1.8497 -2.5234  1.9197
  163SAPE  H16S18331   3.075   6.482   8.302  1.8874 -1.2329 -0.2248
  163SAPE  C21718332   3.167   6.637   8.208 -0.0390 -0.0278 -0.0182
  163SAPE  H17R18333   3.129   6.698   8.292  2.1850 -0.4758  1.3878
  163SAPE  H17S18334   3.168   6.684   8.107  0.4792 -2.2610 -1.1203
  163SAPE  C21818335   3.311   6.600   8.267  0.5971  1.3793  0.7486
  163SAPE  H18R18336   3.366   6.550   8.185 -0.2618  0.8226  0.5051
  163SAPE  H18S18337   3.294   6.530   8.352 -1.8880  0.0380 -0.7486
  163SAPE  C21918338   3.394   6.725   8.305 -0.5216 -0.0543 -0.8102
  163SAPE  H19R18339   3.396   6.797   8.220 -2.9262  1.4444  0.2883
  163SAPE  H19S18340   3.499   6.696   8.328 -0.8077 -1.0873 -0.7591
  163SAPE  C22018341   3.338   6.791   8.428  0.0296 -0.0978 -0.0969
  163SAPE  H20R18342   3.413   6.854   8.481 -1.1677  1.5302 -0.2514
  163SAPE  H20S18343   3.320   6.715   8.506  0.7223  0.9704  1.1365
  163SAPE  H20T18344   3.248   6.852   8.403  1.6858  2.8992  0.6932
  163SAPE   C3318345   2.198   6.292   7.352  0.0586  0.1205  0.2546
  163SAPE   H3X18346   2.125   6.209   7.344 -0.4705  0.5572  0.5472
  163SAPE   H3Y18347   2.146   6.388   7.371  2.0125  0.7772  2.8809
  163SAPE   C3418348   2.282   6.262   7.474 -0.2744 -0.2012  0.0329
  163SAPE   H4X18349   2.357   6.342   7.494 -0.5322  0.2758 -0.8730
  163SAPE   H4Y18350   2.336   6.165   7.467 -1.4384 -0.7778 -1.6304
  163SAPE   C3518351   2.204   6.246   7.605 -0.0717 -1.0242 -0.3004
  163SAPE   H5X18352   2.144   6.339   7.617  0.5360 -0.4675 -1.4921
  163SAPE   H5Y18353   2.271   6.253   7.693  1.6678 -0.2892 -1.6374
  163SAPE   C3618354   2.104   6.132   7.619  0.4246 -0.2293 -0.5715
  163SAPE   H6X18355   2.162   6.039   7.638  0.4701 -0.1665 -0.4063
  163SAPE   H6Y18356   2.049   6.117   7.524  0.4702  1.1182 -0.8345
  163SAPE   C3718357   2.001   6.158   7.732 -0.3575  0.0886  0.3615
  163SAPE   H7X18358   1.952   6.255   7.706  2.2242  1.1220 -1.0837
  163SAPE   H7Y18359   2.057   6.165   7.827  1.3745 -1.3651 -0.4806
  163SAPE   C3818360   1.891   6.049   7.750 -0.0167  0.4526 -0.2142
  163SAPE   H8X18361   1.852   6.061   7.853  1.6187 -0.1158  0.5091
  163SAPE   H8Y18362   1.939   5.948   7.749 -0.5999  0.1673 -2.0665
  163SAPE   C3918363   1.782   6.069   7.648  0.4208 -0.8008  0.3235
  163SAPE   H9X18364   1.833   6.099   7.554 -0.7157  0.4292  0.0773
  163SAPE   H9Y18365   1.727   6.155   7.692  1.1700 -0.3065  0.3023
  163SAPE  C31018366   1.693   5.948   7.627  0.2627  0.2960 -0.2242
  163SAPE  H10X18367   1.642   5.939   7.726  2.0170 -2.0483  0.5730
  163SAPE  H10Y18368   1.754   5.856   7.613 -1.7295 -1.1638  0.1618
  163SAPE  C31118369   1.596   5.953   7.504  0.1495 -0.2815  0.2166
  163SAPE  H11X18370   1.660   5.961   7.414 -0.2658  1.6010  0.0570
  163SAPE  H11Y18371   1.549   6.052   7.517  0.6078  0.0517 -0.6133
  163SAPE  C31218372   1.512   5.829   7.499 -0.1424 -0.2821 -0.1700
  163SAPE  H12X18373   1.455   5.824   7.595  0.0846 -0.0344 -0.0224
  163SAPE  H12Y18374   1.581   5.742   7.494 -1.3097 -1.1627 -1.5119
  163SAPE  C31318375   1.411   5.824   7.382 -0.1897  0.0530  0.2383
  163SAPE  H13X18376   1.463   5.863   7.292  0.5523 -1.2057  0.0949
  163SAPE  H13Y18377   1.328   5.895   7.403 -0.2787  0.6152 -1.7883
  163SAPE  C31418378   1.373   5.685   7.336 -0.2890 -0.0560  0.1390
  163SAPE  H14X18379   1.466   5.642   7.294  0.9411 -0.3363  2.9130
  163SAPE  H14Y18380   1.292   5.688   7.260 -1.4725  2.1836  1.3661
  163SAPE  C31518381   1.328   5.598   7.448  0.0090 -0.0843 -0.1658
  163SAPE  H15X18382   1.399   5.580   7.532 -1.0887 -2.1301  0.4232
  163SAPE  H15Y18383   1.316   5.494   7.409 -2.7386  0.2026 -0.2989
  163SAPE  C31618384   1.189   5.619   7.509 -0.3728 -0.2421 -0.0864
  163SAPE  H16X18385   1.107   5.601   7.436 -0.7703  0.9592  0.0327
  163SAPE  H16Y18386   1.182   5.726   7.539 -0.4808 -0.0216 -0.8681
  163SAPE  C31718387   1.180   5.525   7.629 -0.1364  0.1218 -0.2561
  163SAPE  H17X18388   1.110   5.564   7.706 -0.3205 -2.0863  0.7955
  163SAPE  H17Y18389   1.277   5.515   7.682 -0.8608  0.1120  1.1018
  163SAPE  C31818390   1.123   5.386   7.598 -0.1217  0.1682  0.2390
  163SAPE  H18X18391   1.021   5.392   7.554 -0.6680 -0.8636  1.3394
  163SAPE  H18Y18392   1.120   5.321   7.688 -1.0102  0.0834  0.1556
  163SAPE  H18Z18393   1.189   5.347   7.517 -1.0207 -0.2325 -0.3162
  164SAPE     N18394   4.717   2.255   6.069  0.0855 -0.2061  0.4009
  164SAPE   HN118395   4.765   2.204   6.145 -0.0744  0.5419  1.0137
  164SAPE   HN218396   4.629   2.206   6.042 -0.5298 -0.0749  2.0782
  164SAPE   HN318397   4.776   2.233   5.986  1.5338 -1.0460  1.6170
  164SAPE   C1218398   4.694   2.406   6.088  0.0752  0.6682 -0.0821
  164SAPE  H12A18399   4.638   2.422   6.182 -1.3984 -0.2579 -0.7643
  164SAPE  H12B18400   4.626   2.431   6.003 -1.1208 -1.7297  0.0875
  164SAPE   C1118401   4.827   2.488   6.082  0.2369 -0.0459  1.1480
  164SAPE  H11A18402   4.876   2.464   5.985 -0.7154 -0.9848  0.8831
  164SAPE  H11B18403   4.901   2.460   6.160  2.0265  2.2508  0.3808
  164SAPE     P18404   4.810   2.733   5.970 -0.1706  0.1726 -0.0561
  164SAPE   O1318405   4.930   2.704   5.884  0.4923  0.0539  0.1395
  164SAPE   O1418406   4.682   2.759   5.906  0.0940 -0.2915  0.1103
  164SAPE   O1218407   4.800   2.628   6.089  0.0891  0.0928  0.3332
  164SAPE   O1118408   4.837   2.866   6.060  0.3511 -0.7147  0.2693
  164SAPE    C118409   4.921   2.883   6.173  0.0799  0.1416 -0.2319
  164SAPE    HA18410   4.982   2.791   6.181 -0.5084 -0.1808  0.7553
  164SAPE    HB18411   4.987   2.971   6.161  2.4155 -1.5478 -0.4535
  164SAPE    C218412   4.845   2.899   6.312  0.5284 -0.1042  0.1711
  164SAPE    HS18413   4.917   2.902   6.397  1.3012 -2.1468 -0.3539
  164SAPE   O2118414   4.746   2.793   6.330  0.1024  0.1459 -0.0862
  164SAPE   C2118415   4.791   2.687   6.397  0.4223  0.8271  0.6457
  164SAPE   O2218416   4.906   2.669   6.430  0.2582 -0.4579 -0.7129
  164SAPE   C2218417   4.685   2.587   6.433 -0.0636 -0.0674 -0.3814
  164SAPE   H2R18418   4.639   2.617   6.530  2.2089  0.1365  0.6928
  164SAPE   H2S18419   4.603   2.592   6.358 -0.3260 -3.7713 -0.5316
  164SAPE    C318420   4.773   3.045   6.323  0.5041  0.0669  0.1463
  164SAPE    HX18421   4.701   3.049   6.239 -0.1964 -1.5258  0.6431
  164SAPE    HY18422   4.850   3.123   6.305  1.2848 -0.7371 -0.0615
  164SAPE   O3118423   4.714   3.055   6.457  0.4552  0.4748 -0.0542
  164SAPE   C3118424   4.591   3.001   6.481  0.3272 -0.3788  0.4675
  164SAPE   O3218425   4.510   2.968   6.394 -0.3132 -0.1385  0.0521
  164SAPE   C3218426   4.574   2.991   6.633  0.5121 -0.3649 -0.5575
  164SAPE   H2X18427   4.474   2.954   6.664  0.4636  0.1893 -0.0527
  164SAPE   H2Y18428   4.594   3.090   6.678  1.6357 -0.4904 -0.7527
  164SAPE   C2318429   4.736   2.445   6.462 -0.1294 -0.7455 -0.0812
  164SAPE   H3R18430   4.831   2.460   6.517  1.8691 -1.4183 -3.0879
  164SAPE   H3S18431   4.766   2.401   6.364  1.5396 -0.4640  0.2762
  164SAPE   C2418432   4.641   2.351   6.534  0.3219 -0.3004  0.2833
  164SAPE   H4R18433   4.554   2.350   6.465  0.5204 -0.1821  0.0322
  164SAPE   H4S18434   4.605   2.410   6.621 -2.0824  0.1926 -0.9583
  164SAPE   C2518435   4.700   2.216   6.568  0.1629 -0.3085 -0.3200
  164SAPE   H5R18436   4.720   2.141   6.491  1.0665 -1.9642  1.4452
  164SAPE   C2618437   4.760   2.183   6.682 -0.4302  0.0352  0.1722
  164SAPE   H6R18438   4.808   2.086   6.698  0.3117  0.5395  1.1323
  164SAPE   C2718439   4.778   2.270   6.801  0.0247 -0.0571 -0.4144
  164SAPE   H7R18440   4.765   2.376   6.770 -0.3994  0.2503  0.7919
  164SAPE   H7S18441   4.879   2.263   6.848  0.0343 -0.9611 -0.5503
  164SAPE   C2818442   4.665   2.228   6.890 -0.6857 -0.4100  0.1961
  164SAPE   H8R18443   4.565   2.229   6.843 -2.3769 -2.6098  3.3521
  164SAPE   C2918444   4.671   2.193   7.019  0.2288 -0.8713  0.5004
  164SAPE   H9R18445   4.575   2.178   7.070  1.0028 -0.0472  2.2848
  164SAPE  C21018446   4.785   2.193   7.118  0.0535 -0.3805 -0.3165
  164SAPE  H10R18447   4.877   2.153   7.072  0.0309 -0.9792  0.1460
  164SAPE  H10S18448   4.751   2.116   7.191 -0.5262  1.2090  1.1620
  164SAPE  C21118449   4.803   2.329   7.179 -0.3599  0.3706 -0.0183
  164SAPE  H11R18450   4.850   2.399   7.108 -1.7096 -0.7579 -2.1148
  164SAPE  C21218451   4.783   2.361   7.310 -0.4856 -0.1758  0.7501
  164SAPE  H12R18452   4.804   2.466   7.334  0.5268 -0.2581  0.2914
  164SAPE  C21318453   4.720   2.276   7.406  0.0431  1.1275  0.2948
  164SAPE  H13R18454   4.796   2.206   7.448  0.7470  1.7862  0.1533
  164SAPE  H13S18455   4.645   2.212   7.355  2.5762 -2.4000  0.5999
  164SAPE  C21418456   4.659   2.362   7.512 -0.4048  0.5297 -0.7143
  164SAPE  H14R18457   4.584   2.431   7.469  0.6202  1.6396 -0.7704
  164SAPE  C21518458   4.680   2.364   7.642  0.3618 -0.3711 -0.4308
  164SAPE  H15R18459   4.620   2.418   7.718  0.7831  0.2105 -0.5061
  164SAPE  C21618460   4.783   2.265   7.696  0.2474 -0.1688  0.4840
  164SAPE  H16R18461   4.818   2.302   7.794 -1.7273 -1.0208  1.5781
  164SAPE  H16S18462   4.867   2.276   7.624 -2.3796 -0.5198 -2.8692
  164SAPE  C21718463   4.725   2.122   7.708  0.3440 -0.1805 -0.3071
  164SAPE  H17R18464   4.807   2.047   7.715  0.6503  0.1928  0.1753
  164SAPE  H17S18465   4.666   2.089   7.620 -0.9081 -0.1429  0.4851
  164SAPE  C21818466   4.632   2.107   7.831 -0.2251 -0.1272  0.0974
  164SAPE  H18R18467   4.561   2.192   7.836  2.1556  2.0954 -1.3691
  164SAPE  H18S18468   4.699   2.122   7.918  1.0251  3.1961 -1.2994
  164SAPE  C21918469   4.571   1.971   7.861 -0.4980  0.1564  0.1132
  164SAPE  H19R18470   4.650   1.893   7.859  1.5604  2.1059  1.2618
  164SAPE  H19S18471   4.493   1.958   7.783 -0.9759  1.0234  0.4291
  164SAPE  C22018472   4.510   1.965   8.002  0.5138 -0.3243  0.5130
  164SAPE  H20R18473   4.486   1.859   8.025  0.8815 -0.7263 -0.8215
  164SAPE  H20S18474   4.409   2.011   8.010  0.5335 -0.2390  0.2930
  164SAPE  H20T18475   4.570   2.023   8.075  1.4537  1.5068 -1.5754
  164SAPE   C3318476   4.679   2.895   6.691  0.0658 -0.1907  0.2722
  164SAPE   H3X18477   4.781   2.935   6.677  0.1420 -0.1811  0.8455
  164SAPE   H3Y18478   4.671   2.797   6.638 -0.1441 -0.1311  0.1900
  164SAPE   C3418479   4.674   2.868   6.845 -0.0116  0.5348  0.1924
  164SAPE   H4X18480   4.720   2.767   6.858 -2.8701 -1.1289 -1.5362
  164SAPE   H4Y18481   4.575   2.851   6.892 -0.2773  1.0265 -0.1879
  164SAPE   C3518482   4.758   2.969   6.929  0.2159  0.0037 -0.2685
  164SAPE   H5X18483   4.709   3.069   6.932  0.6071  0.2047  2.0922
  164SAPE   H5Y18484   4.859   2.990   6.888 -0.0347  1.7723 -0.0846
  164SAPE   C3618485   4.762   2.921   7.071  0.0065 -0.1625  0.0106
  164SAPE   H6X18486   4.816   2.824   7.078 -0.1259 -0.2349  0.0225
  164SAPE   H6Y18487   4.667   2.907   7.127  0.7713 -0.3328  1.3294
  164SAPE   C3718488   4.843   3.021   7.163 -0.5087  0.0138 -0.1210
  164SAPE   H7X18489   4.947   3.035   7.128 -0.1063 -0.3349  0.9009
  164SAPE   H7Y18490   4.864   2.975   7.263  0.3472  1.5260  0.4242
  164SAPE   C3818491   4.767   3.156   7.184  0.1528  0.6471  0.2593
  164SAPE   H8X18492   4.749   3.195   7.082  0.0179  1.4131  0.5746
  164SAPE   H8Y18493   4.834   3.223   7.241  0.8829  0.0111  0.1716
  164SAPE   C3918494   4.632   3.143   7.261 -0.1116  0.1325 -0.0436
  164SAPE   H9X18495   4.552   3.085   7.210  1.5001 -1.4564 -0.8569
  164SAPE   H9Y18496   4.597   3.249   7.266  2.0852  0.8612  0.8108
  164SAPE  C31018497   4.639   3.072   7.394 -0.6158 -0.0121  0.2025
  164SAPE  H10X18498   4.665   2.966   7.370  0.5286  0.8216 -2.7824
  164SAPE  H10Y18499   4.546   3.088   7.452 -1.1664 -1.5616 -0.2090
  164SAPE  C31118500   4.758   3.117   7.488 -0.0244  0.1791  0.5546
  164SAPE  H11X18501   4.776   3.227   7.490  3.4454 -0.2573 -0.6733
  164SAPE  H11Y18502   4.858   3.083   7.456  0.0918  2.1681 -1.4388
  164SAPE  C31218503   4.744   3.075   7.636  0.3670  0.1180 -0.3241
  164SAPE  H12X18504   4.758   2.964   7.632  0.4831  0.1217 -0.0466
  164SAPE  H12Y18505   4.644   3.100   7.677  0.7132  2.6047 -0.8371
  164SAPE  C31318506   4.840   3.159   7.727 -0.3935 -0.2392 -0.3818
  164SAPE  H13X18507   4.798   3.262   7.736  2.5096  1.0194 -0.1124
  164SAPE  H13Y18508   4.942   3.170   7.684  0.0280  0.1482  0.6984
  164SAPE  C31418509   4.857   3.106   7.874 -0.2174 -0.2887  0.3438
  164SAPE  H14X18510   4.910   3.009   7.876 -0.8885 -0.6521  0.7618
  164SAPE  H14Y18511   4.763   3.099   7.932  1.1992  1.7373  3.1132
  164SAPE  C31518512   4.955   3.195   7.948 -0.0010  0.3714 -0.0742
  164SAPE  H15X18513   4.918   3.299   7.963 -3.1121 -0.8478  1.4975
  164SAPE  H15Y18514   5.047   3.195   7.886 -0.3782  1.1078 -0.6556
  164SAPE  C31618515   4.999   3.137   8.088 -0.4813 -0.8794  0.3489
  164SAPE  H16X18516   5.087   3.073   8.064  0.1779 -1.4157  3.6956
  164SAPE  H16Y18517   4.920   3.077   8.137 -1.5925  0.1557 -0.1296
  164SAPE  C31718518   5.044   3.254   8.184 -0.4217  0.0897  0.4391
  164SAPE  H17X18519   4.953   3.311   8.213 -0.1469 -0.2808  2.1192
  164SAPE  H17Y18520   5.113   3.325   8.134  0.5502 -1.2462 -0.1841
  164SAPE  C31818521   5.114   3.199   8.308 -0.0150  0.1908 -0.1184
  164SAPE  H18X18522   5.063   3.104   8.338  0.1270 -0.6217 -2.2851
  164SAPE  H18Y18523   5.116   3.269   8.394  1.9213 -0.9730  0.8461
  164SAPE  H18Z18524   5.218   3.167   8.288  0.3395  1.2140  0.0413
  165SAPE     N18525   6.654   5.742   6.289 -0.7784  0.3406 -0.3774
  165SAPE   HN118526   6.680   5.655   6.238  0.3381  1.8395 -2.4867
  165SAPE   HN218527   6.556   5.758   6.258 -1.5053  1.2457  2.1287
  165SAPE   HN318528   6.715   5.815   6.248 -0.6401  1.0446  1.0299
  165SAPE   C1218529   6.646   5.717   6.441 -0.2361  0.1769 -0.7190
  165SAPE  H12A18530   6.669   5.813   6.493 -2.6689  0.4960 -0.1046
  165SAPE  H12B18531   6.723   5.643   6.470 -1.2720 -1.0075 -0.9329
  165SAPE   C1118532   6.505   5.663   6.474 -0.0738  0.6950  0.2290
  165SAPE  H11A18533   6.491   5.639   6.581 -1.5220  1.7097  0.2936
  165SAPE  H11B18534   6.478   5.575   6.412  1.1001  1.6629 -1.7538
  165SAPE     P18535   6.264   5.746   6.437  0.1189 -0.1414 -0.0663
  165SAPE   O1318536   6.198   5.869   6.393 -0.2255  0.7433 -0.3785
  165SAPE   O1418537   6.238   5.624   6.353 -0.2669 -0.1987  0.2312
  165SAPE   O1218538   6.423   5.776   6.450  0.4692  1.1970  0.1631
  165SAPE   O1118539   6.225   5.723   6.586 -0.0649 -0.7974 -0.6116
  165SAPE    C118540   6.198   5.849   6.668  0.2962  0.2772 -0.7091
  165SAPE    HA18541   6.112   5.905   6.625 -1.3142 -1.0771  0.6125
  165SAPE    HB18542   6.172   5.826   6.774 -0.2309 -1.4760 -1.1835
  165SAPE    C218543   6.327   5.938   6.684  0.2906 -1.2987  0.4700
  165SAPE    HS18544   6.345   5.982   6.583 -0.6096  0.5028  1.0412
  165SAPE   O2118545   6.436   5.867   6.735 -0.3212  0.2048  0.0073
  165SAPE   C2118546   6.551   5.923   6.718 -0.7376 -0.1546 -0.1973
  165SAPE   O2218547   6.576   6.023   6.649  0.7403  0.6512 -0.6177
  165SAPE   C2218548   6.658   5.850   6.811  1.3651  0.0260  0.0025
  165SAPE   H2R18549   6.603   5.788   6.885  0.0086  0.8532 -0.2785
  165SAPE   H2S18550   6.733   5.801   6.745  2.7604  1.4331  0.4522
  165SAPE    C318551   6.295   6.055   6.781 -0.1804  0.3475 -0.0790
  165SAPE    HX18552   6.213   6.112   6.732  0.9936  0.3532 -2.1780
  165SAPE    HY18553   6.388   6.113   6.792 -0.1613  0.2874  0.0787
  165SAPE   O3118554   6.258   6.010   6.917 -0.5455  0.4903 -0.3822
  165SAPE   C3118555   6.203   6.104   6.992  0.0840 -0.3751  0.4290
  165SAPE   O3218556   6.193   6.221   6.960 -0.0349  1.0590  0.1080
  165SAPE   C3218557   6.176   6.040   7.126 -0.3136 -0.3613 -0.0456
  165SAPE   H2X18558   6.229   5.942   7.123  0.2341 -0.0473 -0.8467
  165SAPE   H2Y18559   6.067   6.019   7.130 -0.6554  1.4749  2.7236
  165SAPE   C2318560   6.742   5.956   6.892 -0.6104 -0.4206  0.1507
  165SAPE   H3R18561   6.792   6.018   6.814  0.9388  1.2559  2.3760
  165SAPE   H3S18562   6.819   5.913   6.959 -0.6330  2.3423  2.0880
  165SAPE   C2418563   6.664   6.045   6.987 -0.6513 -0.2529 -0.4966
  165SAPE   H4R18564   6.611   6.115   6.918  0.7613  0.9345 -0.4180
  165SAPE   H4S18565   6.732   6.112   7.044 -0.3902 -0.0393 -1.0409
  165SAPE   C2518566   6.580   5.962   7.080 -0.1049  0.4065  0.9255
  165SAPE   H5R18567   6.475   5.949   7.049  0.1229  0.8165 -0.0533
  165SAPE   C2618568   6.621   5.907   7.192  0.6201  0.1952 -0.0681
  165SAPE   H6R18569   6.548   5.846   7.247 -0.0186  1.5897  0.6987
  165SAPE   C2718570   6.763   5.923   7.253 -1.0468  0.9263  0.1949
  165SAPE   H7R18571   6.842   5.964   7.187 -0.6284 -0.5432 -0.2609
  165SAPE   H7S18572   6.804   5.823   7.279  0.7779  1.5437 -0.1675
  165SAPE   C2818573   6.770   6.001   7.381  0.7546  0.1186  0.4379
  165SAPE   H8R18574   6.803   6.106   7.375 -1.5730  0.9063 -0.0290
  165SAPE   C2918575   6.726   5.965   7.501  0.9846  0.5226  0.2973
  165SAPE   H9R18576   6.752   6.028   7.588  0.3579 -0.2542  1.0629
  165SAPE  C21018577   6.669   5.838   7.541 -0.5374  0.2052 -0.9915
  165SAPE  H10R18578   6.742   5.796   7.612 -1.1519  3.3183  1.7308
  165SAPE  H10S18579   6.655   5.761   7.462 -3.0894  0.0597 -0.4777
  165SAPE  C21118580   6.542   5.858   7.620 -0.4104  0.8537 -0.0341
  165SAPE  H11R18581   6.463   5.890   7.550  0.2866  0.1549 -1.1579
  165SAPE  C21218582   6.510   5.813   7.745  0.1051  1.0836 -0.0504
  165SAPE  H12R18583   6.411   5.843   7.782 -0.0527 -0.3253  0.7442
  165SAPE  C21318584   6.595   5.739   7.841 -0.2630  0.4729  0.5564
  165SAPE  H13R18585   6.649   5.662   7.783 -1.5918  0.1967 -0.3478
  165SAPE  H13S18586   6.525   5.686   7.908 -2.1959  1.3430 -0.6610
  165SAPE  C21418587   6.708   5.810   7.917  0.2225 -0.3036 -0.1491
  165SAPE  H14R18588   6.776   5.877   7.862 -1.1347 -0.2373 -1.8272
  165SAPE  C21518589   6.725   5.813   8.048  0.7728 -0.0948  0.4956
  165SAPE  H15R18590   6.812   5.866   8.088  1.5868  1.1621 -2.6289
  165SAPE  C21618591   6.641   5.737   8.145  0.1043  0.6217 -0.2405
  165SAPE  H16R18592   6.635   5.637   8.097  1.1747  1.2920 -1.8773
  165SAPE  H16S18593   6.536   5.770   8.158  0.1203  0.5282  0.1573
  165SAPE  C21718594   6.712   5.712   8.286 -0.5167 -0.0930  0.0891
  165SAPE  H17R18595   6.743   5.815   8.316 -2.0402  0.2103  0.6924
  165SAPE  H17S18596   6.805   5.655   8.261  0.3203  0.1770  2.3597
  165SAPE  C21818597   6.623   5.647   8.386  0.2133 -0.6798  0.7061
  165SAPE  H18R18598   6.547   5.723   8.414 -1.7276 -1.1501 -2.7440
  165SAPE  H18S18599   6.681   5.620   8.477 -0.7764 -1.2412  1.1827
  165SAPE  C21918600   6.544   5.532   8.321 -0.5929  0.3290 -0.0180
  165SAPE  H19R18601   6.609   5.453   8.277 -1.0524 -1.5675  2.4713
  165SAPE  H19S18602   6.473   5.571   8.245 -2.0599  1.8175  2.0217
  165SAPE  C22018603   6.461   5.456   8.425 -0.2555  0.4360 -0.4294
  165SAPE  H20R18604   6.526   5.395   8.491 -2.1514 -1.2518 -0.0032
  165SAPE  H20S18605   6.402   5.377   8.373  1.2030  0.3772 -2.0813
  165SAPE  H20T18606   6.393   5.528   8.475 -0.4263  0.7541 -1.1063
  165SAPE   C3318607   6.206   6.131   7.249  0.4624  0.7138  0.3799
  165SAPE   H3X18608   6.129   6.210   7.254 -0.3815  0.0607 -1.2409
  165SAPE   H3Y18609   6.306   6.171   7.226  0.8370 -0.9341 -1.0968
  165SAPE   C3418610   6.201   6.054   7.383  0.1687  0.1359 -0.7682
  165SAPE   H4X18611   6.222   5.945   7.373 -2.2233 -0.3633 -0.8804
  165SAPE   H4Y18612   6.094   6.057   7.411 -0.0715  1.3232 -1.7460
  165SAPE   C3518613   6.280   6.133   7.487  0.5865 -0.3386  0.7100
  165SAPE   H5X18614   6.292   6.236   7.447 -2.0605  0.1226  0.9678
  165SAPE   H5Y18615   6.385   6.096   7.498 -0.6208 -4.4545  0.0568
  165SAPE   C3618616   6.205   6.151   7.619  0.6211 -0.5001  0.0753
  165SAPE   H6X18617   6.097   6.171   7.599 -0.4765 -2.1130  3.5908
  165SAPE   H6Y18618   6.238   6.245   7.669 -0.7470 -0.8824  1.8332
  165SAPE   C3718619   6.213   6.038   7.715 -0.2380 -0.6370 -0.1585
  165SAPE   H7X18620   6.315   6.047   7.758 -1.0736  2.2699  1.4611
  165SAPE   H7Y18621   6.201   5.945   7.655  1.8271  0.4662 -2.4499
  165SAPE   C3818622   6.117   6.057   7.835 -0.3629 -0.3256 -0.0522
  165SAPE   H8X18623   6.009   6.049   7.813 -0.5726 -1.3492  1.2520
  165SAPE   H8Y18624   6.143   6.159   7.871 -0.1617 -0.8891  1.5024
  165SAPE   C3918625   6.153   5.975   7.963 -0.5749  0.0620  0.1630
  165SAPE   H9X18626   6.262   5.951   7.966 -0.5301  0.3644  1.3548
  165SAPE   H9Y18627   6.098   5.879   7.954  3.4182 -2.3655 -1.6435
  165SAPE  C31018628   6.119   6.037   8.100  0.2243  0.3410  0.6305
  165SAPE  H10X18629   6.013   6.069   8.092  1.1266  3.3205 -1.2376
  165SAPE  H10Y18630   6.191   6.116   8.128  0.6301 -0.6103  2.4505
  165SAPE  C31118631   6.145   5.926   8.207 -0.0360  0.1780  0.2427
  165SAPE  H11X18632   6.238   5.868   8.189 -0.9006 -0.7583 -1.4507
  165SAPE  H11Y18633   6.058   5.858   8.202  0.1296 -0.0673  0.6437
  165SAPE  C31218634   6.146   5.974   8.359  0.6650 -0.5441 -0.5096
  165SAPE  H12X18635   6.065   6.045   8.385  1.2032 -1.1316  3.4198
  165SAPE  H12Y18636   6.236   6.039   8.367  1.3039 -1.2920 -1.3700
  165SAPE  C31318637   6.158   5.870   8.466 -0.7960  0.2965  0.1289
  165SAPE  H13X18638   6.255   5.819   8.446 -1.1821 -1.1158  1.5919
  165SAPE  H13Y18639   6.071   5.803   8.450 -0.4369  0.2056 -1.6404
  165SAPE  C31418640   6.168   5.918   8.616 -0.2711  0.8233  0.7775
  165SAPE  H14X18641   6.065   5.935   8.654 -0.0244  0.1561  1.7763
  165SAPE  H14Y18642   6.223   6.014   8.606  2.0045 -0.2618  2.0332
  165SAPE  C31518643   6.233   5.823   8.715  0.1698  0.7381  1.0104
  165SAPE  H15X18644   6.328   5.777   8.682 -0.9310 -1.2010  0.3750
  165SAPE  H15Y18645   6.168   5.732   8.713 -1.4487  1.8390  1.4068
  165SAPE  C31618646   6.248   5.863   8.863 -0.3118  0.1357 -0.2584
  165SAPE  H16X18647   6.296   5.779   8.918 -2.2753 -0.8219  0.0595
  165SAPE  H16Y18648   6.149   5.890   8.905 -0.3616  0.8207 -0.7972
  165SAPE  C31718649   6.331   5.986   8.885  0.0229  0.1632  0.4737
  165SAPE  H17X18650   6.274   6.060   8.825 -0.8030  0.7613  1.9575
  165SAPE  H17Y18651   6.425   5.992   8.825 -0.0750  2.0566  0.4668
  165SAPE  C31818652   6.348   6.027   9.031 -0.2053 -0.3355 -0.4207
  165SAPE  H18X18653   6.406   5.946   9.081 -1.2437 -0.8701 -0.0485
  165SAPE  H18Y18654   6.255   6.023   9.092  1.2283  0.9873  2.0014
  165SAPE  H18Z18655   6.405   6.120   9.048 -1.4184  0.4384 -0.4689
  166SAPE     N18656   5.198   1.880   5.843 -0.2275 -0.0437  0.1491
  166SAPE   HN118657   5.229   1.821   5.923  2.3562  1.8695  0.6772
  166SAPE   HN218658   5.110   1.840   5.803 -0.0567  2.3029 -2.9168
  166SAPE   HN318659   5.277   1.869   5.776 -0.4751  1.0192 -0.3318
  166SAPE   C1218660   5.183   2.023   5.897 -0.1324 -0.2194 -0.0640
  166SAPE  H12A18661   5.135   2.014   5.997  0.8471 -1.3498  0.3218
  166SAPE  H12B18662   5.109   2.079   5.836  2.1884  0.1357 -2.7614
  166SAPE   C1118663   5.319   2.095   5.914  0.0384  0.6572 -0.1582
  166SAPE  H11A18664   5.317   2.182   5.844 -0.3684  0.3614 -0.5191
  166SAPE  H11B18665   5.409   2.033   5.894 -0.4425 -0.8960  2.0969
  166SAPE     P18666   5.386   2.081   6.166  0.5300  0.1898 -0.2899
  166SAPE   O1318667   5.386   2.170   6.285 -0.3832 -0.4010  0.4541
  166SAPE   O1418668   5.305   1.955   6.179 -0.6160 -1.0806 -0.5864
  166SAPE   O1218669   5.319   2.157   6.048  0.1365  0.1101 -0.0628
  166SAPE   O1118670   5.527   2.055   6.115  0.2387 -0.5309  0.5081
  166SAPE    C118671   5.595   1.935   6.147  0.7834  0.7395  0.5397
  166SAPE    HA18672   5.526   1.862   6.195  0.1593 -0.6300 -2.2052
  166SAPE    HB18673   5.635   1.891   6.053  0.3690  1.0152  0.2280
  166SAPE    C218674   5.702   1.963   6.251  0.2730 -0.5070  0.5134
  166SAPE    HS18675   5.754   1.868   6.275 -1.1922 -1.8869 -1.4862
  166SAPE   O2118676   5.655   2.032   6.366  0.1796  0.0193 -0.1735
  166SAPE   C2118677   5.579   1.946   6.444  0.1898 -0.5171 -0.0003
  166SAPE   O2218678   5.560   1.830   6.412 -0.4953  0.5194  0.2174
  166SAPE   C2218679   5.506   2.027   6.555  0.0438 -0.3894 -0.2496
  166SAPE   H2R18680   5.588   2.044   6.628 -1.2811 -1.3952  1.5602
  166SAPE   H2S18681   5.477   2.128   6.518  0.9313 -0.5384 -1.3654
  166SAPE    C318682   5.817   2.055   6.188 -0.4599 -0.0241  0.1493
  166SAPE    HX18683   5.771   2.152   6.158  1.8563  0.7346 -1.1941
  166SAPE    HY18684   5.847   1.993   6.101  0.4977 -1.2032  1.2741
  166SAPE   O3118685   5.933   2.064   6.268 -0.5795  0.0008  0.1032
  166SAPE   C3118686   5.920   2.150   6.372 -0.1706 -0.0680  0.2492
  166SAPE   O3218687   5.848   2.248   6.366  0.2025  0.3311  0.1903
  166SAPE   C3218688   6.005   2.114   6.505 -0.2572 -0.2930  0.7337
  166SAPE   H2X18689   6.113   2.123   6.483 -0.0926  0.0634  1.6527
  166SAPE   H2Y18690   5.992   2.005   6.521  1.0470 -0.5937 -0.1371
  166SAPE   C2318691   5.389   1.956   6.631 -0.0659 -0.2215  0.5595
  166SAPE   H3R18692   5.434   1.863   6.674  0.1895 -0.2367  0.2632
  166SAPE   H3S18693   5.307   1.922   6.564  0.7149 -1.3343  0.1319
  166SAPE   C2418694   5.339   2.026   6.756 -0.4372  0.2279 -0.2343
  166SAPE   H4R18695   5.419   2.080   6.812  0.4581  0.5735 -1.7793
  166SAPE   H4S18696   5.284   1.960   6.826  0.6241  1.4254  1.8042
  166SAPE   C2518697   5.243   2.134   6.714 -0.1614  0.4263 -0.4808
  166SAPE   H5R18698   5.235   2.155   6.606 -0.5932  0.1311 -0.5090
  166SAPE   C2618699   5.170   2.201   6.802  0.7823  0.0427  0.3457
  166SAPE   H6R18700   5.098   2.273   6.761  3.0810  1.4115 -1.5550
  166SAPE   C2718701   5.167   2.194   6.953 -0.0754  0.4046 -0.0030
  166SAPE   H7R18702   5.231   2.110   6.985  0.3191 -0.4116 -2.7539
  166SAPE   H7S18703   5.070   2.145   6.976  0.4212 -1.6973 -2.0604
  166SAPE   C2818704   5.187   2.329   7.027 -0.0356  0.1855 -0.4150
  166SAPE   H8R18705   5.162   2.422   6.974  0.4992 -0.3292 -1.5850
  166SAPE   C2918706   5.230   2.340   7.153  0.6488 -0.1139  0.4767
  166SAPE   H9R18707   5.237   2.437   7.204 -2.4348 -0.1141  1.1430
  166SAPE  C21018708   5.252   2.224   7.243  0.3118 -0.1508  0.7728
  166SAPE  H10R18709   5.345   2.237   7.303  2.2003 -0.7721 -1.8148
  166SAPE  H10S18710   5.278   2.133   7.185 -2.1676  1.1586 -2.7442
  166SAPE  C21118711   5.141   2.190   7.338 -0.3592  0.6599 -0.8656
  166SAPE  H11R18712   5.040   2.199   7.295 -1.3239 -0.6484  0.9854
  166SAPE  C21218713   5.152   2.159   7.469 -0.7541  0.1734 -0.1155
  166SAPE  H12R18714   5.062   2.138   7.528  1.3085 -1.1422  2.8566
  166SAPE  C21318715   5.273   2.146   7.566  0.5012  0.1289  0.3642
  166SAPE  H13R18716   5.248   2.200   7.660  1.6021 -0.4893  1.0401
  166SAPE  H13S18717   5.366   2.181   7.517  1.0171 -1.6142  0.0016
  166SAPE  C21418718   5.311   2.001   7.600  0.2230  0.0652  0.6259
  166SAPE  H14R18719   5.306   1.936   7.511 -0.8213 -0.2117  0.8709
  166SAPE  C21518720   5.338   1.947   7.718  0.1649 -0.0454 -1.1085
  166SAPE  H15R18721   5.366   1.841   7.726  0.6366  0.1529  0.0068
  166SAPE  C21618722   5.339   2.010   7.858  0.0931 -0.0135  0.1442
  166SAPE  H16R18723   5.416   2.090   7.861 -1.1740  1.2830 -0.6220
  166SAPE  H16S18724   5.382   1.934   7.926 -0.3370 -0.1762  0.2375
  166SAPE  C21718725   5.201   2.055   7.917  0.3544 -0.8223  0.1364
  166SAPE  H17R18726   5.153   2.126   7.846  2.3575  3.4257  2.5597
  166SAPE  H17S18727   5.202   2.106   8.016 -3.2480 -0.1577 -0.0316
  166SAPE  C21818728   5.109   1.935   7.944 -0.3820  0.0708  0.2439
  166SAPE  H18R18729   5.153   1.862   8.015  1.8881  0.3412 -0.7938
  166SAPE  H18S18730   5.089   1.890   7.844 -1.3324  0.4233  0.2674
  166SAPE  C21918731   4.976   1.959   8.011 -0.3638  0.3849 -0.3222
  166SAPE  H19R18732   4.903   1.999   7.938 -0.8107  2.1707  1.0190
  166SAPE  H19S18733   4.974   2.045   8.081 -2.2660  0.5806 -0.5793
  166SAPE  C22018734   4.906   1.844   8.086  0.4461  0.1044 -0.2929
  166SAPE  H20R18735   4.981   1.803   8.157  1.0195  0.3982 -0.7192
  166SAPE  H20S18736   4.886   1.767   8.009  3.4521  1.0394 -2.1915
  166SAPE  H20T18737   4.822   1.884   8.148  0.0127 -0.0247 -0.7905
  166SAPE   C3318738   5.960   2.191   6.625 -0.3599  0.2693  0.4733
  166SAPE   H3X18739   5.851   2.211   6.621 -0.6276 -0.9870  0.8632
  166SAPE   H3Y18740   6.009   2.290   6.618 -1.1211  0.5385 -2.0000
  166SAPE   C3418741   5.984   2.120   6.763 -0.5544  0.3516 -0.2673
  166SAPE   H4X18742   5.910   2.039   6.782 -0.8016  0.5352 -0.4350
  166SAPE   H4Y18743   5.975   2.201   6.837  1.4045 -0.3010  0.7559
  166SAPE   C3518744   6.132   2.067   6.787 -0.5232 -0.2403 -0.0238
  166SAPE   H5X18745   6.196   2.151   6.752 -1.4715 -0.2338 -1.8693
  166SAPE   H5Y18746   6.128   1.986   6.711  0.4065 -0.0007 -0.3401
  166SAPE   C3618747   6.159   2.002   6.922  0.0155  0.1517 -0.1218
  166SAPE   H6X18748   6.250   1.938   6.919 -0.6993 -1.1000  2.2098
  166SAPE   H6Y18749   6.074   1.935   6.946 -0.0147  0.9964  2.4838
  166SAPE   C3718750   6.160   2.097   7.041  0.6043  0.5622 -0.7061
  166SAPE   H7X18751   6.062   2.149   7.037  0.3582  0.2980  1.0796
  166SAPE   H7Y18752   6.237   2.176   7.031 -1.0446  1.9434 -4.0880
  166SAPE   C3818753   6.166   2.020   7.177 -0.7628 -0.1860 -0.0211
  166SAPE   H8X18754   6.268   1.982   7.197 -0.4338  0.4818 -0.3925
  166SAPE   H8Y18755   6.103   1.929   7.176  3.2579 -3.2630 -0.0097
  166SAPE   C3918756   6.122   2.110   7.288  0.1327  0.6660  0.3491
  166SAPE   H9X18757   6.018   2.138   7.263 -0.1767 -0.8191 -0.1266
  166SAPE   H9Y18758   6.185   2.201   7.298  0.5639  0.4846 -0.5991
  166SAPE  C31018759   6.135   2.048   7.422  0.1564  0.0485 -0.2532
  166SAPE  H10X18760   6.088   1.948   7.424 -0.3020  0.2702  0.9010
  166SAPE  H10Y18761   6.094   2.108   7.507 -2.4922 -0.4408 -1.1102
  166SAPE  C31118762   6.280   2.018   7.464 -0.6790 -0.2928  0.6121
  166SAPE  H11X18763   6.346   2.108   7.459  2.1525 -2.2845  0.0555
  166SAPE  H11Y18764   6.328   1.948   7.394  1.8382  0.4534  1.4849
  166SAPE  C31218765   6.291   1.953   7.599  0.4313 -0.3686 -0.1840
  166SAPE  H12X18766   6.399   1.927   7.598  0.2917 -1.2608  2.0809
  166SAPE  H12Y18767   6.233   1.858   7.589 -0.9023  0.0786  2.4798
  166SAPE  C31318768   6.237   2.032   7.719  0.5329 -0.1824  0.0837
  166SAPE  H13X18769   6.127   2.047   7.708  0.7130 -0.4555 -3.0199
  166SAPE  H13Y18770   6.284   2.133   7.725  0.7203 -0.1660 -1.3110
  166SAPE  C31418771   6.284   1.957   7.846  0.2549  0.4916 -0.3872
  166SAPE  H14X18772   6.393   1.953   7.862  0.1703  0.2320  0.1404
  166SAPE  H14Y18773   6.239   1.857   7.829 -0.9908  1.4218 -3.1000
  166SAPE  C31518774   6.231   2.022   7.978 -0.3279  0.7971  0.4464
  166SAPE  H15X18775   6.122   2.042   7.979 -0.5184  0.0468 -1.2830
  166SAPE  H15Y18776   6.276   2.122   7.996  1.3531 -0.0549  1.3208
  166SAPE  C31618777   6.274   1.943   8.103 -0.4170  0.1380  0.1210
  166SAPE  H16X18778   6.378   1.905   8.111 -0.3108  0.2450 -0.6908
  166SAPE  H16Y18779   6.214   1.849   8.107 -1.1104  0.4248 -2.1663
  166SAPE  C31718780   6.250   2.022   8.232 -0.2613  0.0624  0.3103
  166SAPE  H17X18781   6.160   2.085   8.215  0.3876  1.3810  1.4959
  166SAPE  H17Y18782   6.331   2.098   8.245 -1.7885  1.6505  1.0763
  166SAPE  C31818783   6.224   1.937   8.356 -0.7803 -0.0734  0.0355
  166SAPE  H18X18784   6.219   1.999   8.448  0.2975  1.3321 -0.8191
  166SAPE  H18Y18785   6.309   1.871   8.384  2.2811  2.6487 -2.0822
  166SAPE  H18Z18786   6.123   1.890   8.359 -1.9221  2.2910  1.1096
  167SAPE     N18787   1.707   3.634   6.378  0.5441 -0.0233 -0.1963
  167SAPE   HN118788   1.633   3.635   6.452  0.9720 -1.7440  0.2961
  167SAPE   HN218789   1.758   3.543   6.385 -1.5542 -1.2258  0.6649
  167SAPE   HN318790   1.769   3.712   6.407 -2.1130  2.3831 -0.5264
  167SAPE   C1218791   1.639   3.663   6.246  0.0029  0.6127 -0.2324
  167SAPE  H12A18792   1.712   3.646   6.163  0.2536 -0.0375  0.1081
  167SAPE  H12B18793   1.598   3.766   6.245 -1.9112 -0.1068 -1.4227
  167SAPE   C1118794   1.534   3.563   6.204  0.3380 -0.2069  0.2806
  167SAPE  H11A18795   1.482   3.606   6.116 -0.5591  0.5818  1.1633
  167SAPE  H11B18796   1.461   3.573   6.287  2.1682  1.6015  1.7727
  167SAPE     P18797   1.478   3.308   6.182 -0.0886 -0.1580  0.0037
  167SAPE   O1318798   1.372   3.332   6.085 -0.0039  0.0208  0.0618
  167SAPE   O1418799   1.560   3.184   6.173  0.2851  0.4368 -0.1159
  167SAPE   O1218800   1.581   3.433   6.179  0.2906  0.2227 -0.1863
  167SAPE   O1118801   1.425   3.308   6.336 -0.1906  0.6122 -0.4453
  167SAPE    C118802   1.513   3.294   6.444  0.4342 -0.4597 -0.0299
  167SAPE    HA18803   1.560   3.193   6.451 -2.5018 -1.9188  0.5062
  167SAPE    HB18804   1.595   3.367   6.435 -1.1067  1.1304 -2.1151
  167SAPE    C218805   1.431   3.318   6.578  0.7424 -0.4054  1.1452
  167SAPE    HS18806   1.386   3.419   6.566  1.7627 -0.0850 -0.4676
  167SAPE   O2118807   1.523   3.313   6.694  0.4223 -0.6702  0.3204
  167SAPE   C2118808   1.589   3.421   6.707  0.4480  0.2801 -0.1867
  167SAPE   O2218809   1.591   3.516   6.633 -0.2494  0.1704  0.2091
  167SAPE   C2218810   1.674   3.411   6.835  1.0190  0.0852  0.4871
  167SAPE   H2R18811   1.731   3.315   6.839 -0.3187 -0.9899 -2.8585
  167SAPE   H2S18812   1.743   3.498   6.829  0.6551  0.2593 -2.7048
  167SAPE    C318813   1.317   3.214   6.600  0.1679  0.4151  0.4073
  167SAPE    HX18814   1.368   3.118   6.580 -2.9808 -1.7038  1.8392
  167SAPE    HY18815   1.238   3.231   6.524  1.3218  0.1172 -0.9123
  167SAPE   O3118816   1.271   3.197   6.735  0.4462  0.4731  0.2458
  167SAPE   C3118817   1.151   3.255   6.759 -0.1768 -0.9280  0.4841
  167SAPE   O3218818   1.103   3.343   6.688  0.4570 -0.2751 -0.3006
  167SAPE   C3218819   1.109   3.213   6.893  0.1136  0.0638 -0.1411
  167SAPE   H2X18820   1.186   3.251   6.963 -0.9511 -1.5457  2.0365
  167SAPE   H2Y18821   1.120   3.103   6.904  2.0935  0.1212 -1.2511
  167SAPE   C2318822   1.593   3.427   6.969 -0.2891  0.0856  0.7972
  167SAPE   H3R18823   1.497   3.373   6.958 -0.5859  0.7056  0.3082
  167SAPE   H3S18824   1.562   3.532   6.983  1.6293  0.5725  1.8135
  167SAPE   C2418825   1.680   3.362   7.080  0.3157 -0.2554  0.0472
  167SAPE   H4R18826   1.761   3.434   7.103  1.9007 -1.2285 -2.2395
  167SAPE   H4S18827   1.731   3.269   7.049 -0.3523 -0.3657 -0.7579
  167SAPE   C2518828   1.600   3.319   7.204  0.3054 -0.4555 -0.0026
  167SAPE   H5R18829   1.497   3.288   7.180  0.2260 -0.5987  0.5203
  167SAPE   C2618830   1.644   3.325   7.333 -0.2556 -0.8787  0.0985
  167SAPE   H6R18831   1.584   3.279   7.412 -1.0445  2.1441  1.3864
  167SAPE   C2718832   1.773   3.390   7.382  0.3770 -0.7282 -0.8402
  167SAPE   H7R18833   1.747   3.476   7.447 -2.2991 -1.0240 -1.4315
  167SAPE   H7S18834   1.824   3.443   7.299  3.0263 -0.0834  1.0509
  167SAPE   C2818835   1.851   3.283   7.462 -0.8824  0.7924  1.0353
  167SAPE   H8R18836   1.874   3.200   7.392  0.2759  1.9047  0.0478
  167SAPE   C2918837   1.899   3.270   7.587  0.7882 -0.3100 -0.7826
  167SAPE   H9R18838   1.931   3.173   7.629 -2.1321 -0.4281  1.5339
  167SAPE  C21018839   1.874   3.368   7.698 -0.5325  0.6138  0.1263
  167SAPE  H10R18840   1.910   3.469   7.668  0.5952  0.7837  1.9290
  167SAPE  H10S18841   1.935   3.333   7.784 -1.6971 -2.0259 -0.0208
  167SAPE  C21118842   1.731   3.393   7.738 -0.0789 -0.3932  0.1144
  167SAPE  H11R18843   1.645   3.375   7.673  0.2031  0.3923 -0.4969
  167SAPE  C21218844   1.696   3.395   7.867 -0.0229  0.7645 -0.2346
  167SAPE  H12R18845   1.596   3.420   7.903  0.3254  0.3365  1.0931
  167SAPE  C21318846   1.785   3.392   7.996  0.1753  0.6748  0.3313
  167SAPE  H13R18847   1.889   3.424   7.976  0.4335 -0.2891  0.0684
  167SAPE  H13S18848   1.793   3.286   8.029 -0.8816  0.1054 -1.1604
  167SAPE  C21418849   1.717   3.473   8.103 -0.6611 -0.3189 -0.7274
  167SAPE  H14R18850   1.613   3.439   8.117 -0.2376 -1.0060  1.1421
  167SAPE  C21518851   1.780   3.566   8.183 -0.5717  0.2582 -0.0916
  167SAPE  H15R18852   1.725   3.638   8.244 -2.1987 -1.9179  1.1492
  167SAPE  C21618853   1.925   3.606   8.174 -0.2832  0.4024 -0.1601
  167SAPE  H16R18854   1.946   3.700   8.229  0.3063 -0.0383  0.3757
  167SAPE  H16S18855   1.957   3.623   8.069  1.1322  2.7257  0.5821
  167SAPE  C21718856   2.018   3.489   8.228  0.2417  0.6069  0.4706
  167SAPE  H17R18857   2.017   3.408   8.152 -1.3073  2.4385 -1.5923
  167SAPE  H17S18858   1.986   3.444   8.324  1.0089 -1.9766 -0.4191
  167SAPE  C21818859   2.164   3.533   8.233 -0.2179 -0.3731  0.3964
  167SAPE  H18R18860   2.189   3.605   8.314  2.0060 -1.7001  0.9678
  167SAPE  H18S18861   2.172   3.580   8.132  0.1763 -0.4888  0.3718
  167SAPE  C21918862   2.265   3.418   8.238  0.1747 -0.2695  1.3552
  167SAPE  H19R18863   2.371   3.441   8.212 -0.5781  1.3418 -0.4715
  167SAPE  H19S18864   2.246   3.348   8.154 -0.6150 -0.6865  1.8645
  167SAPE  C22018865   2.269   3.341   8.368 -0.3477 -0.8553  0.0161
  167SAPE  H20R18866   2.335   3.252   8.362 -0.3797 -0.9321  0.6820
  167SAPE  H20S18867   2.170   3.302   8.397  0.1594 -0.5128  2.4196
  167SAPE  H20T18868   2.308   3.412   8.445 -5.1322  3.4282 -0.9394
  167SAPE   C3318869   0.967   3.268   6.933 -0.3176  0.6581  0.3318
  167SAPE   H3X18870   0.903   3.243   6.845  1.1274 -1.8011 -0.1219
  167SAPE   H3Y18871   0.967   3.378   6.942  1.8021  0.6475  0.8118
  167SAPE   C3418872   0.898   3.202   7.053  0.1435 -1.1303  0.2465
  167SAPE   H4X18873   0.913   3.094   7.032  0.9820 -1.3835  1.9795
  167SAPE   H4Y18874   0.792   3.235   7.054  1.1397  2.8465 -2.1539
  167SAPE   C3518875   0.946   3.250   7.189 -0.5211 -0.0983 -0.7033
  167SAPE   H5X18876   0.919   3.357   7.203  0.7411  0.0855  0.5498
  167SAPE   H5Y18877   1.057   3.246   7.186 -0.1526 -0.3825  4.2636
  167SAPE   C3618878   0.909   3.158   7.306 -0.3025 -0.0326  0.4329
  167SAPE   H6X18879   0.968   3.065   7.288 -1.0402 -0.1395 -1.7564
  167SAPE   H6Y18880   0.801   3.135   7.301 -0.2623 -0.3836  1.0339
  167SAPE   C3718881   0.944   3.218   7.443 -0.6312 -0.3211  0.4314
  167SAPE   H7X18882   0.880   3.305   7.470  0.2574 -0.2213  2.3596
  167SAPE   H7Y18883   1.052   3.246   7.444 -0.9456  0.9841  1.6331
  167SAPE   C3818884   0.927   3.125   7.555  0.7563  0.1145  0.0782
  167SAPE   H8X18885   0.993   3.038   7.538 -0.5499 -0.8757 -0.0297
  167SAPE   H8Y18886   0.829   3.074   7.555  2.3641 -3.2730  0.8741
  167SAPE   C3918887   0.941   3.194   7.685  0.5843 -0.1870 -0.1659
  167SAPE   H9X18888   0.875   3.283   7.681  2.4763  1.2896  0.3934
  167SAPE   H9Y18889   1.043   3.234   7.699 -0.3538  1.8558  1.2417
  167SAPE  C31018890   0.931   3.096   7.804 -0.2281 -0.4769 -0.2246
  167SAPE  H10X18891   1.001   3.010   7.790 -1.3597 -1.2936 -1.0342
  167SAPE  H10Y18892   0.825   3.062   7.797 -0.7565  0.2973  2.7543
  167SAPE  C31118893   0.958   3.171   7.934 -0.7068 -0.7294 -0.0284
  167SAPE  H11X18894   0.872   3.240   7.950  1.4708  1.5865  2.5701
  167SAPE  H11Y18895   1.047   3.236   7.946 -1.4710  0.2742  0.4066
  167SAPE  C31218896   0.958   3.087   8.064  0.1234  0.2376  0.4381
  167SAPE  H12X18897   1.054   3.031   8.063 -1.3827 -2.4646 -0.5182
  167SAPE  H12Y18898   0.878   3.017   8.095  1.7080 -1.3047  1.2239
  167SAPE  C31318899   0.978   3.188   8.181 -0.3334 -0.0684 -0.1077
  167SAPE  H13X18900   0.912   3.275   8.166  1.0721  1.1765  0.6792
  167SAPE  H13Y18901   1.077   3.236   8.167 -0.3165 -0.6599 -2.5032
  167SAPE  C31418902   0.960   3.125   8.319  0.2972  0.9520  0.8178
  167SAPE  H14X18903   1.034   3.043   8.329  0.9488  1.5904  1.3701
  167SAPE  H14Y18904   0.860   3.077   8.315  0.6133  0.3620 -0.1287
  167SAPE  C31518905   0.958   3.219   8.438 -0.0734 -0.3997 -0.2329
  167SAPE  H15X18906   0.874   3.290   8.424 -0.4793 -0.8340 -0.0458
  167SAPE  H15Y18907   1.054   3.271   8.417 -1.7775  2.4722 -1.4943
  167SAPE  C31618908   0.957   3.144   8.570 -0.2926  0.6852  0.3187
  167SAPE  H16X18909   0.986   3.209   8.656  0.6545 -2.3792  2.4711
  167SAPE  H16Y18910   1.034   3.065   8.577 -2.1495 -1.2920 -0.6031
  167SAPE  C31718911   0.832   3.067   8.599  0.1373  0.5755 -0.0369
  167SAPE  H17X18912   0.800   3.004   8.514 -2.6211  0.8617  0.6837
  167SAPE  H17Y18913   0.746   3.132   8.627 -0.1932  0.4179 -0.6583
  167SAPE  C31818914   0.853   2.973   8.721 -0.3863 -0.4825 -0.1199
  167SAPE  H18X18915   0.886   3.028   8.812 -0.4209  1.5412 -1.2707
  167SAPE  H18Y18916   0.926   2.896   8.686  0.4477  1.0328 -1.8535
  167SAPE  H18Z18917   0.756   2.928   8.751 -0.6915 -1.0817 -1.8600
  168SAPE     N18918   1.797   4.130   6.236  0.0941 -0.1096  0.2768
  168SAPE   HN118919   1.815   4.233   6.229  0.7779 -0.0907  1.8946
  168SAPE   HN218920   1.893   4.093   6.221  0.6242  1.6219 -0.9363
  168SAPE   HN318921   1.734   4.103   6.157  0.1716  2.1203 -0.6399
  168SAPE   C1218922   1.739   4.082   6.367  0.8321 -0.5405  0.0040
  168SAPE  H12A18923   1.716   3.974   6.356  2.0464 -0.7785 -0.3065
  168SAPE  H12B18924   1.645   4.133   6.396  0.4553 -1.3979  0.3368
  168SAPE   C1118925   1.849   4.104   6.477  0.5292 -0.4561 -0.4087
  168SAPE  H11A18926   1.809   4.080   6.578  2.0135  0.7952  0.5219
  168SAPE  H11B18927   1.866   4.214   6.474 -3.3169  0.2857 -0.0217
  168SAPE     P18928   1.997   3.885   6.474  0.1315 -0.6199  0.1597
  168SAPE   O1318929   1.890   3.813   6.410  0.6846 -0.3253  0.5378
  168SAPE   O1418930   2.129   3.850   6.423 -0.0218  0.0214 -0.1232
  168SAPE   O1218931   1.975   4.042   6.451 -0.1178  0.4253 -0.2449
  168SAPE   O1118932   2.003   3.860   6.624  0.1389  0.0674  0.3272
  168SAPE    C118933   2.076   3.940   6.717  0.2711  0.0106  0.0445
  168SAPE    HA18934   2.182   3.940   6.685 -0.2991 -1.1232 -1.9889
  168SAPE    HB18935   2.030   4.041   6.721  2.8724  1.3048 -0.6059
  168SAPE    C218936   2.064   3.881   6.863 -0.4454  0.2820  0.5992
  168SAPE    HS18937   2.093   3.952   6.944 -1.1794 -1.4780  2.5245
  168SAPE   O2118938   2.130   3.756   6.882 -0.5783  0.2317 -0.6516
  168SAPE   C2118939   2.260   3.768   6.876  0.5217  0.2936  0.4764
  168SAPE   O2218940   2.321   3.869   6.844  0.0276  0.2713  0.1127
  168SAPE   C2218941   2.329   3.638   6.906 -0.7593 -0.1039 -0.1686
  168SAPE   H2R18942   2.293   3.559   6.837  0.0593 -1.4910  0.9489
  168SAPE   H2S18943   2.438   3.644   6.884 -0.4138 -1.5055  1.0046
  168SAPE    C318944   1.911   3.851   6.893  0.7474  0.0671 -0.0366
  168SAPE    HX18945   1.871   3.774   6.824 -0.9410  0.0258  0.9262
  168SAPE    HY18946   1.852   3.940   6.863 -0.5902 -0.2527  1.5268
  168SAPE   O3118947   1.885   3.811   7.030  0.0055  0.2573  0.4080
  168SAPE   C3118948   1.758   3.778   7.046 -0.3366  0.0269  0.7122
  168SAPE   O3218949   1.674   3.787   6.952  0.6049 -0.0916 -0.4274
  168SAPE   C3218950   1.738   3.751   7.195  0.5877  0.4596 -0.1599
  168SAPE   H2X18951   1.794   3.820   7.261  0.7205 -0.7181  0.9881
  168SAPE   H2Y18952   1.773   3.649   7.220 -1.7079 -0.5203 -0.7078
  168SAPE   C2318953   2.311   3.586   7.052 -0.4318  0.2146  0.5536
  168SAPE   H3R18954   2.367   3.490   7.054  1.0169  1.0218  0.7524
  168SAPE   H3S18955   2.204   3.570   7.074 -0.3419 -0.7213  0.3380
  168SAPE   C2418956   2.387   3.669   7.150 -0.0342  1.0948  0.6805
  168SAPE   H4R18957   2.342   3.771   7.152  1.9788  2.0413  2.3963
  168SAPE   H4S18958   2.492   3.676   7.114 -0.5575 -1.0843 -1.5030
  168SAPE   C2518959   2.367   3.627   7.295 -0.5907 -0.1169  0.1015
  168SAPE   H5R18960   2.428   3.544   7.333 -3.0465 -1.8726  0.4575
  168SAPE   C2618961   2.266   3.661   7.378  0.4204 -0.1493  0.0189
  168SAPE   H6R18962   2.270   3.621   7.480  1.6479  0.7114  0.3331
  168SAPE   C2718963   2.147   3.740   7.329  0.7391  0.1254 -0.8401
  168SAPE   H7R18964   2.133   3.728   7.220 -1.4679 -0.5795 -0.5203
  168SAPE   H7S18965   2.182   3.843   7.351 -0.7173  0.7131 -1.1953
  168SAPE   C2818966   2.017   3.712   7.405  0.5732 -0.5711 -0.5156
  168SAPE   H8R18967   1.953   3.648   7.343  0.1045  1.0224 -1.7513
  168SAPE   C2918968   1.980   3.753   7.532  0.4959 -0.2365  0.7291
  168SAPE   H9R18969   1.876   3.738   7.567  0.3266  1.5557  1.0996
  168SAPE  C21018970   2.059   3.844   7.626 -0.1071  0.5457 -0.1344
  168SAPE  H10R18971   2.167   3.819   7.623 -0.2502 -0.0394 -0.6274
  168SAPE  H10S18972   2.020   3.814   7.726 -2.6280  0.7778 -0.9640
  168SAPE  C21118973   2.043   3.986   7.611 -0.4157 -0.7217 -0.5210
  168SAPE  H11R18974   1.961   4.015   7.543 -2.4276 -1.5289  1.4336
  168SAPE  C21218975   2.114   4.076   7.688  0.1901  0.4413  0.7037
  168SAPE  H12R18976   2.091   4.183   7.674 -0.0316  0.3260  0.1634
  168SAPE  C21318977   2.220   4.042   7.788 -0.6841  0.0959 -0.2394
  168SAPE  H13R18978   2.316   4.038   7.732 -0.5097  1.6692 -0.0713
  168SAPE  H13S18979   2.202   3.944   7.838 -1.9392  1.1068  1.4118
  168SAPE  C21418980   2.235   4.148   7.888 -0.3129  0.5814 -0.2354
  168SAPE  H14R18981   2.282   4.239   7.848 -0.2910  0.8857  0.4598
  168SAPE  C21518982   2.182   4.154   8.013  0.0104 -0.1853 -0.0209
  168SAPE  H15R18983   2.196   4.244   8.074  0.5600 -1.9421  2.6106
  168SAPE  C21618984   2.091   4.042   8.071 -0.0623  0.3283  0.4511
  168SAPE  H16R18985   2.080   3.948   8.012 -0.2785  1.1616 -0.8764
  168SAPE  H16S18986   1.989   4.084   8.086 -0.7981 -1.8408  2.0656
  168SAPE  C21718987   2.135   3.991   8.220 -0.1971 -0.0877  0.3207
  168SAPE  H17R18988   2.056   3.932   8.272  0.4232 -2.1207 -0.9234
  168SAPE  H17S18989   2.158   4.085   8.275 -0.7029 -0.4311  1.1491
  168SAPE  C21818990   2.275   3.915   8.216 -0.1943 -0.1598 -0.7710
  168SAPE  H18R18991   2.340   3.978   8.151 -0.9560  1.1380 -0.3057
  168SAPE  H18S18992   2.260   3.812   8.176  0.7102 -0.7157  0.2772
  168SAPE  C21918993   2.337   3.892   8.356 -0.1010 -0.5722  0.2727
  168SAPE  H19R18994   2.271   3.833   8.423  1.0186 -1.1963  0.8606
  168SAPE  H19S18995   2.349   3.998   8.386 -0.6817 -0.0253 -1.3475
  168SAPE  C22018996   2.476   3.824   8.361  0.0743 -0.1386  0.1588
  168SAPE  H20R18997   2.470   3.715   8.336  0.3448  0.0732 -0.8948
  168SAPE  H20S18998   2.521   3.847   8.460 -0.2020 -2.0538  0.7685
  168SAPE  H20T18999   2.540   3.861   8.278  0.2258 -0.1631  0.2627
  168SAPE   C3319000   1.582   3.739   7.225  0.0138 -1.0640 -0.0666
  168SAPE   H3X19001   1.541   3.648   7.175 -0.1643  1.2785 -4.7341
  168SAPE   H3Y19002   1.540   3.835   7.188 -0.7276 -2.0503 -1.8827
  168SAPE   C3419003   1.566   3.727   7.378  0.5355 -0.3972  0.6251
  168SAPE   H4X19004   1.634   3.645   7.411  0.2460 -0.7028  0.4718
  168SAPE   H4Y19005   1.469   3.692   7.419  0.6207 -0.4209  0.8106
  168SAPE   C3519006   1.617   3.839   7.479 -0.1105 -0.1651 -0.2748
  168SAPE   H5X19007   1.551   3.928   7.465 -1.2416 -1.0912 -1.0663
  168SAPE   H5Y19008   1.722   3.864   7.456  0.2653  0.7056  2.1419
  168SAPE   C3619009   1.627   3.791   7.625  0.1772  0.4003 -0.0094
  168SAPE   H6X19010   1.697   3.706   7.636  0.7971  0.2120 -3.8504
  168SAPE   H6Y19011   1.527   3.750   7.650 -0.7579  1.1947 -2.1852
  168SAPE   C3719012   1.668   3.901   7.714 -0.5505  0.7130 -0.4675
  168SAPE   H7X19013   1.601   3.987   7.696 -0.9877  0.6685  0.8259
  168SAPE   H7Y19014   1.778   3.915   7.711 -0.4554  0.0569 -0.2943
  168SAPE   C3819015   1.642   3.857   7.859  0.5836 -0.5627 -0.0441
  168SAPE   H8X19016   1.714   3.777   7.889  1.5190 -0.0220 -0.8039
  168SAPE   H8Y19017   1.545   3.809   7.883  0.3213  0.4192  0.9263
  168SAPE   C3919018   1.669   3.967   7.960 -0.1439  0.8725  0.1914
  168SAPE   H9X19019   1.615   4.056   7.922  0.7389  1.1752 -0.3792
  168SAPE   H9Y19020   1.778   3.987   7.957  0.5393 -2.1605  0.7855
  168SAPE  C31019021   1.622   3.939   8.104  0.9620 -0.4408  0.3515
  168SAPE  H10X19022   1.662   3.840   8.137 -1.2739 -0.9065  1.8895
  168SAPE  H10Y19023   1.511   3.941   8.101  0.9916  0.4396 -0.6393
  168SAPE  C31119024   1.665   4.052   8.200 -0.0400  0.7586 -0.4903
  168SAPE  H11X19025   1.608   4.147   8.188 -1.4719 -0.2618 -2.2325
  168SAPE  H11Y19026   1.766   4.083   8.166 -0.1171 -0.5627 -2.0213
  168SAPE  C31219027   1.670   4.003   8.345  0.0232  0.2949 -0.1104
  168SAPE  H12X19028   1.733   3.913   8.363 -0.3887  0.1665  0.7542
  168SAPE  H12Y19029   1.563   3.981   8.365  0.2498 -2.3175 -1.3115
  168SAPE  C31319030   1.698   4.116   8.442 -1.0409  0.4750  0.1183
  168SAPE  H13X19031   1.697   4.074   8.545 -1.6595 -0.6411 -0.3165
  168SAPE  H13Y19032   1.623   4.197   8.431 -1.3516  0.0817 -0.7420
  168SAPE  C31419033   1.835   4.177   8.422 -0.7235 -1.4311 -0.0816
  168SAPE  H14X19034   1.826   4.263   8.352  2.2803 -2.7672 -2.3659
  168SAPE  H14Y19035   1.901   4.099   8.377  2.5791 -0.4190  2.6096
  168SAPE  C31519036   1.902   4.218   8.553 -0.4634 -0.6007  0.0857
  168SAPE  H15X19037   1.997   4.263   8.515 -0.3368 -2.4217 -1.9375
  168SAPE  H15Y19038   1.929   4.129   8.613  1.8207 -1.4771 -2.0455
  168SAPE  C31619039   1.810   4.307   8.642  0.1268  0.1330  0.3751
  168SAPE  H16X19040   1.857   4.328   8.740 -1.4025 -0.4650  1.2665
  168SAPE  H16Y19041   1.722   4.245   8.669  1.0604 -2.3963 -1.8871
  168SAPE  C31719042   1.756   4.439   8.581 -0.5059  0.3272 -0.0693
  168SAPE  H17X19043   1.699   4.412   8.489  2.3066  2.8286 -2.7545
  168SAPE  H17Y19044   1.833   4.503   8.532 -1.1415 -0.0790 -1.6524
  168SAPE  C31819045   1.667   4.514   8.680 -0.0146  0.1832  0.6069
  168SAPE  H18X19046   1.617   4.591   8.617  1.7817  0.3523 -0.6939
  168SAPE  H18Y19047   1.716   4.567   8.764  1.0588  0.2658 -0.0528
  168SAPE  H18Z19048   1.585   4.445   8.710 -0.5931  0.1640 -0.9269
  169SAPE     N19049   0.967   6.558   6.394 -0.3931 -0.2732  0.1672
  169SAPE   HN119050   0.980   6.475   6.333  4.4316  0.3945 -0.0739
  169SAPE   HN219051   0.976   6.640   6.332 -1.1816 -0.4724 -0.2227
  169SAPE   HN319052   1.051   6.562   6.455  1.2293 -2.9796 -1.7216
  169SAPE   C1219053   0.842   6.568   6.478 -0.1719 -0.2537  1.0358
  169SAPE  H12A19054   0.757   6.581   6.408  1.6326  1.0231 -1.0522
  169SAPE  H12B19055   0.841   6.665   6.533 -0.8838  0.5292 -0.3067
  169SAPE   C1119056   0.822   6.446   6.563  0.7625  0.0548  0.4216
  169SAPE  H11A19057   0.721   6.459   6.608 -0.5681 -3.2997 -1.2329
  169SAPE  H11B19058   0.899   6.441   6.643  2.9324  1.3693 -1.4799
  169SAPE     P19059   0.711   6.273   6.392 -0.0244  0.1675 -0.0891
  169SAPE   O1319060   0.680   6.374   6.288 -0.1283  0.2875 -0.5603
  169SAPE   O1419061   0.742   6.138   6.339 -0.6964  0.3067  0.2267
  169SAPE   O1219062   0.832   6.326   6.481  0.2849 -0.1594  0.1968
  169SAPE   O1119063   0.592   6.262   6.503 -0.3809 -0.0885  0.2120
  169SAPE    C119064   0.597   6.172   6.608 -0.4659 -0.1406 -0.7605
  169SAPE    HA19065   0.657   6.081   6.588  1.8368  1.9502 -4.5319
  169SAPE    HB19066   0.641   6.214   6.701  0.8147  2.4008 -2.3850
  169SAPE    C219067   0.457   6.137   6.652 -0.2510 -0.0082  0.5497
  169SAPE    HS19068   0.423   6.107   6.551 -1.3446  0.8659  0.6361
  169SAPE   O2119069   0.389   6.256   6.700  0.5198 -0.4308  0.1798
  169SAPE   C2119070   0.263   6.253   6.675  0.3265  0.3165 -0.3546
  169SAPE   O2219071   0.198   6.162   6.620  0.0739 -0.6175 -0.0913
  169SAPE   C2219072   0.204   6.381   6.744 -0.2038 -0.2561 -0.4240
  169SAPE   H2R19073   0.255   6.437   6.824 -3.7863  1.6484  0.7311
  169SAPE   H2S19074   0.188   6.454   6.662 -0.5010  1.0996  0.7982
  169SAPE    C319075   0.455   6.022   6.756 -0.4237  0.6924 -0.3032
  169SAPE    HX19076   0.515   5.941   6.709 -0.9304 -0.2373  0.6294
  169SAPE    HY19077   0.351   5.984   6.761 -0.0260 -0.4222 -0.2371
  169SAPE   O3119078   0.507   6.055   6.887  0.2092  0.2231  0.4530
  169SAPE   C3119079   0.420   6.109   6.971  0.7240 -0.0023  0.5927
  169SAPE   O3219080   0.305   6.150   6.944 -0.3474  0.1991  0.0134
  169SAPE   C3219081   0.479   6.077   7.109 -0.4275  0.3374 -0.5700
  169SAPE   H2X19082   0.582   6.118   7.094 -0.2364 -0.5980 -1.9804
  169SAPE   H2Y19083   0.486   5.967   7.119  1.7825  0.4089 -0.8795
  169SAPE   C2319084   0.064   6.348   6.816 -0.5437 -0.2902  0.2486
  169SAPE   H3R19085   0.089   6.268   6.889 -0.9282  0.0901  0.8048
  169SAPE   H3S19086  -0.001   6.303   6.739  1.1040 -1.5368 -0.4688
  169SAPE   C2419087   0.004   6.470   6.888  0.1003  0.1115  0.5040
  169SAPE   H4R19088  -0.020   6.546   6.810  0.7424  2.3481  2.3887
  169SAPE   H4S19089   0.072   6.512   6.964  1.1018  0.2945 -0.4662
  169SAPE   C2519090  -0.124   6.433   6.953 -0.4489  0.1318 -0.8122
  169SAPE   H5R19091  -0.212   6.463   6.894 -1.6705  1.1350  1.3940
  169SAPE   C2619092  -0.140   6.387   7.081 -1.3397 -0.7634 -0.8105
  169SAPE   H6R19093  -0.241   6.353   7.110 -1.4263 -1.6926 -2.1125
  169SAPE   C2719094  -0.027   6.349   7.174 -0.0282 -0.5538  0.3122
  169SAPE   H7R19095   0.066   6.320   7.121  0.7062  1.2902  0.5174
  169SAPE   H7S19096  -0.062   6.262   7.233 -1.2495  0.2520  0.8177
  169SAPE   C2819097  -0.007   6.462   7.273 -0.1153  0.8909 -0.1013
  169SAPE   H8R19098   0.013   6.556   7.219 -1.6894  0.3353 -1.7225
  169SAPE   C2919099  -0.003   6.477   7.404 -0.2345  0.0565  0.2384
  169SAPE   H9R19100   0.010   6.578   7.446 -1.6402  0.3829 -0.0653
  169SAPE  C21019101  -0.040   6.372   7.503  0.6142 -0.3563  0.7425
  169SAPE  H10R19102  -0.011   6.271   7.469  0.6619 -0.0058 -0.2950
  169SAPE  H10S19103  -0.151   6.365   7.510  0.6353 -1.2287  0.2048
  169SAPE  C21119104   0.029   6.392   7.635  0.0887  0.4046 -0.4386
  169SAPE  H11R19105   0.138   6.400   7.632  0.1945 -0.8314 -0.2199
  169SAPE  C21219106  -0.031   6.376   7.756  0.7121 -0.5896  0.1207
  169SAPE  H12R19107   0.026   6.391   7.849  2.3844 -2.5022 -0.5255
  169SAPE  C21319108  -0.172   6.335   7.795 -0.0978  0.5920 -0.6753
  169SAPE  H13R19109  -0.242   6.315   7.711 -0.6388 -0.9751  0.1014
  169SAPE  H13S19110  -0.212   6.411   7.865  1.7059  1.8957 -0.9905
  169SAPE  C21419111  -0.166   6.196   7.863  0.8441  0.3903  0.4496
  169SAPE  H14R19112  -0.137   6.111   7.799 -1.2940 -1.0092  1.2171
  169SAPE  C21519113  -0.208   6.156   7.980 -0.1993 -0.4262  0.6724
  169SAPE  H15R19114  -0.188   6.054   8.017  2.2804 -0.2220  0.0582
  169SAPE  C21619115  -0.269   6.240   8.088  0.4039 -0.5661 -0.5198
  169SAPE  H16R19116  -0.377   6.217   8.076  0.0738  1.0573 -0.8028
  169SAPE  H16S19117  -0.252   6.347   8.065  0.4595 -0.5394 -0.3507
  169SAPE  C21719118  -0.222   6.207   8.223 -0.0427 -0.2942 -0.4767
  169SAPE  H17R19119  -0.182   6.104   8.236 -0.4438 -0.1110  3.1170
  169SAPE  H17S19120  -0.307   6.237   8.287 -1.7745 -1.5258 -2.0805
  169SAPE  C21819121  -0.101   6.290   8.269 -0.2444 -0.2696 -0.2395
  169SAPE  H18R19122  -0.118   6.398   8.252  2.6279  0.3070 -0.0253
  169SAPE  H18S19123  -0.019   6.257   8.202  0.2455 -1.0873  0.7280
  169SAPE  C21919124  -0.059   6.272   8.414  0.6257 -0.3042 -0.0119
  169SAPE  H19R19125   0.020   6.349   8.428 -0.6770  1.2381 -0.7792
  169SAPE  H19S19126  -0.021   6.168   8.423  1.3553 -0.2989 -2.4552
  169SAPE  C22019127  -0.176   6.300   8.507 -0.0427  0.0048 -0.0110
  169SAPE  H20R19128  -0.208   6.406   8.502  0.1268 -0.0096 -2.2852
  169SAPE  H20S19129  -0.144   6.285   8.612 -0.5134  3.0130  0.6631
  169SAPE  H20T19130  -0.267   6.239   8.492 -0.3713  0.8098 -1.4465
  169SAPE   C3319131   0.397   6.145   7.217 -0.6515 -0.2542  0.0070
  169SAPE   H3X19132   0.295   6.102   7.209  0.2988 -2.5302 -0.6339
  169SAPE   H3Y19133   0.395   6.255   7.200  1.9832 -0.2554 -0.6689
  169SAPE   C3419134   0.462   6.100   7.350  0.3988  0.1815  0.0108
  169SAPE   H4X19135   0.564   6.144   7.355  1.0409 -0.8546 -2.3423
  169SAPE   H4Y19136   0.453   5.989   7.352 -0.7459  0.2740  0.2213
  169SAPE   C3519137   0.393   6.137   7.493 -0.4770  0.4172  0.3851
  169SAPE   H5X19138   0.293   6.089   7.496 -0.7713  0.9640 -0.2152
  169SAPE   H5Y19139   0.368   6.245   7.480 -0.4555  0.3261 -0.4238
  169SAPE   C3619140   0.489   6.114   7.608  0.2249  0.2068 -0.5348
  169SAPE   H6X19141   0.586   6.164   7.585  0.2894 -0.1403 -1.0550
  169SAPE   H6Y19142   0.512   6.005   7.609 -1.5694 -0.2200 -1.6703
  169SAPE   C3719143   0.436   6.156   7.750  0.0146 -0.8954  0.0598
  169SAPE   H7X19144   0.402   6.261   7.745  1.4316 -0.4917 -2.6947
  169SAPE   H7Y19145   0.514   6.148   7.830 -0.4963 -2.7152  0.4125
  169SAPE   C3819146   0.324   6.053   7.790 -0.1986 -0.1443  0.2389
  169SAPE   H8X19147   0.353   5.948   7.768 -0.4650  0.0647 -1.1916
  169SAPE   H8Y19148   0.242   6.066   7.717  1.4105  1.0673 -1.4265
  169SAPE   C3919149   0.268   6.070   7.930  0.3908 -0.2566  0.6156
  169SAPE   H9X19150   0.209   5.979   7.951 -0.1161 -0.1909 -0.4637
  169SAPE   H9Y19151   0.197   6.155   7.926 -1.3004 -1.6728 -1.8662
  169SAPE  C31019152   0.371   6.082   8.045 -0.2444 -0.2503  0.4638
  169SAPE  H10X19153   0.426   6.177   8.037 -0.6398  0.0316  1.0662
  169SAPE  H10Y19154   0.453   6.007   8.043  1.4794  1.5206  1.6243
  169SAPE  C31119155   0.310   6.071   8.189 -0.5921  0.8837  0.2301
  169SAPE  H11X19156   0.289   5.962   8.199  1.3372  0.1231 -2.5298
  169SAPE  H11Y19157   0.214   6.127   8.182 -1.3034 -0.1630  1.2819
  169SAPE  C31219158   0.390   6.118   8.315 -0.4772 -0.4070  0.2736
  169SAPE  H12X19159   0.469   6.189   8.284  0.3001 -0.3405  2.2499
  169SAPE  H12Y19160   0.443   6.028   8.354 -0.1031  0.3478  1.5740
  169SAPE  C31319161   0.300   6.183   8.424 -0.0325  0.0307 -0.3167
  169SAPE  H13X19162   0.228   6.108   8.461 -0.4016  0.9142  0.7972
  169SAPE  H13Y19163   0.241   6.265   8.379  0.3439 -0.1999 -1.2598
  169SAPE  C31419164   0.383   6.220   8.544 -0.3000  0.2577 -0.2962
  169SAPE  H14X19165   0.459   6.297   8.520  0.9787 -0.9702 -0.3143
  169SAPE  H14Y19166   0.437   6.134   8.590 -3.1545 -1.1013  0.8001
  169SAPE  C31519167   0.309   6.291   8.660 -0.5513 -0.0277 -0.0796
  169SAPE  H15X19168   0.243   6.214   8.708  1.6012 -0.6174  2.1101
  169SAPE  H15Y19169   0.245   6.370   8.615 -0.8514  0.2638  0.8433
  169SAPE  C31619170   0.405   6.348   8.764  0.3031  0.7534  0.1787
  169SAPE  H16X19171   0.360   6.443   8.802  2.2826  2.3182 -1.2029
  169SAPE  H16Y19172   0.499   6.379   8.714  0.6907 -0.4473  0.1410
  169SAPE  C31719173   0.428   6.241   8.874 -0.2675  0.1065 -0.0479
  169SAPE  H17X19174   0.451   6.152   8.812 -1.5082 -0.5496  0.4016
  169SAPE  H17Y19175   0.329   6.225   8.921  0.3440 -1.4474  0.7642
  169SAPE  C31819176   0.536   6.270   8.973  0.0030  0.0661  0.6808
  169SAPE  H18X19177   0.633   6.301   8.928  0.4561  0.2229  1.7560
  169SAPE  H18Y19178   0.558   6.175   9.026 -0.5815 -0.9933 -0.8948
  169SAPE  H18Z19179   0.505   6.343   9.050 -0.1288 -0.4132  1.0923
  170SAPE     N19180   1.521   2.651   5.775 -0.0967  0.0700 -0.6045
  170SAPE   HN119181   1.425   2.643   5.814  0.2142 -0.4652  0.0667
  170SAPE   HN219182   1.560   2.748   5.768  0.2908 -0.0385 -0.0701
  170SAPE   HN319183   1.518   2.615   5.678  2.5418 -0.4448 -0.5805
  170SAPE   C1219184   1.625   2.573   5.855 -0.2644 -0.4091 -0.0987
  170SAPE  H12A19185   1.716   2.548   5.796 -0.1975 -0.4311  0.0144
  170SAPE  H12B19186   1.578   2.478   5.889  0.5782 -0.1874  1.8075
  170SAPE   C1119187   1.673   2.658   5.972 -0.8319 -0.4078  0.1850
  170SAPE  H11A19188   1.724   2.750   5.937  0.9473 -0.9479  1.2292
  170SAPE  H11B19189   1.750   2.594   6.020 -1.2988 -0.5997  0.6886
  170SAPE     P19190   1.531   2.598   6.183 -0.0518  0.1171  0.0203
  170SAPE   O1319191   1.403   2.636   6.247  0.0451  0.2074 -0.1781
  170SAPE   O1419192   1.545   2.455   6.149  0.2621 -0.1400 -0.2388
  170SAPE   O1219193   1.562   2.691   6.057 -0.5886 -1.5088 -0.0676
  170SAPE   O1119194   1.646   2.642   6.280 -0.7339 -0.2723  0.4849
  170SAPE    C119195   1.655   2.579   6.408 -0.1204  0.2898 -0.2336
  170SAPE    HA19196   1.560   2.528   6.435  0.5804 -0.7530  0.3334
  170SAPE    HB19197   1.731   2.498   6.417 -2.0318 -1.3986  2.0698
  170SAPE    C219198   1.677   2.683   6.524 -0.9838 -0.4186  0.9901
  170SAPE    HS19199   1.762   2.748   6.495 -1.2634 -1.0117 -1.4423
  170SAPE   O2119200   1.706   2.616   6.648 -0.1026  0.9319  0.2341
  170SAPE   C2119201   1.819   2.543   6.653  0.0386 -0.0924 -0.2541
  170SAPE   O2219202   1.913   2.549   6.572  0.2126 -0.3415 -0.9885
  170SAPE   C2219203   1.828   2.472   6.791  0.1553 -0.2161  0.5144
  170SAPE   H2R19204   1.914   2.528   6.834 -0.5109  0.9675  0.3347
  170SAPE   H2S19205   1.735   2.478   6.851  0.4770 -0.5416  1.0638
  170SAPE    C319206   1.553   2.782   6.526  0.0048 -0.1595 -0.8029
  170SAPE    HX19207   1.463   2.720   6.510 -0.1903 -0.0045 -0.3187
  170SAPE    HY19208   1.572   2.853   6.443 -0.6771 -1.5964 -2.2530
  170SAPE   O3119209   1.553   2.858   6.651 -0.3210  0.2068  0.0061
  170SAPE   C3119210   1.446   2.861   6.721  0.0288 -0.4725 -0.1453
  170SAPE   O3219211   1.335   2.836   6.673 -0.2514  0.2494 -0.0343
  170SAPE   C3219212   1.467   2.901   6.873 -0.0463 -0.5430 -0.2609
  170SAPE   H2X19213   1.506   3.005   6.883 -1.7126 -0.0162  1.3838
  170SAPE   H2Y19214   1.546   2.831   6.908  0.0743 -0.4985 -0.4423
  170SAPE   C2319215   1.853   2.319   6.771  0.2013  0.1637 -0.6754
  170SAPE   H3R19216   1.953   2.307   6.724  0.5673 -0.3643  0.2009
  170SAPE   H3S19217   1.781   2.278   6.697 -1.0364  1.4505 -0.2385
  170SAPE   C2419218   1.860   2.231   6.897 -0.3089  0.5310 -0.3829
  170SAPE   H4R19219   1.872   2.127   6.860  0.2356  0.6516 -0.5553
  170SAPE   H4S19220   1.759   2.228   6.943 -0.8760  0.0450 -1.6335
  170SAPE   C2519221   1.964   2.270   6.995 -0.7413 -0.2007 -0.6260
  170SAPE   H5R19222   2.067   2.243   6.969 -0.7896 -3.3938  1.8782
  170SAPE   C2619223   1.938   2.313   7.124  0.1841 -0.6878 -0.0566
  170SAPE   H6R19224   2.021   2.335   7.193 -0.8977 -0.6701  1.2896
  170SAPE   C2719225   1.801   2.328   7.177  0.4660  0.4397 -0.3842
  170SAPE   H7R19226   1.783   2.242   7.244  1.7196  0.8559  0.5168
  170SAPE   H7S19227   1.725   2.340   7.096 -2.0183  2.5587  2.0395
  170SAPE   C2819228   1.792   2.453   7.261  0.2431  0.6279 -0.4823
  170SAPE   H8R19229   1.790   2.543   7.198 -0.4360  0.4766 -0.6888
  170SAPE   C2919230   1.788   2.458   7.394 -0.0315  0.1935  0.1611
  170SAPE   H9R19231   1.784   2.562   7.431  0.8776  0.2759  0.0580
  170SAPE  C21019232   1.791   2.350   7.493  0.3099 -0.3561  0.2641
  170SAPE  H10R19233   1.777   2.251   7.446  0.0544 -0.8295  1.2995
  170SAPE  H10S19234   1.696   2.352   7.551 -0.5984  1.3466 -1.1880
  170SAPE  C21119235   1.923   2.354   7.560 -0.1851  0.0419  0.4641
  170SAPE  H11R19236   2.012   2.304   7.519  0.3323  0.3676  1.1692
  170SAPE  C21219237   1.938   2.390   7.687 -0.2339  0.0365  0.5101
  170SAPE  H12R19238   2.042   2.389   7.724  0.0534  0.3272 -0.2574
  170SAPE  C21319239   1.826   2.450   7.772 -0.2931  0.5481  0.0449
  170SAPE  H13R19240   1.754   2.371   7.800 -0.7640  1.0981  0.4107
  170SAPE  H13S19241   1.767   2.516   7.704 -0.6702 -0.0748 -0.2324
  170SAPE  C21419242   1.881   2.522   7.892 -0.2531 -0.0714  0.3415
  170SAPE  H14R19243   1.990   2.529   7.907 -0.2566  0.1364  0.2705
  170SAPE  C21519244   1.813   2.599   7.974  0.9712  0.7346 -0.1764
  170SAPE  H15R19245   1.864   2.643   8.060  2.5284  0.5649 -0.9727
  170SAPE  C21619246   1.666   2.636   7.977 -0.7518  0.7671 -0.2709
  170SAPE  H16R19247   1.609   2.623   7.882  1.0028  0.7270 -1.3708
  170SAPE  H16S19248   1.663   2.745   7.998  0.5417  0.6463  0.6108
  170SAPE  C21719249   1.565   2.584   8.080  0.5049  0.3431 -0.0808
  170SAPE  H17R19250   1.469   2.633   8.053 -0.3712 -2.0202 -1.5447
  170SAPE  H17S19251   1.600   2.608   8.183  0.0371  0.5817  0.0244
  170SAPE  C21819252   1.542   2.430   8.070 -0.2258  0.3610  0.5022
  170SAPE  H18R19253   1.641   2.382   8.087 -0.1000  1.0644  1.9125
  170SAPE  H18S19254   1.508   2.391   7.972  2.6012 -1.3963  0.1088
  170SAPE  C21919255   1.450   2.381   8.180  0.9630 -0.3510 -0.0765
  170SAPE  H19R19256   1.345   2.398   8.148  1.1409 -0.1231 -0.5468
  170SAPE  H19S19257   1.453   2.447   8.269  1.0928 -0.0912 -0.2739
  170SAPE  C22019258   1.467   2.239   8.227  0.8781  0.7188  0.2314
  170SAPE  H20R19259   1.560   2.221   8.285  1.8265  0.3631 -1.3155
  170SAPE  H20S19260   1.475   2.177   8.135  0.5483  2.0681 -0.7447
  170SAPE  H20T19261   1.378   2.204   8.283 -1.8484  0.9789 -3.5521
  170SAPE   C3319262   1.340   2.881   6.958  1.2018  0.2607  0.5840
  170SAPE   H3X19263   1.308   2.775   6.941 -1.0488  0.6600  1.9857
  170SAPE   H3Y19264   1.255   2.940   6.919 -1.4754 -1.7509  2.9088
  170SAPE   C3419265   1.368   2.918   7.103  0.1138  0.1514 -0.0589
  170SAPE   H4X19266   1.404   3.023   7.101  0.1461  0.1407 -2.1740
  170SAPE   H4Y19267   1.451   2.849   7.133  0.3560 -0.8304 -2.7256
  170SAPE   C3519268   1.245   2.909   7.201 -0.1830 -0.1433  0.4418
  170SAPE   H5X19269   1.189   2.815   7.182  1.3208 -0.9560 -0.1735
  170SAPE   H5Y19270   1.184   2.988   7.153  3.2301  2.1718 -0.5302
  170SAPE   C3619271   1.278   2.938   7.354  0.6137  0.6120  0.4932
  170SAPE   H6X19272   1.355   2.868   7.391  0.5423  0.5991  0.6161
  170SAPE   H6Y19273   1.183   2.926   7.409  0.4355 -0.1164  0.0422
  170SAPE   C3719274   1.328   3.076   7.370 -0.2046  0.2811 -0.1007
  170SAPE   H7X19275   1.275   3.140   7.297  0.4076 -0.1599 -0.9425
  170SAPE   H7Y19276   1.432   3.099   7.340 -0.2128  1.1205  0.4712
  170SAPE   C3819277   1.316   3.131   7.514 -0.6612  0.0251 -0.2926
  170SAPE   H8X19278   1.211   3.133   7.548 -0.5750  0.8646 -0.0590
  170SAPE   H8Y19279   1.337   3.239   7.502 -0.3800  0.0771  0.6263
  170SAPE   C3919280   1.404   3.076   7.632  0.3899  0.6319 -0.3476
  170SAPE   H9X19281   1.507   3.105   7.603  0.4370 -0.5356 -1.4261
  170SAPE   H9Y19282   1.389   2.966   7.634  0.2518  0.6579  0.0646
  170SAPE  C31019283   1.366   3.139   7.770 -0.0442 -0.7268  0.1688
  170SAPE  H10X19284   1.260   3.111   7.787 -0.5234  1.1681  0.5220
  170SAPE  H10Y19285   1.365   3.250   7.770 -4.6389 -0.5355 -1.6698
  170SAPE  C31119286   1.443   3.089   7.884  0.3829  0.0434 -0.7322
  170SAPE  H11X19287   1.550   3.091   7.854  0.4902  1.7140 -0.3317
  170SAPE  H11Y19288   1.406   2.987   7.909  2.8258 -0.3350  1.8111
  170SAPE  C31219289   1.418   3.169   8.011  0.2765  0.1193 -0.1617
  170SAPE  H12X19290   1.309   3.189   8.004  0.7421  2.9926 -0.4351
  170SAPE  H12Y19291   1.469   3.267   7.999 -1.3034  0.8863 -0.8734
  170SAPE  C31319292   1.477   3.108   8.134 -0.2229 -0.6399  0.2918
  170SAPE  H13X19293   1.509   3.186   8.207 -1.5153 -0.4588  0.6884
  170SAPE  H13Y19294   1.568   3.049   8.107  0.5325  1.5610 -2.3535
  170SAPE  C31419295   1.364   3.025   8.199  0.1343  0.3578 -0.1239
  170SAPE  H14X19296   1.313   2.955   8.130 -1.2270  0.6816  0.5229
  170SAPE  H14Y19297   1.293   3.105   8.227  2.1388  2.5822 -1.0162
  170SAPE  C31519298   1.418   2.968   8.326 -0.4904  0.4967 -0.6013
  170SAPE  H15X19299   1.338   2.936   8.398 -0.1039 -1.1115 -0.8487
  170SAPE  H15Y19300   1.471   3.048   8.382 -1.6957 -0.6264  2.3808
  170SAPE  C31619301   1.517   2.851   8.312 -0.0764 -0.0737  0.2415
  170SAPE  H16X19302   1.607   2.876   8.253  0.4019  0.8022  1.3095
  170SAPE  H16Y19303   1.476   2.760   8.263 -1.4613  0.1863  0.8570
  170SAPE  C31719304   1.558   2.800   8.449 -0.3964  0.1005 -0.0038
  170SAPE  H17X19305   1.488   2.726   8.492  1.8712 -0.8360  2.2934
  170SAPE  H17Y19306   1.576   2.890   8.511  0.6779 -1.3863  1.9332
  170SAPE  C31819307   1.693   2.723   8.438 -0.3395 -0.1485  0.0919
  170SAPE  H18X19308   1.786   2.784   8.436 -1.5460  1.7694 -0.9034
  170SAPE  H18Y19309   1.701   2.648   8.357 -2.7825  1.4309 -1.7462
  170SAPE  H18Z19310   1.709   2.670   8.535 -0.5958  0.2545  0.3593
  171SAPE     N19311   2.480   2.869   6.045  0.1913  0.0778 -0.1405
  171SAPE   HN119312   2.496   2.832   5.949  0.7385 -2.2363  0.7845
  171SAPE   HN219313   2.426   2.800   6.101  0.1678  1.3105  1.4034
  171SAPE   HN319314   2.416   2.951   6.040 -0.3791 -0.3592 -0.2804
  171SAPE   C1219315   2.615   2.871   6.111  0.4178 -0.0345 -1.0196
  171SAPE  H12A19316   2.691   2.923   6.049  0.7635  2.2505  1.1453
  171SAPE  H12B19317   2.642   2.764   6.119 -0.0421 -0.2257 -1.8763
  171SAPE   C1119318   2.610   2.940   6.248 -0.0761  0.2281 -0.5437
  171SAPE  H11A19319   2.711   2.937   6.294 -1.2216 -2.5229  2.1531
  171SAPE  H11B19320   2.548   2.870   6.308  0.4860 -0.4088 -0.6971
  171SAPE     P19321   2.641   3.204   6.243 -0.2148 -0.0175  0.1793
  171SAPE   O1319322   2.768   3.174   6.178 -0.8648  0.0255  0.4840
  171SAPE   O1419323   2.563   3.314   6.178 -1.0303 -0.0529  0.2986
  171SAPE   O1219324   2.556   3.069   6.233 -0.0355 -0.0507 -0.1044
  171SAPE   O1119325   2.660   3.225   6.398 -0.2259  0.0259  0.0183
  171SAPE    C119326   2.560   3.233   6.488  0.4648  0.6436 -0.2293
  171SAPE    HA19327   2.484   3.306   6.452  0.0464  1.6885  2.5329
  171SAPE    HB19328   2.517   3.136   6.520 -0.2679  0.7387 -0.8971
  171SAPE    C219329   2.612   3.292   6.624  0.7329 -0.4828 -0.4231
  171SAPE    HS19330   2.630   3.397   6.592 -2.2168 -0.2678 -1.8059
  171SAPE   O2119331   2.728   3.223   6.661 -0.2976  0.5155 -0.1746
  171SAPE   C2119332   2.822   3.276   6.727  0.8589 -0.3640 -0.2634
  171SAPE   O2219333   2.823   3.393   6.740  0.0609  0.1794 -0.0354
  171SAPE   C2219334   2.920   3.167   6.785  0.5341 -0.4199  0.1781
  171SAPE   H2R19335   2.872   3.099   6.859  1.5259 -1.7633 -0.3718
  171SAPE   H2S19336   2.941   3.104   6.696  1.4688  0.5568 -0.3168
  171SAPE    C319337   2.492   3.287   6.729 -0.8608  0.3180 -0.0140
  171SAPE    HX19338   2.468   3.179   6.733  2.2324 -0.5643 -2.0868
  171SAPE    HY19339   2.426   3.355   6.671  0.1882  1.9116  0.5901
  171SAPE   O3119340   2.541   3.343   6.853 -0.2645  0.4988  0.0248
  171SAPE   C3119341   2.582   3.254   6.943  0.7266  0.7159  0.2991
  171SAPE   O3219342   2.581   3.131   6.932  0.0385 -0.3231 -0.1854
  171SAPE   C3219343   2.624   3.331   7.063  0.0585 -0.1619 -0.4926
  171SAPE   H2X19344   2.537   3.387   7.103  0.5434 -0.0767  0.4721
  171SAPE   H2Y19345   2.697   3.409   7.034  1.2137 -1.0735 -0.1158
  171SAPE   C2319346   3.036   3.237   6.851 -0.5366 -0.5369 -0.4033
  171SAPE   H3R19347   2.987   3.274   6.944 -1.1225 -1.2994 -0.4024
  171SAPE   H3S19348   3.078   3.314   6.783  0.0211 -0.7016 -0.2522
  171SAPE   C2419349   3.145   3.142   6.887 -0.5812  0.0055  0.2999
  171SAPE   H4R19350   3.109   3.062   6.955  0.1703 -0.2443  0.4095
  171SAPE   H4S19351   3.228   3.195   6.938  1.8607 -1.2878 -2.0278
  171SAPE   C2519352   3.200   3.068   6.764 -0.5568  0.3112 -0.4042
  171SAPE   H5R19353   3.133   2.991   6.724  0.5039 -0.6869 -0.3111
  171SAPE   C2619354   3.321   3.088   6.705 -0.3893  0.2200 -0.3561
  171SAPE   H6R19355   3.343   3.021   6.620 -1.9810  0.4272 -0.9714
  171SAPE   C2719356   3.435   3.185   6.747 -0.1744 -0.3295  0.0849
  171SAPE   H7R19357   3.396   3.243   6.833  1.6904  0.1800  0.6258
  171SAPE   H7S19358   3.460   3.261   6.670  0.4129 -1.2106 -0.6208
  171SAPE   C2819359   3.563   3.117   6.783 -0.4631 -0.2445 -0.7350
  171SAPE   H8R19360   3.625   3.093   6.695 -1.0391 -0.1067 -1.1895
  171SAPE   C2919361   3.606   3.076   6.904  0.0452 -0.5863 -0.6646
  171SAPE   H9R19362   3.713   3.050   6.917 -0.1666 -0.4907  1.7644
  171SAPE  C21019363   3.531   3.088   7.034  0.7410 -0.6740 -0.7510
  171SAPE  H10R19364   3.567   3.012   7.106 -1.4632  0.5369  1.8183
  171SAPE  H10S19365   3.422   3.080   7.013  0.7959  1.1320 -1.9503
  171SAPE  C21119366   3.558   3.230   7.086 -0.2537 -0.0067 -0.1230
  171SAPE  H11R19367   3.503   3.304   7.026 -0.9222  0.7156  1.3390
  171SAPE  C21219368   3.611   3.268   7.204  0.1464  0.3487  0.1399
  171SAPE  H12R19369   3.613   3.376   7.227 -1.3204 -0.0061  2.1611
  171SAPE  C21319370   3.656   3.172   7.314 -0.0884  0.1732  0.3557
  171SAPE  H13R19371   3.750   3.218   7.350 -0.1338  1.1143 -0.6603
  171SAPE  H13S19372   3.685   3.069   7.282  1.7944  0.5661  0.6888
  171SAPE  C21419373   3.538   3.160   7.402  0.8094 -0.8071 -0.5641
  171SAPE  H14R19374   3.457   3.099   7.359  0.6166 -0.0732 -1.2589
  171SAPE  C21519375   3.529   3.202   7.529 -0.6887 -0.0418 -0.4228
  171SAPE  H15R19376   3.432   3.191   7.580 -0.7709  0.1075 -0.5448
  171SAPE  C21619377   3.624   3.282   7.616  0.3212  0.2385  0.2046
  171SAPE  H16R19378   3.586   3.386   7.609  2.5625  1.0016 -1.8601
  171SAPE  H16S19379   3.721   3.287   7.561 -0.8648 -0.4380 -2.0873
  171SAPE  C21719380   3.633   3.218   7.752  0.1938  0.5095 -0.2506
  171SAPE  H17R19381   3.681   3.120   7.767  0.5859  0.6857 -0.3467
  171SAPE  H17S19382   3.527   3.198   7.780  0.4143  1.6339  1.5240
  171SAPE  C21819383   3.688   3.308   7.861 -0.5637 -0.1536 -0.1730
  171SAPE  H18R19384   3.652   3.412   7.844 -1.3352 -0.3330  0.3104
  171SAPE  H18S19385   3.798   3.315   7.852 -0.2054 -3.0570  0.8943
  171SAPE  C21919386   3.662   3.258   8.007  0.2613 -0.1808 -0.6285
  171SAPE  H19R19387   3.654   3.148   8.011  0.4400 -0.2047 -0.9130
  171SAPE  H19S19388   3.564   3.300   8.041  0.3551  0.6807 -1.3814
  171SAPE  C22019389   3.769   3.298   8.107 -0.0538  0.2472 -0.7164
  171SAPE  H20R19390   3.759   3.405   8.133 -1.4199 -0.2342  0.9798
  171SAPE  H20S19391   3.871   3.261   8.084 -0.3220  0.3922 -2.1922
  171SAPE  H20T19392   3.739   3.252   8.204 -0.7733  3.8629  0.9105
  171SAPE   C3319393   2.684   3.233   7.171  0.3035 -0.4460  0.3638
  171SAPE   H3X19394   2.739   3.150   7.121 -0.3748  1.2817 -3.6221
  171SAPE   H3Y19395   2.597   3.187   7.224  1.4110 -0.5833  2.1592
  171SAPE   C3419396   2.778   3.297   7.276  0.2491 -0.4198  0.1017
  171SAPE   H4X19397   2.728   3.393   7.302 -0.4886 -0.4628 -1.0695
  171SAPE   H4Y19398   2.877   3.323   7.232  0.3184  1.9088  1.4672
  171SAPE   C3519399   2.811   3.208   7.395 -0.4768 -0.2111  0.7426
  171SAPE   H5X19400   2.892   3.259   7.450  1.6371 -1.3244 -1.1617
  171SAPE   H5Y19401   2.844   3.111   7.354  1.1064  0.2604  0.8539
  171SAPE   C3619402   2.690   3.168   7.478 -0.6192 -0.2799  0.2987
  171SAPE   H6X19403   2.621   3.098   7.427 -1.3126  0.5932  0.0093
  171SAPE   H6Y19404   2.637   3.264   7.495 -1.3636 -0.0275 -2.9200
  171SAPE   C3719405   2.735   3.110   7.614  0.2260  0.2019  1.4678
  171SAPE   H7X19406   2.813   3.169   7.666  2.5220  0.1382 -1.6379
  171SAPE   H7Y19407   2.770   3.007   7.591 -1.0416  0.0630  0.0064
  171SAPE   C3819408   2.617   3.101   7.702 -0.0557  0.2325 -0.6033
  171SAPE   H8X19409   2.525   3.058   7.656  1.7321 -2.8321 -1.6826
  171SAPE   H8Y19410   2.588   3.201   7.739 -3.7502  0.3363 -3.1686
  171SAPE   C3919411   2.641   3.019   7.831 -0.0627  0.6496  0.1100
  171SAPE   H9X19412   2.741   3.037   7.876 -0.1121  1.7041 -0.1735
  171SAPE   H9Y19413   2.635   2.909   7.814 -1.8427  0.9030 -1.1452
  171SAPE  C31019414   2.531   3.041   7.938 -0.0782  0.9889 -1.2175
  171SAPE  H10X19415   2.429   3.032   7.894 -0.7762  1.1098  0.3021
  171SAPE  H10Y19416   2.535   3.143   7.981 -1.1328  0.9955 -1.1052
  171SAPE  C31119417   2.548   2.937   8.057 -0.4698 -0.1942 -0.0989
  171SAPE  H11X19418   2.652   2.962   8.088  0.3869  0.3184 -3.1392
  171SAPE  H11Y19419   2.551   2.831   8.022  0.0138 -0.3598  0.4157
  171SAPE  C31219420   2.442   2.958   8.160  0.5572 -0.1956  0.6094
  171SAPE  H12X19421   2.340   2.940   8.119  0.7028  0.9390 -0.3071
  171SAPE  H12Y19422   2.443   3.061   8.204  0.5531 -1.2857  3.3454
  171SAPE  C31319423   2.472   2.878   8.292  0.6907 -0.8099  1.1169
  171SAPE  H13X19424   2.558   2.938   8.329 -0.3735 -0.0891  2.5125
  171SAPE  H13Y19425   2.510   2.780   8.256  0.8039 -0.3577 -0.0228
  171SAPE  C31419426   2.359   2.868   8.395 -0.2577  0.2993  0.2171
  171SAPE  H14X19427   2.261   2.851   8.347  0.0053 -1.5884  0.2883
  171SAPE  H14Y19428   2.359   2.969   8.442 -1.3595  0.5189 -0.2271
  171SAPE  C31519429   2.389   2.756   8.492 -0.2063  0.0036 -0.2757
  171SAPE  H15X19430   2.489   2.770   8.537 -1.1440 -4.0636  3.8386
  171SAPE  H15Y19431   2.399   2.661   8.434  0.6162 -0.4674  0.6103
  171SAPE  C31619432   2.296   2.733   8.615  0.0662  0.0534  0.6811
  171SAPE  H16X19433   2.198   2.775   8.582  0.9113  1.4379 -0.1458
  171SAPE  H16Y19434   2.334   2.800   8.695 -0.0885  0.4466  0.4296
  171SAPE  C31719435   2.282   2.586   8.650  0.3271  1.4219  0.3249
  171SAPE  H17X19436   2.377   2.543   8.689 -0.5536 -0.5110  0.4898
  171SAPE  H17Y19437   2.259   2.533   8.554  0.9678  1.5329  0.1041
  171SAPE  C31819438   2.183   2.549   8.765  0.1761 -0.0375  0.0039
  171SAPE  H18X19439   2.199   2.605   8.859  2.1091  0.9149 -0.8326
  171SAPE  H18Y19440   2.195   2.440   8.778  2.1987  0.3753  2.2587
  171SAPE  H18Z19441   2.081   2.579   8.732 -0.2940  0.8654  2.1490
  172SAPE     N19442   4.204   0.474   6.320 -0.3020 -0.6360  0.0329
  172SAPE   HN119443   4.147   0.401   6.368  1.4625 -1.3106  1.2336
  172SAPE   HN219444   4.139   0.517   6.252 -1.1412 -0.9543  0.6225
  172SAPE   HN319445   4.285   0.434   6.269  0.5123  2.5037 -1.3816
  172SAPE   C1219446   4.253   0.583   6.405  0.0785  0.0194 -0.2107
  172SAPE  H12A19447   4.287   0.671   6.346  2.4994  0.4440  1.6520
  172SAPE  H12B19448   4.331   0.541   6.472  0.5690 -2.1009 -2.0082
  172SAPE   C1119449   4.141   0.635   6.501 -0.2909 -0.0029 -0.3359
  172SAPE  H11A19450   4.182   0.716   6.565  0.5269 -0.9335  0.3535
  172SAPE  H11B19451   4.109   0.551   6.566 -0.0037 -0.4746 -0.7989
  172SAPE     P19452   3.997   0.831   6.381  0.2247 -0.0268 -0.3670
  172SAPE   O1319453   4.112   0.885   6.304  0.2145  0.2966  0.2304
  172SAPE   O1419454   3.863   0.844   6.311  0.6263  0.0370  0.1560
  172SAPE   O1219455   4.025   0.686   6.436 -0.1089 -0.1228 -0.1697
  172SAPE   O1119456   3.984   0.915   6.511 -0.4095  0.0965  0.5011
  172SAPE    C119457   3.936   0.864   6.637  0.1286  0.7653 -0.5062
  172SAPE    HA19458   3.827   0.887   6.645  0.4660  1.7791  1.9315
  172SAPE    HB19459   3.953   0.754   6.642 -1.2706  0.5193 -0.6649
  172SAPE    C219460   4.002   0.943   6.752  0.4461  0.0491 -0.9187
  172SAPE    HS19461   3.953   1.043   6.760  0.3147 -0.0879  0.0227
  172SAPE   O2119462   4.138   0.963   6.725 -0.3380 -0.1528  0.2558
  172SAPE   C2119463   4.171   1.080   6.659 -0.3103 -0.0705  0.0717
  172SAPE   O2219464   4.102   1.184   6.660 -0.0995  0.6739 -0.7231
  172SAPE   C2219465   4.299   1.056   6.582  0.5539  0.2866 -0.6658
  172SAPE   H2R19466   4.369   1.013   6.657  3.2798  1.0388 -2.6177
  172SAPE   H2S19467   4.282   0.981   6.502 -1.1176  2.3290 -2.3610
  172SAPE    C319468   3.978   0.869   6.887  0.1336  0.0110 -0.4381
  172SAPE    HX19469   4.008   0.922   6.980  2.9678 -4.2016  1.3662
  172SAPE    HY19470   4.057   0.792   6.898 -0.1140 -0.5107 -1.9856
  172SAPE   O3119471   3.847   0.807   6.899 -0.0251  0.4528  0.2954
  172SAPE   C3119472   3.756   0.885   6.951 -0.1442  1.1153  0.8476
  172SAPE   O3219473   3.774   0.994   6.993 -0.0916 -0.6844  0.2060
  172SAPE   C3219474   3.620   0.813   6.948  0.5520 -0.4597  0.8796
  172SAPE   H2X19475   3.630   0.703   6.948  0.4572 -0.5618 -2.4859
  172SAPE   H2Y19476   3.576   0.846   6.851  1.2877 -1.0614  0.3296
  172SAPE   C2319477   4.372   1.178   6.510  0.7319 -0.1494  0.1342
  172SAPE   H3R19478   4.305   1.244   6.451 -0.2868 -2.1244 -1.0628
  172SAPE   H3S19479   4.454   1.148   6.441  0.0761  1.5778 -1.4935
  172SAPE   C2419480   4.444   1.269   6.616 -0.2225 -0.1799 -0.5876
  172SAPE   H4R19481   4.499   1.203   6.687 -0.5350 -0.2354 -0.3935
  172SAPE   H4S19482   4.368   1.307   6.688  1.2213 -0.5311  1.2012
  172SAPE   C2519483   4.522   1.389   6.559 -0.5920  0.3312 -0.1923
  172SAPE   H5R19484   4.501   1.407   6.452 -0.0643 -2.0537 -0.7593
  172SAPE   C2619485   4.631   1.439   6.627  0.0603  0.3741  0.1067
  172SAPE   H6R19486   4.689   1.524   6.590 -0.8773  1.1828  0.4387
  172SAPE   C2719487   4.676   1.392   6.760  1.1127  0.3727 -0.7267
  172SAPE   H7R19488   4.777   1.431   6.783  0.0869  3.2147 -0.6560
  172SAPE   H7S19489   4.686   1.281   6.770 -1.5410  0.1776  0.6890
  172SAPE   C2819490   4.583   1.433   6.872 -0.3001  0.2485  0.6618
  172SAPE   H8R19491   4.508   1.507   6.841  0.1377  0.2950 -0.3445
  172SAPE   C2919492   4.578   1.394   7.000  0.7651  0.0978 -0.3439
  172SAPE   H9R19493   4.494   1.427   7.063  1.1541  0.2655  0.0920
  172SAPE  C21019494   4.666   1.293   7.065  0.0377 -1.0721  0.4509
  172SAPE  H10R19495   4.723   1.228   6.995  1.1871 -1.8316  2.0289
  172SAPE  H10S19496   4.605   1.215   7.115 -0.3938 -2.0810 -1.5415
  172SAPE  C21119497   4.760   1.373   7.147  0.5942  0.3885 -0.2937
  172SAPE  H11R19498   4.856   1.398   7.100  0.0692  1.0595 -1.0412
  172SAPE  C21219499   4.744   1.406   7.277  0.1688 -0.0618  0.6415
  172SAPE  H12R19500   4.814   1.468   7.336  0.0113 -1.0730  1.9462
  172SAPE  C21319501   4.619   1.376   7.354 -0.3453 -0.6781 -0.5523
  172SAPE  H13R19502   4.538   1.367   7.278 -1.7114  1.0340  0.6160
  172SAPE  H13S19503   4.587   1.463   7.415 -2.2664 -1.4319 -0.3973
  172SAPE  C21419504   4.634   1.257   7.444 -0.3602 -0.3312  0.1902
  172SAPE  H14R19505   4.737   1.244   7.479  0.2669 -0.7440 -1.7398
  172SAPE  C21519506   4.531   1.182   7.483  0.1088 -0.4087 -0.8197
  172SAPE  H15R19507   4.554   1.099   7.553 -2.0854 -0.1136  0.3418
  172SAPE  C21619508   4.383   1.199   7.451 -0.0743  0.1521 -0.7299
  172SAPE  H16R19509   4.345   1.098   7.425  1.0009 -0.6599  0.7471
  172SAPE  H16S19510   4.364   1.267   7.365 -0.7987 -0.4168 -1.0351
  172SAPE  C21719511   4.297   1.258   7.572  0.1522  0.2889  0.0257
  172SAPE  H17R19512   4.192   1.274   7.538  1.0118  0.8709 -2.5795
  172SAPE  H17S19513   4.335   1.359   7.595  2.0514  0.1776 -2.2111
  172SAPE  C21819514   4.292   1.183   7.712  0.4089  0.3266  0.5112
  172SAPE  H18R19515   4.217   1.230   7.778 -2.3424 -0.8302 -1.6247
  172SAPE  H18S19516   4.388   1.203   7.766 -0.1738 -0.2058  1.7759
  172SAPE  C21919517   4.277   1.033   7.706  0.9796  0.0398  0.0929
  172SAPE  H19R19518   4.357   0.982   7.648 -0.1582 -2.2766  0.4506
  172SAPE  H19S19519   4.185   1.017   7.646 -0.1969  0.6369  1.6666
  172SAPE  C22019520   4.266   0.978   7.840 -0.3061  0.2330  0.1197
  172SAPE  H20R19521   4.343   1.022   7.907 -0.3266  1.0560 -0.3708
  172SAPE  H20S19522   4.273   0.868   7.829 -0.7695  0.2078  0.0581
  172SAPE  H20T19523   4.168   0.992   7.891 -1.5669 -1.5998 -1.6713
  172SAPE   C3319524   3.527   0.853   7.064  0.1134 -0.4822  0.8833
  172SAPE   H3X19525   3.430   0.803   7.045 -0.2424  0.1092  1.1146
  172SAPE   H3Y19526   3.511   0.963   7.065  1.0190 -0.3199 -0.3034
  172SAPE   C3419527   3.567   0.805   7.202  0.5301  0.1301 -0.0514
  172SAPE   H4X19528   3.670   0.842   7.220  0.6752 -0.1938 -0.2129
  172SAPE   H4Y19529   3.576   0.695   7.196  0.3788  0.0001  1.6128
  172SAPE   C3519530   3.474   0.862   7.305 -1.1706 -0.1576  0.1750
  172SAPE   H5X19531   3.499   0.814   7.403 -0.9396  2.0159  1.2421
  172SAPE   H5Y19532   3.367   0.839   7.291 -1.1365  0.0385 -0.4088
  172SAPE   C3619533   3.479   1.018   7.312  0.4233 -0.2353 -0.6708
  172SAPE   H6X19534   3.437   1.070   7.223  0.2994  0.2661 -0.3292
  172SAPE   H6Y19535   3.584   1.051   7.324  0.2397  0.2798 -0.4105
  172SAPE   C3719536   3.410   1.077   7.437 -0.1240 -0.0530  0.8457
  172SAPE   H7X19537   3.303   1.048   7.431 -0.1361  0.2086 -0.5867
  172SAPE   H7Y19538   3.401   1.187   7.421  1.2581  0.1122  1.0622
  172SAPE   C3819539   3.481   1.058   7.567  0.3173  0.1860 -0.0384
  172SAPE   H8X19540   3.584   1.098   7.551  0.5895 -0.7439 -0.6810
  172SAPE   H8Y19541   3.495   0.950   7.585  0.0025  0.0344 -0.6869
  172SAPE   C3919542   3.405   1.125   7.684  0.0020  0.0454 -0.2101
  172SAPE   H9X19543   3.319   1.065   7.721  2.4492 -3.2748  0.5258
  172SAPE   H9Y19544   3.362   1.225   7.662  1.7921  0.4760 -1.9897
  172SAPE  C31019545   3.489   1.163   7.801 -0.0467 -0.2960 -0.5179
  172SAPE  H10X19546   3.566   1.233   7.760  2.0992 -1.0970  1.8691
  172SAPE  H10Y19547   3.549   1.074   7.832  1.1431  0.2974 -1.0425
  172SAPE  C31119548   3.403   1.222   7.916  0.0883  1.0279  0.2336
  172SAPE  H11X19549   3.337   1.147   7.965 -0.0347  1.7257  1.1569
  172SAPE  H11Y19550   3.340   1.303   7.875 -1.9837 -1.1505 -1.1627
  172SAPE  C31219551   3.503   1.275   8.018  0.6832  0.3556  0.1946
  172SAPE  H12X19552   3.566   1.347   7.961  2.5458 -1.7895 -0.5985
  172SAPE  H12Y19553   3.577   1.198   8.046 -1.4016 -1.4655  0.9583
  172SAPE  C31319554   3.436   1.328   8.139  0.3958 -0.1236  0.1332
  172SAPE  H13X19555   3.348   1.393   8.123  0.9042  0.5601  0.0412
  172SAPE  H13Y19556   3.503   1.381   8.211 -1.4418  1.0753  1.0320
  172SAPE  C31419557   3.369   1.222   8.233  0.6797 -0.0066  0.3387
  172SAPE  H14X19558   3.445   1.149   8.267  2.7393  1.6178 -0.5951
  172SAPE  H14Y19559   3.304   1.152   8.177  2.1854 -1.0831 -0.1248
  172SAPE  C31519560   3.297   1.290   8.351 -0.3579  0.1352 -0.0784
  172SAPE  H15X19561   3.213   1.356   8.320 -2.3033 -2.0399  0.2500
  172SAPE  H15Y19562   3.370   1.360   8.396 -1.3388  0.3779  1.1858
  172SAPE  C31619563   3.241   1.194   8.452  0.0611  0.5609  0.1910
  172SAPE  H16X19564   3.171   1.124   8.401  0.8764 -1.0654  1.1819
  172SAPE  H16Y19565   3.187   1.248   8.532  0.5469  0.0421  0.8845
  172SAPE  C31719566   3.350   1.099   8.526  0.3395 -0.3389 -0.6019
  172SAPE  H17X19567   3.413   1.166   8.588  0.7368 -0.2733 -1.0675
  172SAPE  H17Y19568   3.414   1.043   8.454 -0.3152 -0.7575 -0.8694
  172SAPE  C31819569   3.292   1.005   8.637  0.1475  0.0142  0.1578
  172SAPE  H18X19570   3.261   1.069   8.722 -2.1766 -1.7727  0.7347
  172SAPE  H18Y19571   3.357   0.920   8.665 -1.1979 -0.5877  1.6002
  172SAPE  H18Z19572   3.203   0.947   8.604 -0.7062  0.7962  1.0416
  173SOPE     N19573   2.532   5.941  11.339 -0.6678 -0.1451  0.3028
  173SOPE   HN119574   2.633   5.926  11.355 -0.0226 -1.0287 -3.6665
  173SOPE   HN219575   2.484   5.892  11.417  0.8667 -0.2311  1.2338
  173SOPE   HN319576   2.505   5.893  11.251 -2.0320 -1.5372  1.4302
  173SOPE   C1219577   2.512   6.090  11.342 -0.3725  0.6386 -0.0797
  173SOPE  H12A19578   2.543   6.127  11.442 -0.1902  1.5294 -0.4581
  173SOPE  H12B19579   2.402   6.107  11.334 -1.0831 -2.0172  2.4692
  173SOPE   C1119580   2.589   6.170  11.242  0.4127  0.6075  0.6172
  173SOPE  H11A19581   2.698   6.153  11.256  0.4027  0.0077  0.0430
  173SOPE  H11B19582   2.573   6.280  11.248  0.9657  0.7567 -0.3112
  173SOPE     P19583   2.434   6.137  11.034  0.1241  0.1574 -0.1711
  173SOPE   O1319584   2.344   6.245  11.092 -0.0976 -0.7329 -0.0782
  173SOPE   O1419585   2.373   6.002  11.014  0.0345 -0.6228 -0.3200
  173SOPE   O1219586   2.568   6.123  11.111 -0.0444 -1.2163 -0.1032
  173SOPE   O1119587   2.478   6.179  10.883 -0.5217  0.0252  0.4594
  173SOPE    C119588   2.572   6.096  10.815 -0.8163  0.8522 -0.8524
  173SOPE    HA19589   2.547   5.988  10.811  1.1579  0.2875  0.5411
  173SOPE    HB19590   2.676   6.100  10.854  0.1105 -0.0463 -3.0446
  173SOPE    C219591   2.582   6.132  10.664  0.3802  0.1483  0.1639
  173SOPE    HS19592   2.624   6.038  10.622 -0.7469 -0.8900  1.2727
  173SOPE   O2119593   2.666   6.238  10.639  0.3401  0.5531  0.1108
  173SOPE   C2119594   2.793   6.217  10.648 -0.2828  0.7176 -0.1705
  173SOPE   O2219595   2.842   6.108  10.661 -0.1575  0.3902 -0.1863
  173SOPE   C2219596   2.871   6.344  10.634 -1.1025  0.1658  0.6982
  173SOPE   H2R19597   2.906   6.369  10.737  0.8358  1.0814 -0.1289
  173SOPE   H2S19598   2.818   6.430  10.587  1.5056  1.0969 -0.7414
  173SOPE    C319599   2.448   6.163  10.597 -0.5653 -0.1941 -0.0281
  173SOPE    HX19600   2.422   6.263  10.638 -1.4004 -0.2620 -0.3713
  173SOPE    HY19601   2.368   6.089  10.622 -0.7290 -0.9195 -2.4688
  173SOPE   O3119602   2.472   6.189  10.457  0.5206 -0.1818 -0.0168
  173SOPE   C3119603   2.516   6.085  10.390  0.2307  0.2294 -0.1696
  173SOPE   O3219604   2.518   5.967  10.426  0.0008 -0.5266 -0.4277
  173SOPE   C3219605   2.555   6.137  10.244 -0.1244  0.0659 -0.2147
  173SOPE   H2X19606   2.610   6.233  10.246  0.0628 -0.0536  1.9381
  173SOPE   H2Y19607   2.457   6.157  10.194  0.8077  0.8576 -1.8132
  173SOPE   C2319608   3.003   6.320  10.550 -0.8033  0.4228  1.1762
  173SOPE   H3R19609   3.065   6.244  10.603 -1.9195 -1.2616  0.1869
  173SOPE   H3S19610   3.072   6.406  10.543  1.2459 -1.1295  1.1918
  173SOPE   C2419611   2.974   6.261  10.407  0.4960 -0.3160 -0.3447
  173SOPE   H4R19612   2.904   6.175  10.406  0.3482 -0.1889 -1.3213
  173SOPE   H4S19613   2.933   6.346  10.348  0.1780 -1.2448 -1.4978
  173SOPE   C2519614   3.099   6.211  10.331  0.9091  0.2676  0.3776
  173SOPE   H5R19615   3.178   6.288  10.319 -0.1758  2.1799  3.9264
  173SOPE   H5S19616   3.156   6.129  10.380  2.7539 -0.0797 -2.1608
  173SOPE   C2619617   3.053   6.167  10.194  0.8484 -0.4089  0.0914
  173SOPE   H6R19618   2.997   6.071  10.192  1.0270 -0.5079 -0.1765
  173SOPE   H6S19619   2.975   6.239  10.160 -0.8684 -1.5264  1.4430
  173SOPE   C2719620   3.168   6.165  10.082  0.3807  0.0529 -0.2242
  173SOPE   H7R19621   3.199   6.271  10.072 -1.4556  0.5288 -1.3802
  173SOPE   H7S19622   3.254   6.102  10.115  0.1643  0.4298  1.0924
  173SOPE   C2819623   3.114   6.127   9.941 -0.5042 -0.0985 -0.0395
  173SOPE   H8R19624   3.208   6.136   9.882 -1.1162  1.4631 -0.8087
  173SOPE   H8S19625   3.068   6.026   9.937 -0.7264 -0.0006  0.0520
  173SOPE   C2919626   3.016   6.233   9.890  0.1900  0.6934 -0.8907
  173SOPE   H9119627   2.944   6.256   9.970 -1.1811 -0.5629 -1.7014
  173SOPE  C21019628   3.021   6.291   9.771  1.0710  0.5707 -1.2108
  173SOPE  H10119629   2.933   6.356   9.757  1.0082  0.7289 -0.1961
  173SOPE  C21119630   3.119   6.265   9.667  0.5857 -0.1553  0.5695
  173SOPE  H11R19631   3.191   6.185   9.692  0.9633  0.8117  2.7605
  173SOPE  H11S19632   3.169   6.364   9.670 -1.3142  0.8795 -0.0657
  173SOPE  C21219633   3.055   6.247   9.523  0.0037  0.2059 -1.0166
  173SOPE  H12R19634   2.976   6.324   9.511  0.1191  1.2191  3.2929
  173SOPE  H12S19635   3.016   6.143   9.514  0.7697 -0.1036 -0.8373
  173SOPE  C21319636   3.167   6.282   9.424  0.1243  0.4156  0.7322
  173SOPE  H13R19637   3.225   6.188   9.411 -0.6923  0.1920 -1.9175
  173SOPE  H13S19638   3.223   6.373   9.453 -0.7634  1.1284  0.2489
  173SOPE  C21419639   3.107   6.301   9.283  0.2151 -0.4867  0.2816
  173SOPE  H14R19640   3.027   6.375   9.302  0.0790 -0.8630  1.2391
  173SOPE  H14S19641   3.064   6.202   9.256 -1.6379 -0.1217  1.6818
  173SOPE  C21519642   3.215   6.352   9.189  0.1916 -0.3037 -0.8925
  173SOPE  H15R19643   3.298   6.279   9.177  0.6781  0.3015 -1.2459
  173SOPE  H15S19644   3.262   6.450   9.210 -0.4273 -0.2640  0.4219
  173SOPE  C21619645   3.163   6.369   9.048  0.5995  0.4791 -0.3020
  173SOPE  H16R19646   3.085   6.448   9.040 -0.1672 -0.0859  1.1557
  173SOPE  H16S19647   3.117   6.276   9.009 -0.8180  1.6039 -1.4218
  173SOPE  C21719648   3.272   6.410   8.941  0.0064  0.7906 -1.1670
  173SOPE  H17R19649   3.342   6.323   8.946 -1.5537 -0.4628  0.3049
  173SOPE  H17S19650   3.317   6.505   8.976  2.3190 -0.7752  0.4012
  173SOPE  C21819651   3.223   6.436   8.798  0.5106 -0.3126 -0.2504
  173SOPE  H18R19652   3.138   6.507   8.811 -0.0194 -1.0476  0.3935
  173SOPE  H18S19653   3.196   6.343   8.743  0.2188  0.2631 -1.1111
  173SOPE  H18T19654   3.301   6.488   8.737 -0.0467  1.2881  0.3486
  173SOPE   C3319655   2.625   6.036  10.154 -0.1050  0.3847 -0.0610
  173SOPE   H3X19656   2.563   5.950  10.122 -1.0787  1.0417  0.0049
  173SOPE   H3Y19657   2.696   5.990  10.225  0.1902 -2.2397 -1.9133
  173SOPE   C3419658   2.698   6.089  10.036  0.3479  0.4301 -0.0938
  173SOPE   H4X19659   2.763   6.007   9.996 -1.0518 -1.6839  1.7189
  173SOPE   H4Y19660   2.761   6.170  10.078 -0.1644  0.0125  1.5261
  173SOPE   C3519661   2.603   6.151   9.930  0.2513 -0.0382  0.2103
  173SOPE   H5X19662   2.655   6.243   9.894  0.9991  0.1904  1.7605
  173SOPE   H5Y19663   2.509   6.194   9.971 -0.6809 -0.6981 -1.1586
  173SOPE   C3619664   2.549   6.075   9.807 -0.3091  0.3974 -0.0488
  173SOPE   H6X19665   2.481   6.144   9.752  0.4258  1.4716  0.3736
  173SOPE   H6Y19666   2.494   5.982   9.834 -0.1386  0.4261  0.3997
  173SOPE   C3719667   2.667   6.039   9.708  0.6395 -0.2788 -0.5911
  173SOPE   H7X19668   2.693   5.933   9.732  0.2497 -0.0950  0.7556
  173SOPE   H7Y19669   2.755   6.099   9.740 -0.8405  0.9841  1.2920
  173SOPE   C3819670   2.621   6.047   9.555 -0.8782 -0.1330 -0.6590
  173SOPE   H8X19671   2.526   6.103   9.539 -0.8887 -0.8174 -3.4780
  173SOPE   H8Y19672   2.599   5.939   9.537  2.2848 -0.7527 -1.4011
  173SOPE   C3919673   2.731   6.098   9.462 -0.0613  0.3250 -0.1318
  173SOPE   H9X19674   2.818   6.029   9.464 -0.8721 -0.7098 -0.2689
  173SOPE   H9Y19675   2.763   6.194   9.510 -0.3922 -0.6811  2.2463
  173SOPE  C31019676   2.671   6.114   9.323  0.6882 -0.2682 -0.7965
  173SOPE  H10X19677   2.593   6.192   9.316 -0.2309 -1.1791 -1.0277
  173SOPE  H10Y19678   2.616   6.018   9.310 -2.2841  1.2048  0.1161
  173SOPE  C31119679   2.780   6.149   9.221 -0.3135 -0.3177 -0.5045
  173SOPE  H11X19680   2.873   6.101   9.257 -0.8572 -0.6604  0.4885
  173SOPE  H11Y19681   2.794   6.259   9.222  1.4600 -0.5277 -0.0484
  173SOPE  C31219682   2.742   6.101   9.079 -0.0839  0.2417  0.1525
  173SOPE  H12X19683   2.669   6.175   9.040  0.3620  1.3512  1.3465
  173SOPE  H12Y19684   2.686   6.006   9.098  1.8610 -0.5206  2.5857
  173SOPE  C31319685   2.878   6.089   8.999 -0.6515 -0.3498 -0.3102
  173SOPE  H13X19686   2.951   6.026   9.055  0.2178  0.8762 -0.0249
  173SOPE  H13Y19687   2.925   6.190   9.001  2.4754 -1.6940  0.2787
  173SOPE  C31419688   2.862   6.022   8.861  0.0030 -0.8716  0.0666
  173SOPE  H14X19689   2.963   6.025   8.814 -0.4892  3.4472 -1.0678
  173SOPE  H14Y19690   2.789   6.083   8.804  0.7697 -0.6872 -0.7370
  173SOPE  C31519691   2.805   5.880   8.877  0.1045 -0.5463 -0.2827
  173SOPE  H15X19692   2.709   5.875   8.931  0.6385 -0.2075  0.7305
  173SOPE  H15Y19693   2.873   5.829   8.949 -0.8331  0.5492  1.4424
  173SOPE  C31619694   2.825   5.794   8.749 -0.0704 -1.3103 -0.7115
  173SOPE  H16X19695   2.928   5.812   8.710  0.3375  1.2027  1.2475
  173SOPE  H16Y19696   2.755   5.838   8.675 -1.5899 -0.6095  1.0611
  173SOPE  C31719697   2.786   5.651   8.778  0.0490 -0.4973  0.0903
  173SOPE  H17X19698   2.776   5.604   8.678 -2.0286  0.4078 -0.1741
  173SOPE  H17Y19699   2.683   5.650   8.818  0.8700  0.4556  2.3952
  173SOPE  C31819700   2.889   5.576   8.869 -0.3038 -0.3277  0.3598
  173SOPE  H18X19701   2.859   5.474   8.836  0.5736  0.6526 -4.0451
  173SOPE  H18Y19702   2.868   5.595   8.976 -1.9961  0.5514 -0.0874
  173SOPE  H18Z19703   2.995   5.585   8.840 -0.5019 -1.6279 -0.8892
  174SOPE     N19704   2.086   6.180  11.178 -0.2723  0.7443  0.1227
  174SOPE   HN119705   2.108   6.120  11.260 -1.5944 -0.3401 -0.2688
  174SOPE   HN219706   2.038   6.114  11.114 -3.0319  3.4010 -0.8123
  174SOPE   HN319707   2.169   6.212  11.124 -0.2286 -0.3993 -0.5271
  174SOPE   C1219708   1.992   6.287  11.217  0.4943 -0.5652  0.0537
  174SOPE  H12A19709   2.037   6.358  11.290  2.2150 -0.4525 -1.0722
  174SOPE  H12B19710   1.908   6.233  11.266 -1.6655  0.8236 -1.9186
  174SOPE   C1119711   1.964   6.382  11.096  0.0097 -0.0639  0.0122
  174SOPE  H11A19712   2.057   6.435  11.068  0.4646 -1.1188 -0.5228
  174SOPE  H11B19713   1.896   6.463  11.133  0.3902  0.2546  0.0207
  174SOPE     P19714   1.773   6.275  10.960  0.3100 -0.2121  0.4500
  174SOPE   O1319715   1.719   6.221  11.086  0.6608 -0.4438  0.3380
  174SOPE   O1419716   1.735   6.203  10.837  0.0778 -0.2881 -0.1867
  174SOPE   O1219717   1.925   6.306  10.978 -0.2844 -0.0072 -0.3706
  174SOPE   O1119718   1.720   6.428  10.944  0.4429  0.5612  0.2549
  174SOPE    C119719   1.792   6.518  10.856  0.2362  0.1845  0.5181
  174SOPE    HA19720   1.901   6.498  10.853  0.5243  1.6045  0.8727
  174SOPE    HB19721   1.791   6.621  10.898 -0.1483 -0.2824  1.7062
  174SOPE    C219722   1.733   6.524  10.712  0.3594  0.4803  0.3899
  174SOPE    HS19723   1.623   6.540  10.706  0.1112 -1.4363 -2.1411
  174SOPE   O2119724   1.768   6.399  10.638  0.0595  0.2568  0.2895
  174SOPE   C2119725   1.682   6.346  10.557 -0.4482 -0.1051 -0.2850
  174SOPE   O2219726   1.562   6.376  10.549  0.5109  0.3160 -0.2123
  174SOPE   C2219727   1.761   6.231  10.488  0.0342 -0.4971  0.3137
  174SOPE   H2R19728   1.809   6.165  10.563  1.4558  0.2350  0.0798
  174SOPE   H2S19729   1.830   6.268  10.410 -0.6387 -0.8347 -0.4573
  174SOPE    C319730   1.792   6.653  10.630  0.5824  0.9190 -0.0414
  174SOPE    HX19731   1.902   6.647  10.644  0.7469 -0.0542 -1.4764
  174SOPE    HY19732   1.743   6.740  10.678 -0.5729  0.8801 -1.0807
  174SOPE   O3119733   1.761   6.639  10.492  0.0997 -0.3878  0.0699
  174SOPE   C3119734   1.638   6.663  10.453  0.0436  0.0552  0.3044
  174SOPE   O3219735   1.552   6.721  10.522 -0.5230  0.1922 -0.1919
  174SOPE   C3219736   1.615   6.604  10.315 -0.1931 -0.0749 -0.2133
  174SOPE   H2X19737   1.526   6.653  10.272  0.4315  0.2807 -1.1360
  174SOPE   H2Y19738   1.588   6.497  10.331  2.2761 -0.5984  1.0631
  174SOPE   C2319739   1.677   6.131  10.408 -0.0902 -0.0028  0.2876
  174SOPE   H3R19740   1.578   6.111  10.453 -0.3564 -2.1709 -1.0856
  174SOPE   H3S19741   1.733   6.035  10.396 -1.2574 -0.7561  0.7366
  174SOPE   C2419742   1.648   6.166  10.257  0.0721 -0.1998 -0.3093
  174SOPE   H4R19743   1.591   6.261  10.248 -1.1784 -0.8503  0.4349
  174SOPE   H4S19744   1.746   6.194  10.213  0.9908  1.4324  2.4758
  174SOPE   C2519745   1.591   6.050  10.177  0.1830 -0.1915  0.4594
  174SOPE   H5R19746   1.654   5.960  10.186  1.8623  0.8455 -0.5102
  174SOPE   H5S19747   1.492   6.029  10.223 -0.8775  1.7174 -0.7685
  174SOPE   C2619748   1.542   6.083  10.035 -0.2890  0.1854  0.3319
  174SOPE   H6R19749   1.497   5.995   9.986 -0.4748  0.2365  0.4066
  174SOPE   H6S19750   1.462   6.160  10.039 -0.3914  0.1531 -0.9425
  174SOPE   C2719751   1.660   6.126   9.953  0.1109  0.0828  0.4864
  174SOPE   H7R19752   1.700   6.228   9.968  2.7483 -0.2156 -3.2703
  174SOPE   H7S19753   1.734   6.043   9.961  0.4964  0.3523 -0.2756
  174SOPE   C2819754   1.620   6.144   9.805 -0.6187 -0.3584  0.0820
  174SOPE   H8R19755   1.555   6.058   9.778 -0.7212 -0.7321  1.4424
  174SOPE   H8S19756   1.554   6.234   9.809 -0.1993 -0.0169 -0.5132
  174SOPE   C2919757   1.724   6.164   9.699 -0.5330 -0.4152  0.2560
  174SOPE   H9119758   1.824   6.193   9.735 -0.2575 -1.9979  0.8242
  174SOPE  C21019759   1.706   6.136   9.569  0.2505 -0.1218  0.6184
  174SOPE  H10119760   1.789   6.147   9.499  1.3203 -0.8616  1.7210
  174SOPE  C21119761   1.585   6.088   9.507 -0.2952  0.0617 -0.0204
  174SOPE  H11R19762   1.490   6.138   9.536  0.2326  0.6840  0.6764
  174SOPE  H11S19763   1.570   5.983   9.542 -0.8627  0.5412  1.2495
  174SOPE  C21219764   1.594   6.093   9.350  0.4080  0.9903 -0.6136
  174SOPE  H12R19765   1.502   6.048   9.307  1.0545 -0.9554 -0.0551
  174SOPE  H12S19766   1.673   6.032   9.301 -0.2728  0.3412 -0.9306
  174SOPE  C21319767   1.596   6.235   9.296 -0.0456 -0.2654  0.1886
  174SOPE  H13R19768   1.691   6.283   9.327 -0.8212 -0.0742  2.5163
  174SOPE  H13S19769   1.517   6.290   9.352 -0.9731 -0.1858 -1.1624
  174SOPE  C21419770   1.579   6.239   9.145  0.5129 -0.5011 -0.2205
  174SOPE  H14R19771   1.497   6.167   9.127 -0.4377 -0.4753  3.2188
  174SOPE  H14S19772   1.670   6.194   9.100 -0.2294 -1.7385 -0.5315
  174SOPE  C21519773   1.551   6.380   9.094 -0.6635  0.3564  0.2098
  174SOPE  H15R19774   1.619   6.448   9.149  0.1092  0.9096 -1.3757
  174SOPE  H15S19775   1.453   6.418   9.132 -0.6085  0.9531 -0.2209
  174SOPE  C21619776   1.554   6.405   8.944  0.8179 -0.4998 -0.8236
  174SOPE  H16R19777   1.651   6.389   8.892  0.9848  0.9290 -0.9948
  174SOPE  H16S19778   1.531   6.513   8.930 -1.1834 -0.5860  1.2637
  174SOPE  C21719779   1.427   6.347   8.876  0.6487 -0.2526 -1.0351
  174SOPE  H17R19780   1.342   6.381   8.938  0.1934 -3.1084  0.0684
  174SOPE  H17S19781   1.425   6.236   8.886 -1.8900 -0.3071 -1.6627
  174SOPE  C21819782   1.405   6.375   8.733  0.1259 -0.5435  0.1934
  174SOPE  H18R19783   1.382   6.482   8.719  0.2836 -0.5565 -0.1762
  174SOPE  H18S19784   1.315   6.320   8.697 -1.1139  1.5591 -0.0660
  174SOPE  H18T19785   1.494   6.355   8.670 -0.9555  0.8564 -1.8916
  174SOPE   C3319786   1.735   6.602  10.224  0.2025 -1.0335 -0.1064
  174SOPE   H3X19787   1.812   6.530  10.260  0.5297 -2.1636 -2.7943
  174SOPE   H3Y19788   1.776   6.704  10.208  1.5238 -1.7115 -1.3301
  174SOPE   C3419789   1.687   6.565  10.091 -0.2507 -0.4038 -1.5513
  174SOPE   H4X19790   1.596   6.626  10.071 -0.5981 -0.0655  0.8294
  174SOPE   H4Y19791   1.650   6.460  10.091 -1.1833 -0.1742  1.5987
  174SOPE   C3519792   1.789   6.566   9.977  0.5858  0.1556 -0.0359
  174SOPE   H5X19793   1.870   6.491   9.991  1.9096  1.4029 -0.7642
  174SOPE   H5Y19794   1.841   6.664   9.973 -0.5249  0.7269 -1.2507
  174SOPE   C3619795   1.726   6.543   9.838  0.3287 -0.3617  0.5842
  174SOPE   H6X19796   1.635   6.607   9.830 -0.1610 -1.2240 -1.4292
  174SOPE   H6Y19797   1.694   6.437   9.824  0.2696 -0.4241  1.1887
  174SOPE   C3719798   1.814   6.583   9.721  0.7923  0.4007  0.1505
  174SOPE   H7X19799   1.908   6.525   9.733  0.5383  0.3982  2.8811
  174SOPE   H7Y19800   1.844   6.690   9.720 -0.0396  0.6978 -3.2675
  174SOPE   C3819801   1.756   6.568   9.583 -0.3175 -0.4759  0.3355
  174SOPE   H8X19802   1.672   6.637   9.560  1.5329  1.5522 -0.7628
  174SOPE   H8Y19803   1.715   6.466   9.572  0.1737 -0.7596  1.0135
  174SOPE   C3919804   1.862   6.597   9.466  0.0237  0.4907  0.1276
  174SOPE   H9X19805   1.956   6.541   9.485  1.6867  2.7578 -1.0276
  174SOPE   H9Y19806   1.880   6.706   9.470  0.9862  0.3217  0.5085
  174SOPE  C31019807   1.801   6.564   9.334  0.2166  0.0939 -0.6198
  174SOPE  H10X19808   1.692   6.548   9.348  0.5077 -1.2267  0.3439
  174SOPE  H10Y19809   1.826   6.464   9.293  2.3340  0.2614  0.1361
  174SOPE  C31119810   1.835   6.675   9.228 -1.0253  0.7364 -0.3485
  174SOPE  H11X19811   1.930   6.724   9.257  0.0985 -1.4849 -0.0649
  174SOPE  H11Y19812   1.754   6.750   9.240 -0.0158  1.6041  1.5032
  174SOPE  C31219813   1.829   6.626   9.083  0.1878  0.2645 -0.3170
  174SOPE  H12X19814   1.753   6.691   9.035  0.6945  1.3811  0.3654
  174SOPE  H12Y19815   1.787   6.523   9.074  2.2655 -0.5820 -1.0559
  174SOPE  C31319816   1.968   6.636   9.011  0.6581  0.0125 -0.3870
  174SOPE  H13X19817   2.038   6.584   9.081 -0.4647 -2.2713 -0.8809
  174SOPE  H13Y19818   1.999   6.742   9.019 -1.3954  0.5052  2.8394
  174SOPE  C31419819   1.971   6.581   8.872  0.5429 -0.5724  0.4527
  174SOPE  H14X19820   2.071   6.611   8.837  1.5600 -0.7361  2.9829
  174SOPE  H14Y19821   1.905   6.640   8.805  0.3945  1.4731  2.3030
  174SOPE  C31519822   1.971   6.424   8.876  0.5803 -0.6428 -0.0337
  174SOPE  H15X19823   1.870   6.395   8.913 -0.4292  3.0017  0.5241
  174SOPE  H15Y19824   2.051   6.381   8.940 -1.8889 -1.7709  2.5402
  174SOPE  C31619825   1.987   6.351   8.735  0.7079 -0.4560  0.3633
  174SOPE  H16X19826   1.996   6.244   8.766 -0.0661 -1.0249 -1.2765
  174SOPE  H16Y19827   2.086   6.390   8.704  0.1433  1.4990  0.9238
  174SOPE  C31719828   1.870   6.375   8.637  0.0987 -0.0674  0.1481
  174SOPE  H17X19829   1.880   6.475   8.588 -0.7519  0.5088  1.1258
  174SOPE  H17Y19830   1.771   6.377   8.688 -1.2430 -1.6845 -2.2303
  174SOPE  C31819831   1.870   6.284   8.517 -0.0678  0.2940  0.1253
  174SOPE  H18X19832   1.785   6.318   8.455  0.4253  0.5207 -0.4430
  174SOPE  H18Y19833   1.847   6.178   8.541  0.9446 -0.0159 -0.1834
  174SOPE  H18Z19834   1.967   6.303   8.467  0.2357  4.3881  1.8319
  175SOPE     N19835   4.222   1.359  10.716  0.2536 -0.1288  0.1273
  175SOPE   HN119836   4.235   1.454  10.756 -0.4386  0.4310 -0.9307
  175SOPE   HN219837   4.119   1.353  10.711  0.2069  1.3751 -1.5100
  175SOPE   HN319838   4.267   1.289  10.779  0.0308 -1.9445 -1.6009
  175SOPE   C1219839   4.269   1.344  10.575  0.1929  0.0548 -0.5043
  175SOPE  H12A19840   4.353   1.415  10.565 -0.5720  1.3381  1.5110
  175SOPE  H12B19841   4.194   1.393  10.508 -1.2871 -1.1137  0.2346
  175SOPE   C1119842   4.291   1.196  10.547  0.0717 -1.4928 -0.0061
  175SOPE  H11A19843   4.326   1.193  10.441 -0.6953 -1.0979 -0.2768
  175SOPE  H11B19844   4.194   1.142  10.548  0.0986 -1.5472 -0.2505
  175SOPE     P19845   4.525   1.162  10.667  0.0938 -0.1275 -0.1811
  175SOPE   O1319846   4.571   1.029  10.716  0.1393  0.0719  0.3028
  175SOPE   O1419847   4.543   1.277  10.761  0.1346  0.2796 -0.1182
  175SOPE   O1219848   4.373   1.140  10.643  0.4847 -0.3352  0.3889
  175SOPE   O1119849   4.590   1.194  10.518  0.6380  0.0545 -0.1507
  175SOPE    C119850   4.606   1.077  10.443 -0.1999  0.4805  0.3946
  175SOPE    HA19851   4.508   1.027  10.427  0.1016  0.0344 -0.1190
  175SOPE    HB19852   4.660   0.996  10.497 -1.1961 -0.2147  0.3929
  175SOPE    C219853   4.670   1.115  10.309 -0.2540 -0.9206  0.3938
  175SOPE    HS19854   4.762   1.175  10.325 -0.1557 -0.5125 -1.4996
  175SOPE   O2119855   4.571   1.189  10.241  0.3404 -0.5638  0.2051
  175SOPE   C2119856   4.577   1.317  10.251  0.1283 -0.3518 -0.0004
  175SOPE   O2219857   4.660   1.393  10.302  0.3931  0.0855  0.4315
  175SOPE   C2219858   4.437   1.362  10.192 -0.3817  0.1896 -0.2790
  175SOPE   H2R19859   4.354   1.309  10.243 -1.9084  3.2138  0.6418
  175SOPE   H2S19860   4.445   1.320  10.090 -0.6807  0.3748 -0.3800
  175SOPE    C319861   4.703   0.985  10.233 -0.4728  0.1694 -0.9730
  175SOPE    HX19862   4.605   0.937  10.213 -1.2213  0.1993  2.0627
  175SOPE    HY19863   4.756   0.920  10.306 -1.2990  2.4165  1.8039
  175SOPE   O3119864   4.763   0.994  10.100 -0.3136  0.6023  0.0749
  175SOPE   C3119865   4.888   1.026  10.109 -0.5883  0.1876  0.2708
  175SOPE   O3219866   4.951   1.046  10.212  0.7679  0.0447 -0.2565
  175SOPE   C3219867   4.946   1.038   9.969 -0.3759 -0.4702  0.1748
  175SOPE   H2X19868   5.047   0.992   9.966  0.7402  1.3306  3.9477
  175SOPE   H2Y19869   4.955   1.148   9.958  0.2556 -0.1943  2.8042
  175SOPE   C2319870   4.429   1.509  10.188  0.3120 -0.1929  0.3838
  175SOPE   H3R19871   4.520   1.561  10.150  0.6780 -0.3271  1.0707
  175SOPE   H3S19872   4.422   1.539  10.295  1.0733 -0.1083  0.4166
  175SOPE   C2419873   4.294   1.554  10.128  0.1415  0.0036  0.8519
  175SOPE   H4R19874   4.209   1.505  10.179 -2.3134  2.1156 -0.9342
  175SOPE   H4S19875   4.288   1.665  10.136  0.7080  0.3263 -1.9899
  175SOPE   C2519876   4.277   1.518   9.977 -0.4257  0.1293  0.1866
  175SOPE   H5R19877   4.315   1.415   9.961  0.4717  0.4849 -0.0043
  175SOPE   H5S19878   4.167   1.505   9.967 -0.4525  0.0946  0.4970
  175SOPE   C2619879   4.326   1.623   9.867 -0.4707  0.2167 -0.0979
  175SOPE   H6R19880   4.284   1.721   9.898 -1.9603  0.1254 -1.6968
  175SOPE   H6S19881   4.436   1.627   9.853 -0.5596  0.4201 -0.7484
  175SOPE   C2719882   4.265   1.599   9.729  0.4203  0.0606  0.0392
  175SOPE   H7R19883   4.270   1.488   9.717 -0.5713 -0.2634  2.1354
  175SOPE   H7S19884   4.156   1.622   9.731  0.1564 -1.1200  0.2933
  175SOPE   C2819885   4.335   1.671   9.614 -0.0381  0.9481 -0.0618
  175SOPE   H8R19886   4.444   1.651   9.611 -0.2869 -0.8555 -3.9815
  175SOPE   H8S19887   4.307   1.629   9.515 -1.2416  1.3262  0.1042
  175SOPE   C2919888   4.308   1.816   9.620 -0.2320 -0.4823  0.0477
  175SOPE   H9119889   4.374   1.874   9.685 -2.1997  1.3501  0.5424
  175SOPE  C21019890   4.216   1.881   9.544  0.3780  0.1043 -1.3469
  175SOPE  H10119891   4.214   1.991   9.556 -0.1174 -0.0757  0.4838
  175SOPE  C21119892   4.120   1.822   9.451 -0.3845 -0.6167 -0.0363
  175SOPE  H11R19893   4.023   1.861   9.488  0.5820  1.5511  0.3844
  175SOPE  H11S19894   4.127   1.712   9.466  1.8564 -0.7166 -1.3757
  175SOPE  C21219895   4.128   1.862   9.308  0.1554 -0.7156  0.2599
  175SOPE  H12R19896   4.115   1.971   9.296 -0.0768 -0.9029 -1.5045
  175SOPE  H12S19897   4.041   1.804   9.269  1.6984 -1.6846 -1.9711
  175SOPE  C21319898   4.258   1.812   9.246  0.1032  0.4442  0.5862
  175SOPE  H13R19899   4.271   1.704   9.267 -0.7388 -0.3186 -2.3301
  175SOPE  H13S19900   4.342   1.876   9.278  0.5991 -0.9037  2.0832
  175SOPE  C21419901   4.248   1.820   9.092 -0.2293  0.5726 -0.3506
  175SOPE  H14R19902   4.287   1.918   9.058  0.9576  0.1384 -0.3076
  175SOPE  H14S19903   4.144   1.822   9.054 -0.5596  0.7084  0.5554
  175SOPE  C21519904   4.320   1.715   9.008 -0.0750  0.0467 -0.1956
  175SOPE  H15R19905   4.263   1.622   9.026  0.6786 -0.8143 -2.0109
  175SOPE  H15S19906   4.427   1.708   9.036 -0.1127  0.5980  0.0949
  175SOPE  C21619907   4.323   1.745   8.859 -0.6718  0.7295 -0.1357
  175SOPE  H16R19908   4.364   1.845   8.832 -0.2230  1.3003  2.3717
  175SOPE  H16S19909   4.218   1.747   8.823 -1.0873 -2.9463  0.5386
  175SOPE  C21719910   4.390   1.626   8.783  0.3006 -0.5324  0.0670
  175SOPE  H17R19911   4.338   1.533   8.813 -0.4279 -0.0142  0.4337
  175SOPE  H17S19912   4.496   1.608   8.813  0.7610  1.7083 -0.0422
  175SOPE  C21819913   4.390   1.637   8.630  0.1017  0.1898 -0.5187
  175SOPE  H18R19914   4.442   1.544   8.599  1.2806  0.3423  0.8832
  175SOPE  H18S19915   4.440   1.730   8.594  1.5857 -0.1142  0.6583
  175SOPE  H18T19916   4.286   1.636   8.593 -0.1184  4.0470 -0.4471
  175SOPE   C3319917   4.851   0.978   9.857  0.1092 -0.3634 -0.1645
  175SOPE   H3X19918   4.749   1.022   9.845 -0.9890 -2.6732  0.1407
  175SOPE   H3Y19919   4.829   0.874   9.889 -3.2401  0.0951 -0.6439
  175SOPE   C3419920   4.911   0.967   9.717  0.1782  0.5187  0.0062
  175SOPE   H4X19921   5.012   0.920   9.720 -0.5430 -1.1052  0.0904
  175SOPE   H4Y19922   4.918   1.071   9.679 -0.5277  0.9146  0.9278
  175SOPE   C3519923   4.825   0.902   9.617  0.6065 -0.3221 -0.0178
  175SOPE   H5X19924   4.731   0.956   9.592  1.6077  0.7351 -1.7073
  175SOPE   H5Y19925   4.798   0.795   9.636 -0.0426 -0.5926 -2.1109
  175SOPE   C3619926   4.899   0.894   9.477  0.2926 -0.2981  0.2958
  175SOPE   H6X19927   4.978   0.815   9.479  1.2705  0.6264 -0.4964
  175SOPE   H6Y19928   4.942   0.994   9.453 -0.3662 -0.2118 -0.5385
  175SOPE   C3719929   4.792   0.871   9.366  0.2219  0.3204 -0.0093
  175SOPE   H7X19930   4.712   0.946   9.384 -0.0588  0.0833 -0.2710
  175SOPE   H7Y19931   4.743   0.772   9.379  0.8049  0.0311  0.0409
  175SOPE   C3819932   4.849   0.897   9.228  0.3642 -0.0218  0.6116
  175SOPE   H8X19933   4.932   0.827   9.205 -1.5193 -2.1003 -0.1883
  175SOPE   H8Y19934   4.884   1.003   9.234 -0.8358  0.4225  0.0044
  175SOPE   C3919935   4.754   0.883   9.107  0.0401  0.3822  0.0426
  175SOPE   H9X19936   4.652   0.914   9.138 -1.1761 -2.7658 -0.3868
  175SOPE   H9Y19937   4.728   0.776   9.091  0.4627  0.2725  0.0754
  175SOPE  C31019938   4.810   0.935   8.975  0.1638  0.5333 -0.2718
  175SOPE  H10X19939   4.894   0.869   8.947 -1.2236 -0.9503 -1.1102
  175SOPE  H10Y19940   4.840   1.042   8.973  1.5619  0.1596  0.0836
  175SOPE  C31119941   4.710   0.909   8.862  0.6364 -0.1986 -0.1297
  175SOPE  H11X19942   4.616   0.960   8.893 -0.6416 -1.8169 -1.1614
  175SOPE  H11Y19943   4.690   0.801   8.847 -0.1044 -0.3019  1.4129
  175SOPE  C31219944   4.763   0.972   8.733  0.1425  0.0623 -0.4324
  175SOPE  H12X19945   4.853   0.908   8.719 -0.7314 -0.7250 -2.8737
  175SOPE  H12Y19946   4.792   1.076   8.758  0.8618 -0.0126 -0.9072
  175SOPE  C31319947   4.675   0.959   8.617 -0.3725  0.1083 -0.1822
  175SOPE  H13X19948   4.594   1.035   8.622 -0.6364 -0.2300  0.8239
  175SOPE  H13Y19949   4.626   0.859   8.616  1.6855 -0.9812  1.0121
  175SOPE  C31419950   4.755   0.989   8.485 -0.0295  0.3326  0.5881
  175SOPE  H14X19951   4.826   0.907   8.461  0.5281  0.6769  1.0348
  175SOPE  H14Y19952   4.805   1.083   8.515 -2.6438  2.1032 -0.2936
  175SOPE  C31519953   4.660   1.009   8.365 -0.1889 -0.2107  0.4728
  175SOPE  H15X19954   4.585   1.088   8.383  0.2752  0.5501 -0.8504
  175SOPE  H15Y19955   4.608   0.914   8.341 -1.2569  0.9258 -1.9973
  175SOPE  C31619956   4.732   1.055   8.232  0.1971  0.5586 -0.2896
  175SOPE  H16X19957   4.803   0.974   8.206  1.7339  2.5707 -2.8055
  175SOPE  H16Y19958   4.786   1.151   8.242  0.0657  0.6014  0.0168
  175SOPE  C31719959   4.625   1.072   8.122 -0.4396 -0.2124  0.1242
  175SOPE  H17X19960   4.547   1.149   8.139 -0.7108 -0.9884  2.8364
  175SOPE  H17Y19961   4.560   0.982   8.132 -2.7201  1.4361  0.9401
  175SOPE  C31819962   4.684   1.079   7.982 -0.3761  0.3059 -0.2773
  175SOPE  H18X19963   4.604   1.100   7.908  0.1287 -0.2359 -0.9858
  175SOPE  H18Y19964   4.743   0.988   7.959  0.5447  0.3697  1.6081
  175SOPE  H18Z19965   4.741   1.174   7.975 -0.3230  0.2481 -0.6263
  176SOPE     N19966   2.939   0.148  11.065  1.1207 -0.2557  0.2352
  176SOPE   HN119967   2.848   0.104  11.086  0.9185 -0.6228 -1.3200
  176SOPE   HN219968   3.013   0.089  11.109  0.5419  0.1961  1.8996
  176SOPE   HN319969   2.943   0.244  11.104  0.4463 -0.0045 -0.2986
  176SOPE   C1219970   2.969   0.166  10.913 -0.7071  0.3113 -0.8413
  176SOPE  H12A19971   2.871   0.197  10.871 -0.6313  1.7617 -0.0052
  176SOPE  H12B19972   2.995   0.061  10.887 -2.0134 -0.3992  0.4911
  176SOPE   C1119973   3.073   0.276  10.880 -0.0210  0.1665  0.2156
  176SOPE  H11A19974   3.088   0.271  10.770 -1.4344 -0.2123  0.0255
  176SOPE  H11B19975   3.167   0.253  10.933 -0.4061 -0.9040  0.4456
  176SOPE     P19976   3.106   0.525  10.893  0.3716 -0.3019 -0.1417
  176SOPE   O1319977   3.245   0.476  10.892  0.2337 -0.6564  0.3135
  176SOPE   O1419978   3.071   0.636  10.989  0.7461 -0.5976  0.6385
  176SOPE   O1219979   3.019   0.402  10.925 -0.1360  0.3063  0.2421
  176SOPE   O1119980   3.070   0.572  10.742  0.0049  0.7681  0.4729
  176SOPE    C119981   2.943   0.549  10.688 -0.3839  0.6698  0.2120
  176SOPE    HA19982   2.864   0.611  10.737 -1.5021  0.9017 -1.7994
  176SOPE    HB19983   2.919   0.441  10.690 -1.0864  0.8236  0.4835
  176SOPE    C219984   2.948   0.584  10.538  0.5565  0.3874 -0.1077
  176SOPE    HS19985   2.865   0.533  10.484 -0.1295 -0.0733  1.3176
  176SOPE   O2119986   3.078   0.557  10.485  0.2232  0.1444  0.1246
  176SOPE   C2119987   3.106   0.427  10.467  0.0817  0.7704  0.1872
  176SOPE   O2219988   3.028   0.328  10.481 -0.6945  0.0265 -0.2657
  176SOPE   C2219989   3.250   0.424  10.409 -0.0171 -0.4745  0.1623
  176SOPE   H2R19990   3.265   0.324  10.364 -0.7011 -0.8698  0.7897
  176SOPE   H2S19991   3.320   0.439  10.494 -0.0090 -2.9891  0.6609
  176SOPE    C319992   2.933   0.736  10.522  0.6284 -0.5923 -0.3967
  176SOPE    HX19993   3.022   0.781  10.570 -0.2914 -0.7409  1.5710
  176SOPE    HY19994   2.842   0.767  10.579  0.8285  1.3243 -1.0446
  176SOPE   O3119995   2.913   0.785  10.384  0.0147  0.0692  0.3775
  176SOPE   C3119996   2.894   0.914  10.378 -0.6212  0.1034 -0.2643
  176SOPE   O3219997   2.865   0.981  10.475  0.1901 -0.1407 -0.7487
  176SOPE   C3219998   2.874   0.953  10.228  0.3686 -0.1521 -0.0528
  176SOPE   H2X19999   2.807   0.879  10.180  0.2449 -0.9648  1.3391
  176SOPE   H2Y20000   2.970   0.937  10.173  0.4636 -0.6458  0.2499
  176SOPE   C2320001   3.282   0.539  10.309  0.7071 -0.0906 -0.2907
  176SOPE   H3R20002   3.390   0.528  10.285 -0.0063 -2.3312 -2.9915
  176SOPE   H3S20003   3.266   0.644  10.341 -1.3223 -0.9202  1.6601
  176SOPE   C2420004   3.208   0.534  10.173 -0.2818  0.2671 -0.0125
  176SOPE   H4R20005   3.262   0.580  10.087 -0.4800 -0.8504 -0.7427
  176SOPE   H4S20006   3.177   0.431  10.147  0.2864 -0.3618  1.6613
  176SOPE   C2520007   3.083   0.626  10.173  1.0476 -0.4608  0.6212
  176SOPE   H5R20008   3.012   0.579  10.245 -0.2731 -1.2901 -1.1566
  176SOPE   H5S20009   3.114   0.729  10.202  1.7313  0.0175 -1.6182
  176SOPE   C2620010   2.995   0.627  10.044 -0.1826 -0.5621  0.3082
  176SOPE   H6R20011   2.938   0.533  10.031 -0.6499  0.0027 -2.2655
  176SOPE   H6S20012   2.923   0.707  10.071  2.0688  1.0855  1.7783
  176SOPE   C2720013   3.078   0.674   9.928 -0.4033 -0.0021  0.0434
  176SOPE   H7R20014   3.134   0.767   9.951  0.0139 -0.1070 -0.5326
  176SOPE   H7S20015   3.162   0.605   9.906 -0.4154  0.3024 -0.9927
  176SOPE   C2820016   2.989   0.692   9.806  0.1235 -0.6035 -0.2161
  176SOPE   H8R20017   2.931   0.598   9.791 -1.7870  0.3718  0.6142
  176SOPE   H8S20018   2.911   0.767   9.831 -0.4015 -0.9083 -0.8963
  176SOPE   C2920019   3.069   0.730   9.685 -0.8718  0.0590  0.0696
  176SOPE   H9120020   3.161   0.783   9.715  0.2849 -1.5535 -0.4446
  176SOPE  C21020021   3.050   0.692   9.560  0.3035 -0.3560  0.1021
  176SOPE  H10120022   3.116   0.734   9.482 -1.2695  0.9398 -0.6015
  176SOPE  C21120023   2.943   0.610   9.489 -0.0919 -0.0298  0.1379
  176SOPE  H11R20024   2.851   0.598   9.550 -1.1302  1.8244 -0.9660
  176SOPE  H11S20025   2.992   0.512   9.471 -0.1629  0.2395 -1.6459
  176SOPE  C21220026   2.895   0.672   9.353  0.2955 -0.4025  0.2055
  176SOPE  H12R20027   2.857   0.774   9.374 -2.3210 -0.8812 -1.6811
  176SOPE  H12S20028   2.805   0.624   9.309  0.5557  0.9447 -1.9043
  176SOPE  C21320029   3.001   0.684   9.239  0.8974  0.0879 -0.2384
  176SOPE  H13R20030   3.066   0.594   9.242 -1.3241 -1.5921  1.7043
  176SOPE  H13S20031   3.062   0.773   9.265 -1.7282  2.3951 -1.3683
  176SOPE  C21420032   2.932   0.725   9.111 -0.2094  0.3653 -0.0882
  176SOPE  H14R20033   2.878   0.822   9.110 -2.2035 -0.6979 -0.4330
  176SOPE  H14S20034   2.854   0.650   9.087 -0.1949 -0.7851  2.9404
  176SOPE  C21520035   3.028   0.719   8.993 -0.2029  0.0128  0.3380
  176SOPE  H15R20036   3.083   0.622   8.997 -0.1971  0.0237  0.5598
  176SOPE  H15S20037   3.098   0.804   9.005  0.5425 -0.2487 -1.8187
  176SOPE  C21620038   2.948   0.742   8.868  0.2848  0.0670  0.2864
  176SOPE  H16R20039   2.891   0.837   8.862  0.2837  0.1370  1.2566
  176SOPE  H16S20040   2.884   0.651   8.863  2.4727 -1.6682  1.8267
  176SOPE  C21720041   3.048   0.727   8.752  0.6611 -0.5437  0.6003
  176SOPE  H17R20042   3.087   0.623   8.757  1.3859 -0.3288 -0.2802
  176SOPE  H17S20043   3.136   0.794   8.758  0.1723  0.8661 -3.9479
  176SOPE  C21820044   2.988   0.746   8.612  0.5943 -0.0542 -0.3531
  176SOPE  H18R20045   2.921   0.835   8.601  1.5547  0.7176 -0.1072
  176SOPE  H18S20046   2.925   0.655   8.604 -0.0233 -0.1722  3.7514
  176SOPE  H18T20047   3.073   0.751   8.542  2.0303 -0.6095  1.2848
  176SOPE   C3320048   2.814   1.094  10.215  0.5848  0.5063  0.5413
  176SOPE   H3X20049   2.891   1.161  10.258  2.8511 -1.4295 -0.3082
  176SOPE   H3Y20050   2.724   1.098  10.281  0.2069 -0.4003  0.0969
  176SOPE   C3420051   2.786   1.119  10.068 -0.8413 -0.2083 -0.2874
  176SOPE   H4X20052   2.732   1.215  10.067  2.8333  2.1088  1.8546
  176SOPE   H4Y20053   2.725   1.041  10.017 -1.5693  1.3826 -1.9551
  176SOPE   C3520054   2.917   1.142   9.996 -0.0295 -0.2957  0.5197
  176SOPE   H5X20055   3.001   1.074  10.021  0.9303 -0.2844 -2.2561
  176SOPE   H5Y20056   2.957   1.245  10.011 -2.3844  0.9621 -1.2833
  176SOPE   C3620057   2.903   1.128   9.842  0.4506 -0.4685 -0.1727
  176SOPE   H6X20058   2.828   1.204   9.812  0.8819  1.0198  2.2915
  176SOPE   H6Y20059   2.867   1.027   9.813 -2.4096 -0.0381  1.4943
  176SOPE   C3720060   3.039   1.147   9.769 -0.4034 -0.0673  0.7949
  176SOPE   H7X20061   3.089   1.056   9.808 -3.5203 -1.4639  1.8473
  176SOPE   H7Y20062   3.085   1.243   9.801  1.6634 -1.0943  1.0118
  176SOPE   C3820063   3.032   1.133   9.614 -0.3556  0.2185 -0.1978
  176SOPE   H8X20064   2.958   1.050   9.612 -0.2041 -0.2013  3.7939
  176SOPE   H8Y20065   3.131   1.104   9.572 -0.1737  0.5650 -0.0036
  176SOPE   C3920066   2.981   1.248   9.535  0.4149  0.2546  0.7893
  176SOPE   H9X20067   3.065   1.311   9.498  1.1130 -0.0096  1.8618
  176SOPE   H9Y20068   2.900   1.314   9.575  0.2883 -0.5551  1.9254
  176SOPE  C31020069   2.917   1.194   9.407  0.1413 -0.0100 -0.4617
  176SOPE  H10X20070   2.858   1.279   9.366 -2.1118 -0.3495  1.8228
  176SOPE  H10Y20071   2.834   1.124   9.432  0.2485  0.6424  1.9668
  176SOPE  C31120072   3.016   1.143   9.302 -0.5181 -0.0923 -0.1642
  176SOPE  H11X20073   2.989   1.037   9.283  1.3367 -0.1830 -2.9422
  176SOPE  H11Y20074   3.119   1.152   9.344 -1.4107  2.1711  1.7958
  176SOPE  C31220075   3.022   1.223   9.175  0.6177  0.5235 -0.0321
  176SOPE  H12X20076   3.109   1.194   9.112 -0.0890 -1.2550 -0.2693
  176SOPE  H12Y20077   3.053   1.322   9.215  0.4185 -0.5311  3.0272
  176SOPE  C31320078   2.897   1.241   9.093  0.4672 -0.3784 -0.5921
  176SOPE  H13X20079   2.829   1.307   9.150  1.7755 -0.7505  1.5416
  176SOPE  H13Y20080   2.841   1.146   9.079 -2.2116  0.8930  0.7760
  176SOPE  C31420081   2.937   1.297   8.952  0.4975 -0.2646 -0.3898
  176SOPE  H14X20082   2.998   1.218   8.903 -1.5215 -0.9271 -2.0030
  176SOPE  H14Y20083   3.001   1.383   8.980 -1.2444  1.5717 -1.7810
  176SOPE  C31520084   2.816   1.333   8.860 -0.1934  0.2151 -1.1283
  176SOPE  H15X20085   2.868   1.358   8.765  1.4635  0.4983 -0.1878
  176SOPE  H15Y20086   2.760   1.421   8.898 -1.0602 -0.4818 -0.7598
  176SOPE  C31620087   2.721   1.216   8.820 -0.4318  0.2707 -0.3279
  176SOPE  H16X20088   2.681   1.185   8.919 -1.1803 -1.4379 -1.1418
  176SOPE  H16Y20089   2.780   1.135   8.772 -0.7320  0.7543 -1.5504
  176SOPE  C31720090   2.609   1.257   8.723 -0.3226  0.7373  0.3597
  176SOPE  H17X20091   2.597   1.366   8.742 -2.0063  0.6084  0.1590
  176SOPE  H17Y20092   2.512   1.214   8.754 -0.5292  0.3372 -0.8061
  176SOPE  C31820093   2.629   1.237   8.572 -0.3476 -0.9339  0.0024
  176SOPE  H18X20094   2.530   1.239   8.521 -1.7120 -0.2309  2.4673
  176SOPE  H18Y20095   2.676   1.140   8.547 -0.8638 -1.4455  0.9429
  176SOPE  H18Z20096   2.699   1.314   8.533  3.1806 -3.6665  0.4988
  177SOPE     N20097   3.607   5.121  11.408 -0.1494  0.4928 -0.6223
  177SOPE   HN120098   3.560   5.045  11.355 -1.8606 -1.8151  3.7239
  177SOPE   HN220099   3.698   5.079  11.438 -1.5755 -3.9142 -1.7601
  177SOPE   HN320100   3.555   5.138  11.496 -0.0637  3.2550 -1.0027
  177SOPE   C1220101   3.613   5.243  11.325 -0.5252 -0.3917 -0.5649
  177SOPE  H12A20102   3.669   5.315  11.388  0.0563 -2.0037  0.8697
  177SOPE  H12B20103   3.508   5.273  11.305 -2.1715 -2.4398  3.5750
  177SOPE   C1120104   3.692   5.228  11.192 -0.3276  0.2114  0.6131
  177SOPE  H11A20105   3.795   5.196  11.219 -0.9595 -0.3822  2.5036
  177SOPE  H11B20106   3.705   5.328  11.146  1.6982 -0.6207 -0.7656
  177SOPE     P20107   3.529   5.158  11.007  0.0781 -0.0875 -0.0928
  177SOPE   O1320108   3.408   5.228  11.057 -0.5567  0.1629  0.3853
  177SOPE   O1420109   3.496   5.032  10.943  0.1617  0.3546  0.2738
  177SOPE   O1220110   3.634   5.120  11.116 -0.5146  0.3705  0.2368
  177SOPE   O1120111   3.614   5.257  10.911  0.4079  0.5867  0.2699
  177SOPE    C120112   3.690   5.196  10.803 -0.1470  0.2980 -0.2334
  177SOPE    HA20113   3.705   5.086  10.817  1.0709  0.2164 -1.8721
  177SOPE    HB20114   3.788   5.247  10.808 -0.0784  0.2976 -1.3357
  177SOPE    C220115   3.642   5.223  10.657  0.8419 -0.7522 -0.4177
  177SOPE    HS20116   3.647   5.330  10.628  3.0207 -0.7490 -0.1920
  177SOPE   O2120117   3.509   5.166  10.652 -0.3585 -0.0821 -0.0809
  177SOPE   C2120118   3.407   5.249  10.638 -0.0090 -0.4258 -0.8104
  177SOPE   O2220119   3.411   5.371  10.633 -0.3379  0.0990 -0.6125
  177SOPE   C2220120   3.284   5.159  10.629 -0.3144  0.3257 -0.0890
  177SOPE   H2R20121   3.257   5.116  10.727 -1.3509  1.7901  0.2885
  177SOPE   H2S20122   3.309   5.075  10.561 -0.6004  0.9993 -1.0514
  177SOPE    C320123   3.739   5.149  10.565  0.2609  0.4157  0.4372
  177SOPE    HX20124   3.732   5.040  10.589  2.2447 -0.0504 -0.8734
  177SOPE    HY20125   3.844   5.172  10.592  0.3457  0.7306 -0.1524
  177SOPE   O3120126   3.713   5.175  10.420  0.5079  0.1732 -0.2213
  177SOPE   C3120127   3.784   5.105  10.342 -0.6897  0.2718 -0.0776
  177SOPE   O3220128   3.878   5.034  10.375  0.0631  0.5779  0.3489
  177SOPE   C3220129   3.733   5.122  10.200  0.0607  0.0196  0.2191
  177SOPE   H2X20130   3.791   5.200  10.147 -0.9875 -0.1011 -1.1461
  177SOPE   H2Y20131   3.629   5.159  10.205  0.3825  0.8141  1.7608
  177SOPE   C2320132   3.164   5.232  10.569  0.0825 -0.2412  0.2653
  177SOPE   H3R20133   3.128   5.314  10.636 -0.1641  1.6381 -2.0353
  177SOPE   H3S20134   3.081   5.158  10.573 -0.6236  0.5763  1.8098
  177SOPE   C2420135   3.166   5.293  10.432 -0.4021 -0.2292 -0.1893
  177SOPE   H4R20136   3.059   5.286  10.401 -0.1681 -3.0780 -0.5751
  177SOPE   H4S20137   3.195   5.400  10.430  0.9092 -0.5743 -0.8731
  177SOPE   C2520138   3.245   5.219  10.321 -0.3518  0.6479 -0.5808
  177SOPE   H5R20139   3.355   5.224  10.338 -0.2624 -1.8444  0.0802
  177SOPE   H5S20140   3.220   5.111  10.330 -0.1789  0.3880 -2.7423
  177SOPE   C2620141   3.209   5.275  10.185 -0.3491  0.1159  0.6920
  177SOPE   H6R20142   3.099   5.293  10.188 -0.0983  2.0200  0.3152
  177SOPE   H6S20143   3.265   5.371  10.183 -0.6003  0.3164  2.1065
  177SOPE   C2720144   3.252   5.189  10.064  0.5251  0.1086 -0.2606
  177SOPE   H7R20145   3.352   5.155  10.098  0.1312  0.5384  1.4492
  177SOPE   H7S20146   3.182   5.103  10.060  1.8177 -1.1679  2.3466
  177SOPE   C2820147   3.247   5.254   9.926  0.1550  0.3078 -0.3791
  177SOPE   H8R20148   3.319   5.337   9.914  1.0252 -0.6306 -2.0652
  177SOPE   H8S20149   3.274   5.182   9.845  3.5617 -0.8363  1.5591
  177SOPE   C2920150   3.107   5.303   9.908  0.0701 -0.2693  0.2053
  177SOPE   H9120151   3.054   5.332   9.999  0.5670 -0.9460  0.7174
  177SOPE  C21020152   3.035   5.305   9.792  0.1734  0.2480 -0.7622
  177SOPE  H10120153   2.931   5.339   9.804  0.6600  0.6763  4.4906
  177SOPE  C21120154   3.075   5.261   9.653 -0.1522  0.3555 -1.5876
  177SOPE  H11R20155   3.022   5.170   9.620  0.1131 -1.3577  2.1363
  177SOPE  H11S20156   3.180   5.225   9.660 -1.1698 -2.5710  1.9128
  177SOPE  C21220157   3.067   5.380   9.556  0.0284 -0.0307  0.5878
  177SOPE  H12R20158   3.124   5.467   9.596  0.5528 -0.9865  1.9798
  177SOPE  H12S20159   2.960   5.410   9.549  0.5967  1.8296 -1.1736
  177SOPE  C21320160   3.117   5.349   9.411 -0.0726  0.6651  0.3590
  177SOPE  H13R20161   3.064   5.423   9.347 -0.7298 -0.5632 -0.5629
  177SOPE  H13S20162   3.075   5.253   9.374 -0.6414  1.0783 -0.0878
  177SOPE  C21420163   3.268   5.365   9.384 -0.4968  0.0094 -0.2563
  177SOPE  H14R20164   3.326   5.315   9.465  1.4373  1.4420 -0.6937
  177SOPE  H14S20165   3.286   5.475   9.389 -2.1924  0.4421 -2.2417
  177SOPE  C21520166   3.297   5.307   9.243  0.5284  0.0274  0.1087
  177SOPE  H15R20167   3.223   5.226   9.225 -1.2412  2.0132 -2.2051
  177SOPE  H15S20168   3.403   5.274   9.239  0.8495  1.0940 -0.3633
  177SOPE  C21620169   3.278   5.402   9.123  0.2871  0.5408  0.5534
  177SOPE  H16R20170   3.320   5.503   9.145  0.4403  0.5172  0.3737
  177SOPE  H16S20171   3.169   5.413   9.107 -0.4380 -3.3081  1.8813
  177SOPE  C21720172   3.357   5.357   8.989  0.1698  0.3916 -0.5575
  177SOPE  H17R20173   3.332   5.420   8.902  1.1749  1.3878 -0.1586
  177SOPE  H17S20174   3.312   5.258   8.967 -1.4580  1.4258 -2.0936
  177SOPE  C21820175   3.511   5.345   9.010  0.5210 -0.3143 -0.2183
  177SOPE  H18R20176   3.547   5.448   9.033 -0.5448 -0.2260  1.1950
  177SOPE  H18S20177   3.560   5.310   8.916 -0.9453 -1.0784 -0.7190
  177SOPE  H18T20178   3.523   5.278   9.098 -1.9088 -2.2354 -1.2320
  177SOPE   C3320179   3.718   4.978  10.129 -0.2419  0.3636 -0.6451
  177SOPE   H3X20180   3.669   4.914  10.206 -0.8230  0.7153 -0.7159
  177SOPE   H3Y20181   3.813   4.931  10.094 -0.1968  1.2720 -1.7902
  177SOPE   C3420182   3.634   4.993  10.001 -0.0050  0.4229 -0.7903
  177SOPE   H4X20183   3.534   5.021  10.039  0.4069  1.3868 -0.3799
  177SOPE   H4Y20184   3.624   4.894   9.951  0.6459 -0.1658  0.2210
  177SOPE   C3520185   3.675   5.094   9.896  0.1038 -0.5914  0.3489
  177SOPE   H5X20186   3.772   5.066   9.849 -0.6107  0.1686 -1.7152
  177SOPE   H5Y20187   3.696   5.190   9.947  0.0043  0.8992 -2.2343
  177SOPE   C3620188   3.569   5.135   9.794  0.9691 -0.2176 -0.1751
  177SOPE   H6X20189   3.502   5.202   9.853  0.6715 -0.1041 -0.6378
  177SOPE   H6Y20190   3.516   5.042   9.763  1.3769 -0.3749 -0.3952
  177SOPE   C3720191   3.616   5.216   9.671 -0.3862 -0.9442 -0.3445
  177SOPE   H7X20192   3.679   5.303   9.699 -2.5946  0.4920  0.4575
  177SOPE   H7Y20193   3.530   5.266   9.622 -0.0133  0.3519  0.2602
  177SOPE   C3820194   3.688   5.134   9.566  0.3449 -0.8832 -0.4963
  177SOPE   H8X20195   3.646   5.032   9.578  0.6553 -0.7865  1.8950
  177SOPE   H8Y20196   3.797   5.118   9.585  0.4219 -3.0138 -2.3684
  177SOPE   C3920197   3.676   5.180   9.419  0.5590 -0.6450  0.3790
  177SOPE   H9X20198   3.729   5.278   9.415 -0.8826  0.1890  0.9109
  177SOPE   H9Y20199   3.571   5.178   9.384  0.0349  2.7502  1.4534
  177SOPE  C31020200   3.752   5.087   9.320  0.7021 -0.3304  0.3800
  177SOPE  H10X20201   3.725   4.981   9.342  1.8010 -0.5462  0.7614
  177SOPE  H10Y20202   3.859   5.101   9.344  0.5703  1.0580  0.2359
  177SOPE  C31120203   3.728   5.119   9.171  0.1133 -0.5379  0.6230
  177SOPE  H11X20204   3.752   5.224   9.142 -2.4968  0.5877  2.1312
  177SOPE  H11Y20205   3.621   5.093   9.152  0.5932 -2.1892  0.0311
  177SOPE  C31220206   3.813   5.020   9.079 -0.1296 -0.7531  0.0386
  177SOPE  H12X20207   3.789   4.913   9.092 -1.0478 -0.5143  0.3926
  177SOPE  H12Y20208   3.921   5.034   9.103 -0.0942 -2.2107  0.8275
  177SOPE  C31320209   3.803   5.070   8.930 -0.7138  0.7483 -0.8822
  177SOPE  H13X20210   3.845   5.173   8.930 -0.6396  0.7421  0.9544
  177SOPE  H13Y20211   3.698   5.075   8.894 -2.1002 -4.5763  1.4483
  177SOPE  C31420212   3.883   4.987   8.819  0.3910  0.6279  0.3169
  177SOPE  H14X20213   3.855   4.880   8.814  1.1883  0.4394 -0.3581
  177SOPE  H14Y20214   3.988   5.005   8.849 -0.2586 -0.8349  4.1369
  177SOPE  C31520215   3.844   5.028   8.681  0.2480  0.2895  0.2176
  177SOPE  H15X20216   3.853   5.138   8.667  0.3007  0.5506  2.0352
  177SOPE  H15Y20217   3.737   5.000   8.672 -0.0562  1.5153 -0.1565
  177SOPE  C31620218   3.923   4.939   8.581 -0.0289  0.1186 -0.1903
  177SOPE  H16X20219   3.912   4.834   8.617  0.7898  0.5643  1.4422
  177SOPE  H16Y20220   4.026   4.972   8.602  0.5818 -2.8323  2.1614
  177SOPE  C31720221   3.888   4.963   8.433 -0.4292  0.2202 -0.7463
  177SOPE  H17X20222   3.778   4.977   8.427 -0.5147  0.1487  0.5362
  177SOPE  H17Y20223   3.915   4.869   8.382 -3.6063 -0.4695 -1.4010
  177SOPE  C31820224   3.956   5.081   8.366 -0.2511  0.4405 -0.4049
  177SOPE  H18X20225   3.908   5.178   8.394 -2.5742 -0.7633  0.0327
  177SOPE  H18Y20226   3.938   5.068   8.257 -2.3447 -1.2244  0.0898
  177SOPE  H18Z20227   4.063   5.088   8.397  0.3352 -1.9279 -1.6471
  178SOPE     N20228   6.669   5.311  11.247 -0.4840 -0.2565  0.3808
  178SOPE   HN120229   6.581   5.360  11.219  0.7169  2.1948  0.6573
  178SOPE   HN220230   6.660   5.304  11.350  2.7593 -1.2204  0.7102
  178SOPE   HN320231   6.750   5.374  11.233 -0.6127 -0.1842 -0.0615
  178SOPE   C1220232   6.690   5.174  11.195 -0.2203  0.0375  0.2819
  178SOPE  H12A20233   6.610   5.107  11.233  1.2628 -1.3124  1.1537
  178SOPE  H12B20234   6.782   5.134  11.242  0.3375  2.4388  1.3600
  178SOPE   C1120235   6.694   5.175  11.041 -0.4466 -0.2912  0.0360
  178SOPE  H11A20236   6.594   5.202  11.001  0.3427  0.3455 -1.5940
  178SOPE  H11B20237   6.717   5.068  11.019 -2.4631 -0.7741 -0.0212
  178SOPE     P20238   6.796   5.393  10.919 -0.1741  0.3866  0.2109
  178SOPE   O1320239   6.932   5.434  10.886  0.1899  0.0227  0.5374
  178SOPE   O1420240   6.721   5.490  11.004  0.5592 -0.1175 -1.4528
  178SOPE   O1220241   6.805   5.248  10.985  0.0262 -0.3507  0.1824
  178SOPE   O1120242   6.723   5.364  10.783 -1.1364 -0.6038  0.3023
  178SOPE    C120243   6.689   5.246  10.709 -0.1684 -0.3247  0.1290
  178SOPE    HA20244   6.628   5.287  10.626 -0.6532 -0.6385  0.3270
  178SOPE    HB20245   6.622   5.182  10.771 -0.1044 -0.2853  0.2396
  178SOPE    C220246   6.809   5.166  10.662 -0.7954  0.2855 -0.4225
  178SOPE    HS20247   6.853   5.127  10.757  0.5446  0.7030 -0.8561
  178SOPE   O2120248   6.888   5.264  10.586  0.1199  0.0055 -0.1151
  178SOPE   C2120249   7.016   5.260  10.613  0.1634  1.1385 -0.4963
  178SOPE   O2220250   7.068   5.184  10.693 -0.1802 -0.1068  0.2198
  178SOPE   C2220251   7.079   5.345  10.507 -0.4149 -0.0402 -0.2370
  178SOPE   H2R20252   7.159   5.399  10.563 -0.5753  0.5393 -0.5631
  178SOPE   H2S20253   7.004   5.412  10.460 -0.3101  0.0377 -0.2940
  178SOPE    C320254   6.783   5.038  10.586 -0.6156  0.6943 -0.0868
  178SOPE    HX20255   6.729   4.967  10.653  1.3977 -0.9313 -0.0778
  178SOPE    HY20256   6.878   4.994  10.549 -0.3021  2.9505 -2.2098
  178SOPE   O3120257   6.703   5.063  10.470 -0.1856 -0.3125 -0.3209
  178SOPE   C3120258   6.669   4.954  10.400 -0.4779 -0.5934  0.9928
  178SOPE   O3220259   6.708   4.838  10.421  0.0307  0.1284 -0.3147
  178SOPE   C3220260   6.599   5.007  10.274  0.0273  0.2226  0.3962
  178SOPE   H2X20261   6.492   4.980  10.290  0.9920 -3.7048  1.3529
  178SOPE   H2Y20262   6.626   4.938  10.192  0.0714 -0.6051  1.0905
  178SOPE   C2320263   7.168   5.271  10.400  0.1063  0.3931  0.6049
  178SOPE   H3R20264   7.258   5.231  10.451  0.5229 -0.8254 -1.0251
  178SOPE   H3S20265   7.205   5.332  10.315  1.5849 -1.3319 -0.0583
  178SOPE   C2420266   7.086   5.156  10.341  0.5288  0.7324 -0.1816
  178SOPE   H4R20267   7.155   5.077  10.304 -0.5025  0.7288 -2.2683
  178SOPE   H4S20268   7.015   5.096  10.402  3.7561 -1.7846  1.4170
  178SOPE   C2520269   7.018   5.184  10.201  0.0237  0.3543 -0.2214
  178SOPE   H5R20270   6.969   5.091  10.165  2.7429 -1.3693  0.2549
  178SOPE   H5S20271   6.938   5.261  10.208 -3.0545 -2.2981 -2.8195
  178SOPE   C2620272   7.116   5.222  10.094  0.3335  0.0802  0.3864
  178SOPE   H6R20273   7.154   5.325  10.111 -0.1112  0.2484  0.3815
  178SOPE   H6S20274   7.197   5.149  10.077  0.0148  0.5016 -3.9833
  178SOPE   C2720275   7.036   5.228   9.957 -0.3506  0.3300 -0.2788
  178SOPE   H7R20276   7.022   5.120   9.936  1.9843  0.2601 -1.7331
  178SOPE   H7S20277   6.930   5.259   9.971 -1.1256 -1.2848 -2.1264
  178SOPE   C2820278   7.107   5.303   9.847  0.1570  0.8709 -0.0954
  178SOPE   H8R20279   7.035   5.302   9.763  1.3053  0.3147 -1.1098
  178SOPE   H8S20280   7.124   5.413   9.857 -2.0173  1.2213  0.1984
  178SOPE   C2920281   7.229   5.223   9.801  0.3625 -0.8302 -0.1462
  178SOPE   H9120282   7.203   5.116   9.793  0.0660 -0.6927 -1.1806
  178SOPE  C21020283   7.356   5.267   9.776  0.5836  0.5128  0.2419
  178SOPE  H10120284   7.435   5.190   9.773 -2.8933 -3.5279  1.6603
  178SOPE  C21120285   7.402   5.416   9.785 -0.4385 -0.0931  0.2666
  178SOPE  H11R20286   7.448   5.445   9.881  0.6522 -0.4287 -0.1384
  178SOPE  H11S20287   7.315   5.482   9.763 -1.7797 -1.8889 -0.1578
  178SOPE  C21220288   7.509   5.449   9.683  0.4843 -0.7338 -0.0288
  178SOPE  H12R20289   7.472   5.425   9.581 -0.6012 -0.1112  0.1973
  178SOPE  H12S20290   7.596   5.385   9.709  2.5145  1.4100 -1.1726
  178SOPE  C21320291   7.547   5.597   9.689  0.2792  0.3902 -0.4148
  178SOPE  H13R20292   7.563   5.622   9.796 -0.7675 -1.4004  0.2079
  178SOPE  H13S20293   7.465   5.662   9.651  0.8514  0.9146 -0.7725
  178SOPE  C21420294   7.669   5.630   9.603  0.4822  0.0984 -0.6117
  178SOPE  H14R20295   7.731   5.538   9.599 -0.1262 -0.2945 -1.2358
  178SOPE  H14S20296   7.728   5.711   9.651  1.0058 -0.4020 -0.3886
  178SOPE  C21520297   7.634   5.675   9.458 -0.7256  0.1216 -0.4103
  178SOPE  H15R20298   7.577   5.770   9.452 -1.6296 -0.3499  0.4142
  178SOPE  H15S20299   7.559   5.606   9.414 -1.6911  2.0485 -1.9594
  178SOPE  C21620300   7.751   5.678   9.371  0.0149  0.0363  0.2728
  178SOPE  H16R20301   7.788   5.576   9.350 -1.5220 -0.8060  1.4379
  178SOPE  H16S20302   7.825   5.743   9.423 -1.3269 -0.2758  2.7422
  178SOPE  C21720303   7.731   5.756   9.239  0.4435  0.4584 -0.6452
  178SOPE  H17R20304   7.667   5.847   9.237  0.8716  0.9361  2.5011
  178SOPE  H17S20305   7.686   5.685   9.166 -0.7285  2.2760 -1.7888
  178SOPE  C21820306   7.868   5.801   9.184  0.3939  0.7789  0.2032
  178SOPE  H18R20307   7.949   5.727   9.204  0.2786  0.2964 -1.0508
  178SOPE  H18S20308   7.911   5.894   9.227  2.7646 -0.4161  0.5662
  178SOPE  H18T20309   7.873   5.801   9.073 -1.6250 -0.5539  0.0668
  178SOPE   C3320310   6.605   5.158  10.247  0.0770 -0.4324  0.1920
  178SOPE   H3X20311   6.700   5.186  10.196 -0.1142 -1.8245 -1.0131
  178SOPE   H3Y20312   6.584   5.229  10.329  0.6385  1.9035 -1.5816
  178SOPE   C3420313   6.486   5.194  10.156 -0.0805  0.0219  0.6307
  178SOPE   H4X20314   6.474   5.305  10.152  1.1203  0.1569  0.5099
  178SOPE   H4Y20315   6.395   5.155  10.206  1.0322 -0.1977  2.5546
  178SOPE   C3520316   6.500   5.127  10.013  0.5019 -0.3107 -0.7469
  178SOPE   H5X20317   6.410   5.156   9.955 -0.6848 -0.0650  1.1209
  178SOPE   H5Y20318   6.506   5.017  10.028  1.4016 -0.1849 -0.0582
  178SOPE   C3620319   6.618   5.176   9.932  0.1558 -0.1684  0.0536
  178SOPE   H6X20320   6.709   5.198   9.991  0.2052 -0.7750  0.2103
  178SOPE   H6Y20321   6.590   5.274   9.888  1.0175  0.1896  0.2830
  178SOPE   C3720322   6.646   5.089   9.808 -0.3801  0.3071 -0.0646
  178SOPE   H7X20323   6.550   5.056   9.763  0.6998  0.0509 -2.3131
  178SOPE   H7Y20324   6.710   5.003   9.838 -2.4789 -0.3059  3.1275
  178SOPE   C3820325   6.730   5.161   9.706 -0.7260  0.3526  0.5383
  178SOPE   H8X20326   6.822   5.198   9.756  1.2944 -1.0834 -1.8765
  178SOPE   H8Y20327   6.668   5.242   9.661 -0.8047  0.7793  1.3948
  178SOPE   C3920328   6.776   5.072   9.586 -0.2732 -0.5089  0.0736
  178SOPE   H9X20329   6.681   5.055   9.531 -0.6093  3.4185 -0.8854
  178SOPE   H9Y20330   6.810   4.976   9.630 -0.9022 -1.5270 -1.5810
  178SOPE  C31020331   6.874   5.144   9.492  0.1335  0.2334  0.2403
  178SOPE  H10X20332   6.912   5.063   9.427 -1.9824 -0.3748 -0.3163
  178SOPE  H10Y20333   6.958   5.169   9.560 -0.6359  0.1340  1.2591
  178SOPE  C31120334   6.824   5.269   9.421 -0.4651  0.1752 -0.7931
  178SOPE  H11X20335   6.782   5.329   9.504  0.4347  0.1684 -0.3293
  178SOPE  H11Y20336   6.743   5.245   9.348 -0.9478 -0.2066 -0.1434
  178SOPE  C31220337   6.937   5.357   9.364  0.1225 -0.7930  0.2719
  178SOPE  H12X20338   7.004   5.381   9.448  0.9251 -0.1486 -0.5324
  178SOPE  H12Y20339   6.889   5.453   9.334 -1.6984 -0.8362  2.7504
  178SOPE  C31320340   7.025   5.303   9.259 -0.4848  0.9679 -0.9717
  178SOPE  H13X20341   6.980   5.297   9.157 -0.9770  1.1008 -0.7668
  178SOPE  H13Y20342   7.039   5.196   9.285  1.1049  0.9974 -1.5996
  178SOPE  C31420343   7.165   5.362   9.254  0.1855 -0.2418 -1.0836
  178SOPE  H14X20344   7.195   5.334   9.357 -1.0016 -0.3902 -0.7689
  178SOPE  H14Y20345   7.154   5.472   9.241 -1.9235 -0.4423 -1.3468
  178SOPE  C31520346   7.260   5.302   9.149  0.9993  0.0805  1.2694
  178SOPE  H15X20347   7.221   5.339   9.051  0.0017  0.3804  1.7654
  178SOPE  H15Y20348   7.246   5.191   9.153 -0.0237  0.1356  0.0651
  178SOPE  C31620349   7.402   5.343   9.163 -0.2934 -0.2705  0.8642
  178SOPE  H16X20350   7.407   5.448   9.126  2.2273 -0.5769  0.1370
  178SOPE  H16Y20351   7.456   5.280   9.089 -3.2038  0.4679 -2.1169
  178SOPE  C31720352   7.458   5.323   9.304 -0.8945 -0.0849  0.1196
  178SOPE  H17X20353   7.436   5.221   9.341  1.3150 -0.8408 -0.4854
  178SOPE  H17Y20354   7.408   5.390   9.376 -1.6955 -1.4476  0.8692
  178SOPE  C31820355   7.606   5.344   9.312 -0.5389 -0.4025 -0.7020
  178SOPE  H18X20356   7.640   5.367   9.415  1.1453 -2.7077 -0.6513
  178SOPE  H18Y20357   7.636   5.442   9.269 -0.5493 -0.3769 -0.6515
  178SOPE  H18Z20358   7.680   5.279   9.259  1.5405  2.6727 -1.8813
  179SOPE     N20359   6.556   5.060   6.385 -0.5383 -0.0547 -0.0090
  179SOPE   HN120360   6.581   5.152   6.344  1.8388 -0.8942 -0.6063
  179SOPE   HN220361   6.588   4.987   6.317  1.0162  0.8438 -0.2965
  179SOPE   HN320362   6.452   5.068   6.383 -0.5256  0.2736 -2.4709
  179SOPE   C1220363   6.623   5.065   6.520  0.2542 -0.1230  0.4769
  179SOPE  H12A20364   6.598   5.160   6.572  0.8765  0.4998 -0.3350
  179SOPE  H12B20365   6.727   5.048   6.486 -0.4350  0.2681 -2.0595
  179SOPE   C1120366   6.577   4.949   6.610 -0.5071  0.7117 -0.0448
  179SOPE  H11A20367   6.470   4.932   6.635  0.0445 -2.0765  0.8485
  179SOPE  H11B20368   6.620   4.974   6.709  2.4106  1.8160 -1.4985
  179SOPE     P20369   6.773   4.763   6.621 -0.7162 -0.2798  0.0487
  179SOPE   O1320370   6.862   4.876   6.669 -0.0274 -0.0731 -0.2216
  179SOPE   O1420371   6.829   4.663   6.527 -0.1114 -0.7784 -0.3703
  179SOPE   O1220372   6.632   4.819   6.564 -0.2372  0.3360 -0.5807
  179SOPE   O1120373   6.719   4.686   6.753 -0.0665 -0.1762 -0.0436
  179SOPE    C120374   6.598   4.606   6.760  0.3047 -0.5653 -0.3451
  179SOPE    HA20375   6.622   4.517   6.821 -1.3345  0.2867  1.6875
  179SOPE    HB20376   6.552   4.581   6.662  0.5125 -0.2926 -0.5162
  179SOPE    C220377   6.496   4.684   6.836  0.0967  0.6846  0.3951
  179SOPE    HS20378   6.504   4.794   6.819 -0.0629  0.6753  0.2595
  179SOPE   O2120379   6.527   4.657   6.979 -0.6508  0.6401 -0.3497
  179SOPE   C2120380   6.489   4.743   7.069  0.4292 -0.1163  0.7593
  179SOPE   O2220381   6.437   4.855   7.048 -0.4914  0.0445 -0.5368
  179SOPE   C2220382   6.500   4.668   7.205 -0.0793 -0.3186  0.0595
  179SOPE   H2R20383   6.587   4.599   7.201 -1.1363 -1.7789  1.2241
  179SOPE   H2S20384   6.408   4.605   7.210 -0.1771 -0.1693  0.1526
  179SOPE    C320385   6.351   4.662   6.797  0.3907  0.2145  0.2282
  179SOPE    HX20386   6.322   4.710   6.701  2.2595  0.1245 -0.4193
  179SOPE    HY20387   6.294   4.712   6.879 -0.9002  0.0501 -0.5501
  179SOPE   O3120388   6.324   4.520   6.778  0.1083 -0.4948  0.5099
  179SOPE   C3120389   6.305   4.448   6.891  0.2060 -0.8573 -0.2937
  179SOPE   O3220390   6.318   4.491   7.007 -0.2126  0.1248 -0.2065
  179SOPE   C3220391   6.250   4.307   6.854  0.8113 -0.2348  0.1524
  179SOPE   H2X20392   6.290   4.246   6.937 -1.5214 -0.8471  0.8910
  179SOPE   H2Y20393   6.289   4.280   6.754 -0.4636  1.1265 -0.7709
  179SOPE   C2320394   6.499   4.749   7.332 -0.2757  0.4824 -0.4010
  179SOPE   H3R20395   6.412   4.819   7.342 -1.8318 -1.2741 -1.0966
  179SOPE   H3S20396   6.592   4.809   7.323  0.7696 -0.8252  1.2890
  179SOPE   C2420397   6.512   4.660   7.452  0.4820  0.5124 -0.0498
  179SOPE   H4R20398   6.415   4.609   7.473 -0.4074  1.7989 -0.8894
  179SOPE   H4S20399   6.583   4.584   7.412 -1.1650 -0.3731 -1.4671
  179SOPE   C2520400   6.568   4.736   7.569 -0.2460  0.2155 -0.4269
  179SOPE   H5R20401   6.665   4.780   7.539  0.3164 -1.1919 -0.7310
  179SOPE   H5S20402   6.492   4.812   7.597 -2.6698 -1.9366 -0.7894
  179SOPE   C2620403   6.595   4.641   7.688 -0.8295  0.1429  0.4288
  179SOPE   H6R20404   6.508   4.574   7.702 -0.7721  0.3988  2.2964
  179SOPE   H6S20405   6.689   4.590   7.659  0.6039  2.2391  1.1619
  179SOPE   C2720406   6.606   4.715   7.822  0.5240  0.1647  1.1426
  179SOPE   H7R20407   6.686   4.790   7.803  1.5775 -0.9655  1.0000
  179SOPE   H7S20408   6.505   4.757   7.842  0.6001  0.1039  1.6753
  179SOPE   C2820409   6.644   4.623   7.941 -0.4734  0.2800 -0.3482
  179SOPE   H8R20410   6.553   4.563   7.964 -1.0513  1.2169 -0.1347
  179SOPE   H8S20411   6.727   4.551   7.926 -2.3542 -1.7331 -1.5490
  179SOPE   C2920412   6.676   4.703   8.068  0.4731  0.1539 -0.0923
  179SOPE   H9120413   6.612   4.792   8.081  0.4425  0.0094  0.8343
  179SOPE  C21020414   6.757   4.660   8.169 -0.4096  0.1979  0.6517
  179SOPE  H10120415   6.768   4.727   8.255 -0.5343  0.0026  0.8180
  179SOPE  C21120416   6.836   4.528   8.180 -0.0496 -0.0246  0.2186
  179SOPE  H11R20417   6.943   4.544   8.203 -0.2114 -0.4548  1.3319
  179SOPE  H11S20418   6.833   4.465   8.089  1.0781 -1.9944  1.4580
  179SOPE  C21220419   6.769   4.445   8.292  1.0460 -0.1268  0.5512
  179SOPE  H12R20420   6.659   4.448   8.281  1.2502  1.8909 -1.6234
  179SOPE  H12S20421   6.789   4.490   8.392  0.1555  1.4093  0.0756
  179SOPE  C21320422   6.813   4.299   8.286  0.4450  0.0651  0.7347
  179SOPE  H13R20423   6.914   4.284   8.330  0.3031  0.9765  1.3984
  179SOPE  H13S20424   6.828   4.281   8.178 -1.2181  0.8182  0.3483
  179SOPE  C21420425   6.714   4.199   8.351 -0.3774 -0.0985 -0.1299
  179SOPE  H14R20426   6.735   4.096   8.314 -4.0301 -2.1899  2.8741
  179SOPE  H14S20427   6.614   4.221   8.307  0.3809 -0.0375 -1.9267
  179SOPE  C21520428   6.708   4.211   8.504 -0.2600 -0.0901 -0.0035
  179SOPE  H15R20429   6.697   4.316   8.538  1.3702  0.0285  0.2548
  179SOPE  H15S20430   6.810   4.179   8.536 -0.2199  0.8848  0.9234
  179SOPE  C21620431   6.614   4.111   8.570 -1.2509 -0.3603 -0.1852
  179SOPE  H16R20432   6.644   4.006   8.548  1.6603  0.9207 -3.3144
  179SOPE  H16S20433   6.515   4.129   8.522 -0.9588 -0.0696 -0.6914
  179SOPE  C21720434   6.611   4.129   8.723  0.1290 -0.0467  0.6542
  179SOPE  H17R20435   6.711   4.118   8.770  0.0710 -2.9731  0.2781
  179SOPE  H17S20436   6.550   4.047   8.767  0.2471 -0.2410  0.4557
  179SOPE  C21820437   6.550   4.264   8.755  0.0821 -0.6555 -0.1771
  179SOPE  H18R20438   6.481   4.300   8.675 -1.5019  0.0813  1.4264
  179SOPE  H18S20439   6.630   4.340   8.761  1.0575 -1.3273 -3.0292
  179SOPE  H18T20440   6.484   4.258   8.845 -2.6473 -0.1849 -2.0017
  179SOPE   C3320441   6.101   4.300   6.844 -0.0404 -0.3709  0.2792
  179SOPE   H3X20442   6.086   4.200   6.798  0.3235  0.4260 -1.6516
  179SOPE   H3Y20443   6.053   4.381   6.785 -0.4812 -0.5773  0.3467
  179SOPE   C3420444   6.031   4.306   6.979 -0.1626  0.3945  0.3055
  179SOPE   H4X20445   5.922   4.320   6.968 -0.3372 -0.3995  0.9172
  179SOPE   H4Y20446   6.066   4.399   7.028  2.3539 -1.1252  1.6071
  179SOPE   C3520447   6.065   4.188   7.070  0.3574 -0.7326  0.3249
  179SOPE   H5X20448   6.160   4.220   7.119 -0.9647 -0.6738  3.0731
  179SOPE   H5Y20449   6.101   4.092   7.027  1.1374 -0.1981 -0.2479
  179SOPE   C3620450   5.945   4.154   7.160 -0.4986  0.1902 -0.5619
  179SOPE   H6X20451   5.856   4.132   7.098  1.4624  0.2801 -3.6040
  179SOPE   H6Y20452   5.937   4.235   7.236  0.9129 -0.2641  0.1057
  179SOPE   C3720453   5.981   4.033   7.253  0.1418  0.1583  0.5503
  179SOPE   H7X20454   6.082   4.045   7.296  0.0163 -2.3167  1.7067
  179SOPE   H7Y20455   5.981   3.942   7.189  2.0010  1.1747 -0.9990
  179SOPE   C3820456   5.890   4.025   7.375  0.6420 -0.7776 -0.3373
  179SOPE   H8X20457   5.785   4.039   7.341  0.9057  0.9388 -0.4979
  179SOPE   H8Y20458   5.925   4.113   7.432  0.2207  0.3721 -1.7910
  179SOPE   C3920459   5.902   3.893   7.454  0.0666  0.2854 -0.3437
  179SOPE   H9X20460   6.009   3.889   7.484  0.5046  0.7990 -1.7600
  179SOPE   H9Y20461   5.865   3.802   7.401  0.5833  0.5272 -1.1405
  179SOPE  C31020462   5.829   3.893   7.592  0.1163  0.1332  0.1394
  179SOPE  H10X20463   5.718   3.898   7.585  0.1198 -1.0330 -0.8977
  179SOPE  H10Y20464   5.863   3.993   7.627  3.3903 -0.7723 -0.0934
  179SOPE  C31120465   5.887   3.792   7.689 -1.2422  0.0902  0.4687
  179SOPE  H11X20466   5.997   3.776   7.688 -0.8438  1.6050  4.2075
  179SOPE  H11Y20467   5.851   3.687   7.678 -2.5163  0.3769  1.5848
  179SOPE  C31220468   5.864   3.821   7.842  0.4161  0.4672 -0.4233
  179SOPE  H12X20469   5.910   3.740   7.902 -2.8432 -0.7957  0.5969
  179SOPE  H12Y20470   5.756   3.805   7.862  0.9342 -1.4013  1.1426
  179SOPE  C31320471   5.910   3.959   7.876  0.2764 -0.4845  0.6963
  179SOPE  H13X20472   5.837   4.027   7.827 -0.4975 -0.7900  1.4118
  179SOPE  H13Y20473   6.008   3.979   7.827  0.0369  0.8155  0.7243
  179SOPE  C31420474   5.937   3.984   8.026  0.7160 -0.0006  0.1984
  179SOPE  H14X20475   5.990   4.079   8.048  1.1498 -0.4633  1.2561
  179SOPE  H14Y20476   6.007   3.904   8.061  0.6461 -0.7643 -1.3042
  179SOPE  C31520477   5.808   3.984   8.109  0.4762  0.6072 -0.6410
  179SOPE  H15X20478   5.742   3.896   8.090 -1.8096  1.6029  1.8745
  179SOPE  H15Y20479   5.750   4.071   8.071 -0.5926 -0.5903 -1.8726
  179SOPE  C31620480   5.828   3.972   8.256  0.1247 -0.1982 -0.2930
  179SOPE  H16X20481   5.890   4.057   8.292 -0.6684  0.2499  0.0290
  179SOPE  H16Y20482   5.891   3.886   8.288 -2.0516 -2.2898 -1.3233
  179SOPE  C31720483   5.701   3.985   8.333  0.4962  0.3419  0.1127
  179SOPE  H17X20484   5.633   3.898   8.324 -1.0532  1.5890 -0.8887
  179SOPE  H17Y20485   5.646   4.072   8.289  0.1537  0.5855  1.0116
  179SOPE  C31820486   5.733   4.010   8.483 -0.1195  0.9004  0.0039
  179SOPE  H18X20487   5.789   4.103   8.504 -0.8129  0.8939  2.0641
  179SOPE  H18Y20488   5.797   3.925   8.515  0.1342  1.4201  0.8867
  179SOPE  H18Z20489   5.650   4.024   8.555 -0.1636  0.7911 -0.0261
  180SOPE     N20490   4.897   5.630   6.154 -0.2080  0.0339  0.0130
  180SOPE   HN120491   4.832   5.595   6.081  1.4891  1.3186 -2.2910
  180SOPE   HN220492   4.897   5.570   6.239  1.9729 -1.6420 -1.0544
  180SOPE   HN320493   4.862   5.725   6.178  1.7125  0.9918 -0.7468
  180SOPE   C1220494   5.033   5.652   6.100 -0.6590  0.0410 -0.6100
  180SOPE  H12A20495   5.028   5.726   6.018 -1.9325  1.3027  0.5404
  180SOPE  H12B20496   5.071   5.556   6.059 -1.2785  0.6562 -2.7394
  180SOPE   C1120497   5.142   5.697   6.196 -0.0101  0.1450  0.5218
  180SOPE  H11A20498   5.122   5.804   6.220 -0.3398  0.2208 -0.0833
  180SOPE  H11B20499   5.240   5.680   6.147 -0.3202 -1.0558  0.3073
  180SOPE     P20500   5.168   5.658   6.449  0.4530 -0.2379 -0.1313
  180SOPE   O1320501   5.053   5.748   6.478  0.7277  0.4118  0.0056
  180SOPE   O1420502   5.301   5.715   6.446  0.2899  0.3951 -0.3982
  180SOPE   O1220503   5.144   5.606   6.307 -0.5345  0.0272 -0.5129
  180SOPE   O1120504   5.165   5.527   6.546  0.1038  0.1800  0.3078
  180SOPE    C120505   5.291   5.473   6.589  0.3401  0.0419 -0.4844
  180SOPE    HA20506   5.379   5.536   6.564  0.9624  0.3645  2.2119
  180SOPE    HB20507   5.303   5.373   6.543 -3.4231 -0.8215  0.0711
  180SOPE    C220508   5.295   5.464   6.744 -0.5704  0.3446 -0.1190
  180SOPE    HS20509   5.388   5.418   6.783  0.9804  1.7219 -2.0063
  180SOPE   O2120510   5.179   5.391   6.791 -0.1572  1.0057 -0.0931
  180SOPE   C2120511   5.196   5.261   6.793 -0.6267  0.2900  0.1602
  180SOPE   O2220512   5.295   5.201   6.765  0.2170  0.2792  0.3208
  180SOPE   C2220513   5.076   5.208   6.870 -0.0990 -0.1144 -0.0425
  180SOPE   H2R20514   4.982   5.230   6.815  0.7635  1.9949 -0.7845
  180SOPE   H2S20515   5.059   5.287   6.946 -1.4597  2.0252 -2.4011
  180SOPE    C320516   5.298   5.602   6.816  0.3544  0.2525  0.4808
  180SOPE    HX20517   5.198   5.649   6.805 -0.5998 -1.9003 -0.6647
  180SOPE    HY20518   5.364   5.658   6.746 -0.0607 -1.5591 -1.4507
  180SOPE   O3120519   5.354   5.592   6.944 -0.4066  0.0188  0.2172
  180SOPE   C3120520   5.272   5.633   7.040 -0.5341  0.1070 -0.9257
  180SOPE   O3220521   5.185   5.714   7.037  0.8171  0.0056  0.6485
  180SOPE   C3220522   5.300   5.542   7.163 -0.5029 -0.3979 -0.3632
  180SOPE   H2X20523   5.400   5.493   7.164 -1.8451 -3.4461 -1.6463
  180SOPE   H2Y20524   5.225   5.460   7.168 -0.4699 -0.3745  0.9903
  180SOPE   C2320525   5.072   5.062   6.919 -0.4584  0.1298 -0.3129
  180SOPE   H3R20526   5.102   5.000   6.832  0.3327  1.3259 -0.9175
  180SOPE   H3S20527   4.963   5.051   6.933 -0.9214  3.6688 -0.3003
  180SOPE   C2420528   5.165   5.040   7.041  0.1147  0.2695  0.3325
  180SOPE   H4R20529   5.162   4.938   7.085 -2.3245  0.1955  0.0877
  180SOPE   H4S20530   5.271   5.062   7.014  0.1715  1.5174  1.4227
  180SOPE   C2520531   5.136   5.124   7.166 -0.3110  0.0619 -1.0740
  180SOPE   H5R20532   5.162   5.232   7.160 -0.7599  0.6029  3.3823
  180SOPE   H5S20533   5.025   5.125   7.174 -0.5610 -1.8816 -3.2607
  180SOPE   C2620534   5.206   5.067   7.295 -0.0422 -0.6909 -0.0000
  180SOPE   H6R20535   5.181   4.960   7.306  1.0811 -0.8941  0.8083
  180SOPE   H6S20536   5.317   5.069   7.290  0.0679 -3.2480  0.1717
  180SOPE   C2720537   5.167   5.149   7.417  1.2800 -0.1215 -0.9551
  180SOPE   H7R20538   5.160   5.254   7.380  0.6625  1.2507  2.6640
  180SOPE   H7S20539   5.060   5.132   7.440  1.0252 -0.8698 -2.5783
  180SOPE   C2820540   5.257   5.131   7.544 -0.5950  0.6337 -0.3523
  180SOPE   H8R20541   5.357   5.152   7.500  0.7449 -2.1425  1.1415
  180SOPE   H8S20542   5.253   5.215   7.617  1.1593  0.0241  0.4860
  180SOPE   C2920543   5.248   4.989   7.601 -0.9172 -0.0058 -0.0783
  180SOPE   H9120544   5.267   4.917   7.519  0.7059  1.6795 -1.2753
  180SOPE  C21020545   5.226   4.955   7.727 -0.1532 -0.0851 -0.8802
  180SOPE  H10120546   5.229   4.847   7.751 -2.2854  0.4955  2.8575
  180SOPE  C21120547   5.221   5.053   7.843 -0.2827 -0.1490  1.1857
  180SOPE  H11R20548   5.205   5.158   7.808  0.6504 -0.1172  0.8237
  180SOPE  H11S20549   5.320   5.050   7.894 -0.1843 -2.8657  0.9595
  180SOPE  C21220550   5.120   5.016   7.937  0.3080  0.3695  0.1643
  180SOPE  H12R20551   5.154   4.918   7.977  1.8388  1.5186  1.8769
  180SOPE  H12S20552   5.023   4.996   7.886  0.5127 -2.4709  0.6956
  180SOPE  C21320553   5.088   5.116   8.048  0.5561  0.0689  0.0107
  180SOPE  H13R20554   5.063   5.216   8.007  0.7043  0.6494  1.2906
  180SOPE  H13S20555   5.181   5.131   8.108 -0.2515 -0.7435  1.5210
  180SOPE  C21420556   4.973   5.072   8.139 -0.8695  0.3310 -0.6112
  180SOPE  H14R20557   4.981   4.967   8.176 -2.7164 -0.2947 -1.9027
  180SOPE  H14S20558   4.877   5.080   8.085 -1.2140 -0.0038 -0.0637
  180SOPE  C21520559   4.968   5.159   8.267  0.1416  0.2917 -0.4511
  180SOPE  H15R20560   4.944   5.262   8.231 -1.8890  0.3873  1.0119
  180SOPE  H15S20561   5.067   5.151   8.317  0.3150  0.0433 -0.8293
  180SOPE  C21620562   4.841   5.126   8.354  0.0615 -0.6471 -0.4714
  180SOPE  H16R20563   4.838   5.024   8.398  0.7110 -0.4728  0.0019
  180SOPE  H16S20564   4.753   5.135   8.286 -0.0994  1.1008 -0.0880
  180SOPE  C21720565   4.821   5.236   8.464 -0.0329  0.5689  0.1817
  180SOPE  H17R20566   4.855   5.333   8.423 -0.3372  0.7757  0.4129
  180SOPE  H17S20567   4.879   5.206   8.554  1.1012 -1.6372 -1.1846
  180SOPE  C21820568   4.674   5.263   8.510 -0.1200  0.4314 -0.1902
  180SOPE  H18R20569   4.610   5.178   8.541 -2.1159  0.7846 -2.9770
  180SOPE  H18S20570   4.614   5.295   8.423  0.0902  1.4780  0.0378
  180SOPE  H18T20571   4.683   5.339   8.591  1.8784 -1.0696  1.1045
  180SOPE   C3320572   5.277   5.619   7.297  0.1025 -0.1343 -0.1838
  180SOPE   H3X20573   5.183   5.678   7.300 -0.2286 -0.4016 -2.6978
  180SOPE   H3Y20574   5.362   5.690   7.308 -0.1948  0.1304  0.4167
  180SOPE   C3420575   5.294   5.525   7.411  0.1552  0.1371 -0.1067
  180SOPE   H4X20576   5.366   5.444   7.391  0.6865  0.9086 -1.4162
  180SOPE   H4Y20577   5.198   5.469   7.413  0.3033 -0.1128 -0.0260
  180SOPE   C3520578   5.308   5.594   7.547 -0.0875  0.1894  0.6752
  180SOPE   H5X20579   5.219   5.656   7.571  1.3037  1.5341  2.7964
  180SOPE   H5Y20580   5.385   5.673   7.531 -0.9085  0.6407 -1.3896
  180SOPE   C3620581   5.314   5.492   7.662  0.1851  1.0335  0.1484
  180SOPE   H6X20582   5.395   5.425   7.627 -0.6318 -0.5942  1.2065
  180SOPE   H6Y20583   5.224   5.426   7.667 -0.1379  1.0841 -2.8995
  180SOPE   C3720584   5.336   5.548   7.804 -0.4438 -0.1277 -0.2953
  180SOPE   H7X20585   5.283   5.644   7.824  1.1919  1.1107 -1.5447
  180SOPE   H7Y20586   5.439   5.581   7.831  0.2875 -2.4401 -0.1079
  180SOPE   C3820587   5.299   5.441   7.905 -0.6316 -0.2741 -0.1024
  180SOPE   H8X20588   5.361   5.350   7.891 -0.0929 -0.1419  1.2774
  180SOPE   H8Y20589   5.189   5.426   7.915 -0.8616  0.0507 -1.7293
  180SOPE   C3920590   5.339   5.487   8.046  0.1742 -0.1854 -0.5154
  180SOPE   H9X20591   5.445   5.520   8.039  0.6548 -1.9308 -2.5726
  180SOPE   H9Y20592   5.345   5.394   8.106  2.2861 -1.0221 -1.8869
  180SOPE  C31020593   5.243   5.578   8.126  0.7085 -0.5270 -0.5114
  180SOPE  H10X20594   5.191   5.650   8.060  1.2698 -0.7658 -1.2231
  180SOPE  H10Y20595   5.307   5.634   8.197 -0.0634  1.4855 -1.3374
  180SOPE  C31120596   5.135   5.502   8.204  0.0230  0.8257 -0.8001
  180SOPE  H11X20597   5.143   5.391   8.212 -1.7399  0.6688 -0.9138
  180SOPE  H11Y20598   5.037   5.523   8.158 -1.5724 -0.8488  1.5914
  180SOPE  C31220599   5.121   5.542   8.356 -0.1004 -0.1291  0.1012
  180SOPE  H12X20600   5.018   5.515   8.388 -0.7290  0.1371 -1.5815
  180SOPE  H12Y20601   5.131   5.652   8.369 -0.0722 -0.0013 -0.8867
  180SOPE  C31320602   5.224   5.470   8.447  0.4342  0.1105 -0.0278
  180SOPE  H13X20603   5.323   5.504   8.410  0.2725 -0.5353 -1.0831
  180SOPE  H13Y20604   5.202   5.363   8.431 -0.1658  0.5193 -2.3196
  180SOPE  C31420605   5.208   5.500   8.592 -0.0080  0.3851 -0.3787
  180SOPE  H14X20606   5.103   5.507   8.626  0.2866  2.9457  0.2137
  180SOPE  H14Y20607   5.231   5.609   8.602  2.8368 -0.2033  0.4982
  180SOPE  C31520608   5.303   5.421   8.686 -0.0539  0.0601  0.2484
  180SOPE  H15X20609   5.401   5.472   8.674  0.6539 -1.5333 -1.1216
  180SOPE  H15Y20610   5.324   5.320   8.647  0.6377  1.2860 -2.8988
  180SOPE  C31620611   5.248   5.416   8.830 -0.0649  0.3043 -0.2202
  180SOPE  H16X20612   5.138   5.404   8.837 -0.0318 -0.0337 -0.2501
  180SOPE  H16Y20613   5.276   5.504   8.892  1.4011 -2.5030  3.4615
  180SOPE  C31720614   5.305   5.283   8.891 -1.1931 -0.1725  0.0760
  180SOPE  H17X20615   5.261   5.202   8.829  0.2905  1.5000 -3.4579
  180SOPE  H17Y20616   5.282   5.281   9.000  0.3499  1.5177  0.4827
  180SOPE  C31820617   5.457   5.273   8.886  0.3161 -0.6049  0.0436
  180SOPE  H18X20618   5.487   5.301   8.783 -0.6234  2.0999  0.4088
  180SOPE  H18Y20619   5.491   5.170   8.911 -0.1366 -0.9226 -0.6397
  180SOPE  H18Z20620   5.510   5.345   8.953 -0.7552 -0.3390  0.6350
  181SOPE     N20621   5.229   1.130   5.746 -0.0875 -0.5228  0.3902
  181SOPE   HN120622   5.329   1.107   5.761 -0.1403 -0.8317  0.2879
  181SOPE   HN220623   5.182   1.057   5.688  0.9901 -1.1873  0.3229
  181SOPE   HN320624   5.231   1.224   5.703  1.0179 -1.3663 -1.5084
  181SOPE   C1220625   5.167   1.106   5.880 -0.1236 -1.0805  0.6859
  181SOPE  H12A20626   5.201   1.008   5.919  0.2922 -0.7559  1.1520
  181SOPE  H12B20627   5.057   1.096   5.866  0.2148 -3.7228 -0.7087
  181SOPE   C1120628   5.207   1.212   5.982 -0.2779  0.2647  0.2972
  181SOPE  H11A20629   5.129   1.221   6.061  0.9019 -0.8447  1.6416
  181SOPE  H11B20630   5.206   1.315   5.940  1.0530  0.4115  0.6029
  181SOPE     P20631   5.374   1.102   6.154  0.3280  0.0746 -0.0617
  181SOPE   O1320632   5.507   1.150   6.193  0.3502  0.2315 -0.0726
  181SOPE   O1420633   5.360   0.958   6.115 -0.1045 -0.4768  0.4052
  181SOPE   O1220634   5.339   1.188   6.025  0.1460 -0.0026  0.4238
  181SOPE   O1120635   5.267   1.150   6.255  0.2852 -0.0447  0.3255
  181SOPE    C120636   5.264   1.278   6.331 -0.1172  0.5247  0.5722
  181SOPE    HA20637   5.179   1.341   6.296  0.6907 -0.0653 -2.6897
  181SOPE    HB20638   5.346   1.343   6.296 -2.1283  1.1855 -3.5674
  181SOPE    C220639   5.269   1.263   6.482 -0.4729  0.1491  0.0312
  181SOPE    HS20640   5.256   1.367   6.520 -1.2214  0.7301 -1.7143
  181SOPE   O2120641   5.389   1.201   6.530 -0.3876  0.1379 -0.4596
  181SOPE   C2120642   5.493   1.273   6.542  0.1032 -0.0051  0.5263
  181SOPE   O2220643   5.503   1.396   6.536  0.1228 -0.0250 -0.3872
  181SOPE   C2220644   5.617   1.188   6.550 -0.2571  0.8165 -0.1509
  181SOPE   H2R20645   5.681   1.214   6.463  2.3337 -0.7303  1.1882
  181SOPE   H2S20646   5.592   1.080   6.557 -0.5674  0.9991  2.1234
  181SOPE    C320647   5.148   1.183   6.536  0.1034 -0.3663  0.2017
  181SOPE    HX20648   5.175   1.076   6.545 -0.4805 -0.3956  2.3128
  181SOPE    HY20649   5.057   1.216   6.483 -0.3358  1.9608  2.2047
  181SOPE   O3120650   5.134   1.224   6.670 -0.7608 -0.1938  0.3348
  181SOPE   C3120651   5.021   1.183   6.731 -0.4375 -0.5740  0.3118
  181SOPE   O3220652   4.925   1.133   6.670 -0.5218  0.0255 -0.4772
  181SOPE   C3220653   5.016   1.232   6.870  0.1687 -0.3974  0.1783
  181SOPE   H2X20654   4.943   1.169   6.925 -0.8962 -0.4978 -1.2947
  181SOPE   H2Y20655   4.989   1.340   6.877  1.3582 -0.0387 -0.4325
  181SOPE   C2320656   5.696   1.202   6.677 -0.0370  0.1024  0.1193
  181SOPE   H3R20657   5.745   1.301   6.689  0.1508  0.2165 -1.4923
  181SOPE   H3S20658   5.783   1.136   6.662 -0.2213 -0.1149  0.0080
  181SOPE   C2420659   5.628   1.163   6.809 -0.5359 -0.5321  0.7579
  181SOPE   H4R20660   5.543   1.231   6.832 -0.6675 -0.1610 -0.7413
  181SOPE   H4S20661   5.582   1.066   6.780  0.9211 -0.8914 -0.4775
  181SOPE   C2520662   5.724   1.150   6.930 -0.1525  0.8450 -0.9987
  181SOPE   H5R20663   5.817   1.089   6.923 -0.8055  0.0038 -3.0205
  181SOPE   H5S20664   5.764   1.253   6.942  2.6079 -0.2327 -0.1311
  181SOPE   C2620665   5.645   1.113   7.051  0.6687 -0.1622 -1.2812
  181SOPE   H6R20666   5.544   1.158   7.040  0.2416  0.1228  2.3520
  181SOPE   H6S20667   5.627   1.003   7.054  2.2448 -0.4295 -1.1316
  181SOPE   C2720668   5.707   1.153   7.184  0.6555  0.0736 -0.4305
  181SOPE   H7R20669   5.794   1.087   7.202 -0.2633 -0.5058  2.3920
  181SOPE   H7S20670   5.747   1.257   7.180 -0.3524  0.4166 -2.6499
  181SOPE   C2820671   5.612   1.142   7.306  0.1104 -0.3183  0.3093
  181SOPE   H8R20672   5.660   1.193   7.392 -1.4599 -0.4720  1.3226
  181SOPE   H8S20673   5.538   1.222   7.286  2.0932  1.3689 -0.7130
  181SOPE   C2920674   5.548   1.009   7.343  0.1965  0.2951 -0.1147
  181SOPE   H9120675   5.465   0.976   7.280  0.0635  1.3170 -0.4891
  181SOPE  C21020676   5.562   0.943   7.461  0.0925  0.1919 -0.5040
  181SOPE  H10120677   5.511   0.846   7.477  0.4670 -0.1108 -1.1003
  181SOPE  C21120678   5.652   0.982   7.576  0.2623  0.0809  0.2590
  181SOPE  H11R20679   5.743   1.024   7.529  1.2566 -1.1846  0.9915
  181SOPE  H11S20680   5.673   0.902   7.650 -1.4556  1.8952  2.9220
  181SOPE  C21220681   5.576   1.086   7.666 -0.3699  1.2564  0.4451
  181SOPE  H12R20682   5.539   1.171   7.605 -2.3645 -0.2460 -0.5459
  181SOPE  H12S20683   5.651   1.122   7.740  1.4243 -3.0488  1.0855
  181SOPE  C21320684   5.456   1.028   7.737  0.5263 -0.6127 -0.5907
  181SOPE  H13R20685   5.424   0.926   7.705 -1.6394  0.6013 -2.5326
  181SOPE  H13S20686   5.372   1.099   7.745  1.2998  0.1710  1.0666
  181SOPE  C21420687   5.488   1.008   7.890 -0.0267 -0.3670  0.2363
  181SOPE  H14R20688   5.592   0.968   7.884  0.4321  0.3540  2.3106
  181SOPE  H14S20689   5.417   0.938   7.940 -1.7910  0.9085 -0.3939
  181SOPE  C21520690   5.493   1.138   7.980 -0.7130 -0.8344 -0.3754
  181SOPE  H15R20691   5.396   1.188   7.958 -0.8509 -1.4683 -1.3063
  181SOPE  H15S20692   5.571   1.210   7.949 -1.8618  0.4669 -0.3270
  181SOPE  C21620693   5.513   1.100   8.123  0.2253  0.5857 -0.0726
  181SOPE  H16R20694   5.598   1.029   8.131 -0.7966 -0.5413  1.3557
  181SOPE  H16S20695   5.418   1.050   8.152 -0.8230  2.5407  0.0302
  181SOPE  C21720696   5.536   1.220   8.216  0.2851 -0.1031 -0.3375
  181SOPE  H17R20697   5.450   1.286   8.193  1.3924  1.1040 -1.1796
  181SOPE  H17S20698   5.639   1.257   8.193  0.6209 -0.3987  0.6347
  181SOPE  C21820699   5.531   1.181   8.362 -0.3497  0.6798  0.3041
  181SOPE  H18R20700   5.438   1.129   8.394  0.0945 -0.4713 -0.2103
  181SOPE  H18S20701   5.544   1.262   8.437  1.5518  0.1584  0.5935
  181SOPE  H18T20702   5.605   1.102   8.387 -2.0480 -0.6782  1.2461
  181SOPE   C3320703   5.150   1.224   6.949 -0.5559  0.6374 -0.6676
  181SOPE   H3X20704   5.217   1.289   6.889  0.1492  1.6171  1.0803
  181SOPE   H3Y20705   5.200   1.125   6.947  1.1685  1.4685 -1.0211
  181SOPE   C3420706   5.151   1.279   7.089  0.8488 -0.0285  0.4140
  181SOPE   H4X20707   5.046   1.315   7.096  0.9044  0.8757 -2.2507
  181SOPE   H4Y20708   5.227   1.360   7.092  1.2804 -0.4596  1.3927
  181SOPE   C3520709   5.174   1.177   7.196  0.0071  0.5198  0.2360
  181SOPE   H5X20710   5.273   1.130   7.177 -0.4899  0.1390 -1.5637
  181SOPE   H5Y20711   5.091   1.104   7.212 -0.5055  1.4507  2.1684
  181SOPE   C3620712   5.192   1.233   7.334  0.0296 -0.0878 -0.1191
  181SOPE   H6X20713   5.265   1.317   7.331  0.8554 -0.8127 -0.8264
  181SOPE   H6Y20714   5.222   1.156   7.409  2.0384  0.8526  0.1121
  181SOPE   C3720715   5.055   1.291   7.391 -0.2445 -0.6341 -0.2818
  181SOPE   H7X20716   4.977   1.212   7.395 -0.4449 -0.4526 -0.5703
  181SOPE   H7Y20717   5.013   1.362   7.317  1.4710  1.1666  0.3894
  181SOPE   C3820718   5.075   1.371   7.523 -0.8196  0.3567  0.3898
  181SOPE   H8X20719   4.978   1.424   7.534 -0.9222  0.1093  0.6789
  181SOPE   H8Y20720   5.163   1.440   7.513  0.6263 -1.6128 -1.2339
  181SOPE   C3920721   5.098   1.275   7.640 -0.1076 -0.3181 -0.5631
  181SOPE   H9X20722   5.197   1.226   7.631  0.8614  0.8178  2.5691
  181SOPE   H9Y20723   5.017   1.199   7.638 -0.9908  0.3701  2.8458
  181SOPE  C31020724   5.112   1.353   7.780 -0.3488  0.8876  0.1364
  181SOPE  H10X20725   5.069   1.455   7.784 -0.1626  0.9244  3.0956
  181SOPE  H10Y20726   5.221   1.376   7.780  0.1931 -1.1085 -2.6412
  181SOPE  C31120727   5.043   1.280   7.890 -0.5873  0.8168 -0.4268
  181SOPE  H11X20728   5.079   1.177   7.908  2.0268  2.0691  2.6430
  181SOPE  H11Y20729   4.933   1.272   7.885 -0.7263  0.2536  2.2395
  181SOPE  C31220730   5.052   1.347   8.032 -0.7893  0.2286  0.1587
  181SOPE  H12X20731   5.019   1.286   8.118 -1.6985  2.6458  1.6249
  181SOPE  H12Y20732   4.982   1.433   8.029 -1.3182 -0.1320 -4.1610
  181SOPE  C31320733   5.190   1.405   8.069 -0.2267  0.1610  0.1238
  181SOPE  H13X20734   5.227   1.481   7.997  1.7374  0.0399  0.9375
  181SOPE  H13Y20735   5.268   1.326   8.067  0.0886  0.4695 -1.7320
  181SOPE  C31420736   5.205   1.478   8.204  0.7782  0.3017  0.0002
  181SOPE  H14X20737   5.149   1.573   8.199 -0.3069 -0.3645 -0.7844
  181SOPE  H14Y20738   5.312   1.509   8.206  0.9167  0.1084 -1.9192
  181SOPE  C31520739   5.157   1.388   8.312 -0.0577 -0.1520  0.1791
  181SOPE  H15X20740   5.199   1.286   8.296  0.0168 -0.4731  2.1677
  181SOPE  H15Y20741   5.046   1.380   8.318  0.1013 -2.0663  1.5214
  181SOPE  C31620742   5.211   1.416   8.450 -0.2912  0.1521 -0.9477
  181SOPE  H16X20743   5.192   1.518   8.490  1.0263  0.1029 -0.1236
  181SOPE  H16Y20744   5.322   1.412   8.443 -0.3864 -0.5128 -2.2700
  181SOPE  C31720745   5.171   1.311   8.563 -0.1950  0.8577  0.2565
  181SOPE  H17X20746   5.229   1.311   8.658  0.9049  2.2206 -0.3857
  181SOPE  H17Y20747   5.210   1.219   8.513 -1.5208  1.3427 -1.7730
  181SOPE  C31820748   5.024   1.296   8.589 -0.3980  0.8208  0.2849
  181SOPE  H18X20749   5.008   1.395   8.637  5.8590  2.0514  0.7142
  181SOPE  H18Y20750   5.001   1.205   8.647 -1.2820 -0.4795 -1.9818
  181SOPE  H18Z20751   4.966   1.290   8.494 -2.0422 -3.4515  1.3216
  182SOPE     N20752   4.647   3.994   6.067 -0.0570  0.1212 -0.3986
  182SOPE   HN120753   4.576   4.067   6.044  0.8380  0.5419 -1.9681
  182SOPE   HN220754   4.687   3.950   5.981 -0.6506  1.0839 -1.1930
  182SOPE   HN320755   4.608   3.910   6.114  2.3621 -0.5909  0.4695
  182SOPE   C1220756   4.754   4.040   6.165 -0.1227  0.8539 -0.5507
  182SOPE  H12A20757   4.715   4.137   6.204 -0.1641  0.7548 -0.3467
  182SOPE  H12B20758   4.844   4.069   6.106  2.7655 -2.4758  1.7860
  182SOPE   C1120759   4.787   3.951   6.280  0.1111  0.7090  0.0212
  182SOPE  H11A20760   4.695   3.933   6.339 -0.0923 -0.7356 -0.6950
  182SOPE  H11B20761   4.866   3.983   6.352 -0.1571  0.5710  0.3816
  182SOPE     P20762   4.916   3.717   6.300  0.1709  0.1108 -0.4379
  182SOPE   O1320763   5.060   3.733   6.264  0.1301  0.2241  0.2072
  182SOPE   O1420764   4.860   3.583   6.284  0.8609  0.5232 -0.5439
  182SOPE   O1220765   4.826   3.830   6.224 -0.7839  0.5223 -0.0707
  182SOPE   O1120766   4.900   3.770   6.450  0.2280  0.2612  0.1762
  182SOPE    C120767   4.792   3.711   6.529 -0.7773 -0.0375 -0.2049
  182SOPE    HA20768   4.815   3.603   6.535 -1.7438 -0.1909  1.5356
  182SOPE    HB20769   4.694   3.729   6.479 -0.1160  0.8129 -1.2537
  182SOPE    C220770   4.780   3.768   6.674 -0.0086  0.0995  0.4031
  182SOPE    HS20771   4.786   3.879   6.665 -0.8425  0.0883 -0.4957
  182SOPE   O2120772   4.890   3.704   6.751 -0.4981  0.6124  0.5265
  182SOPE   C2120773   4.912   3.774   6.863  0.5483 -0.2655 -0.3009
  182SOPE   O2220774   4.857   3.881   6.886 -0.0406 -0.2214  0.7681
  182SOPE   C2220775   5.036   3.721   6.942  0.0334 -0.5645 -0.2274
  182SOPE   H2R20776   5.120   3.786   6.909  0.8759 -0.2222  2.3512
  182SOPE   H2S20777   5.048   3.619   6.900 -0.4207 -0.4797 -0.5751
  182SOPE    C320778   4.624   3.738   6.717  0.2737  0.3078  0.0641
  182SOPE    HX20779   4.600   3.633   6.689  1.7327  0.2461 -1.0826
  182SOPE    HY20780   4.556   3.808   6.665 -2.9355 -0.3896  2.9798
  182SOPE   O3120781   4.589   3.759   6.856 -0.3402 -0.0435 -0.1968
  182SOPE   C3120782   4.568   3.892   6.890  0.0917  0.0874  0.1385
  182SOPE   O3220783   4.574   3.983   6.812  0.4289 -1.1085 -0.2553
  182SOPE   C3220784   4.557   3.911   7.041 -0.1609  0.2394  0.8557
  182SOPE   H2X20785   4.648   3.856   7.073  0.2607 -0.7483 -1.7821
  182SOPE   H2Y20786   4.467   3.856   7.075 -1.1943 -0.9398 -3.1830
  182SOPE   C2320787   5.012   3.729   7.097 -0.4288 -0.5674  0.2909
  182SOPE   H3R20788   4.966   3.828   7.115  0.1623  0.3390 -2.6200
  182SOPE   H3S20789   5.117   3.728   7.135  0.2769 -2.1792 -1.5073
  182SOPE   C2420790   4.943   3.603   7.152 -0.2514 -0.5435  0.2206
  182SOPE   H4R20791   4.849   3.582   7.097 -2.1802 -0.4811  3.2875
  182SOPE   H4S20792   5.002   3.512   7.127 -1.3577 -0.8620 -1.3678
  182SOPE   C2520793   4.920   3.623   7.305  0.9300 -0.5824 -0.2793
  182SOPE   H5R20794   5.014   3.660   7.352  0.3982  1.0132 -0.4145
  182SOPE   H5S20795   4.850   3.707   7.325 -0.3920 -0.8601 -3.2325
  182SOPE   C2620796   4.864   3.499   7.371 -0.0924 -0.0586  0.7603
  182SOPE   H6R20797   4.780   3.458   7.311 -1.1792 -0.2080  2.3197
  182SOPE   H6S20798   4.947   3.425   7.375  0.3798  0.1731 -2.5665
  182SOPE   C2720799   4.811   3.521   7.511 -0.5578  0.4292 -0.0060
  182SOPE   H7R20800   4.725   3.591   7.506  1.0946  2.6317  0.8746
  182SOPE   H7S20801   4.774   3.427   7.557 -0.4672  0.4047  0.0150
  182SOPE   C2820802   4.916   3.591   7.606 -0.4273  0.4483  0.6939
  182SOPE   H8R20803   4.979   3.668   7.556  0.6307 -0.7791  0.0600
  182SOPE   H8S20804   4.860   3.651   7.681 -1.1385 -0.2446  0.7306
  182SOPE   C2920805   5.002   3.496   7.683  0.1060  0.1474 -0.2250
  182SOPE   H9120806   4.988   3.390   7.658 -1.0468  0.2735 -0.1655
  182SOPE  C21020807   5.092   3.526   7.777  0.1512 -0.0440  0.1220
  182SOPE  H10120808   5.145   3.449   7.835  1.6681  0.6247 -0.3253
  182SOPE  C21120809   5.136   3.663   7.824 -0.2064 -0.8545  0.0881
  182SOPE  H11R20810   5.069   3.745   7.789  1.2056  0.0980 -0.4752
  182SOPE  H11S20811   5.236   3.681   7.780  0.5010 -3.3001  0.5844
  182SOPE  C21220812   5.156   3.679   7.977  0.3529  0.4444  0.5690
  182SOPE  H12R20813   5.076   3.624   8.031 -0.3424  2.3356  1.5635
  182SOPE  H12S20814   5.150   3.785   8.011  0.4636  0.5264  0.3385
  182SOPE  C21320815   5.284   3.612   8.020 -0.0850 -0.0513  0.3219
  182SOPE  H13R20816   5.371   3.675   7.992 -0.8326 -0.7153 -4.3749
  182SOPE  H13S20817   5.290   3.508   7.980  0.1762 -0.0471  0.3483
  182SOPE  C21420818   5.289   3.610   8.178 -0.1532 -0.1827  0.1922
  182SOPE  H14R20819   5.209   3.545   8.220  0.4176 -0.2263  1.2237
  182SOPE  H14S20820   5.269   3.715   8.208 -3.3031 -0.8758  0.8779
  182SOPE  C21520821   5.423   3.554   8.230  0.0252 -0.4559  0.0405
  182SOPE  H15R20822   5.446   3.456   8.184  1.1190  0.1875 -0.8610
  182SOPE  H15S20823   5.411   3.533   8.338 -1.6055 -0.2768 -0.0830
  182SOPE  C21620824   5.551   3.633   8.201 -0.0058  0.0240 -0.2587
  182SOPE  H16R20825   5.526   3.725   8.259 -1.3090 -0.4183 -0.0709
  182SOPE  H16S20826   5.562   3.642   8.091  1.3452 -0.1845 -0.1479
  182SOPE  C21720827   5.685   3.577   8.259  0.5288 -0.6763  0.4212
  182SOPE  H17R20828   5.778   3.624   8.219  2.2222 -2.8296  1.6575
  182SOPE  H17S20829   5.702   3.470   8.236 -3.3722 -1.5680  0.9729
  182SOPE  C21820830   5.692   3.583   8.414 -0.5270 -0.4075 -0.7281
  182SOPE  H18R20831   5.632   3.500   8.458 -0.6261  0.8149  1.5708
  182SOPE  H18S20832   5.662   3.682   8.454  1.4077  0.2661 -0.8164
  182SOPE  H18T20833   5.792   3.562   8.458 -0.0789  1.6427 -0.6915
  182SOPE   C3320834   4.577   4.056   7.085  0.3733 -0.0535 -0.0260
  182SOPE   H3X20835   4.493   4.119   7.048 -0.3436 -0.6055  0.6423
  182SOPE   H3Y20836   4.679   4.089   7.056  0.9136  0.5587  2.3583
  182SOPE   C3420837   4.568   4.070   7.237  0.9695  0.4531  0.2548
  182SOPE   H4X20838   4.467   4.040   7.272  1.2047  1.8772  2.3482
  182SOPE   H4Y20839   4.583   4.175   7.271 -2.1854  0.7735  0.9513
  182SOPE   C3520840   4.669   3.986   7.309 -0.3334  0.3359 -0.6857
  182SOPE   H5X20841   4.772   4.006   7.272  0.9863 -2.7494  0.8673
  182SOPE   H5Y20842   4.643   3.881   7.281 -2.1535  0.9495 -1.3913
  182SOPE   C3620843   4.676   4.007   7.463  0.3817  0.1529 -0.5992
  182SOPE   H6X20844   4.712   4.110   7.486  0.6211 -0.2055  0.6845
  182SOPE   H6Y20845   4.740   3.933   7.516  0.0995  0.9207  0.8401
  182SOPE   C3720846   4.533   3.990   7.520  1.0710  0.2723  0.3693
  182SOPE   H7X20847   4.478   3.897   7.498 -3.5434  2.5650  0.9985
  182SOPE   H7Y20848   4.467   4.070   7.480 -0.0273 -1.0831 -0.6078
  182SOPE   C3820849   4.542   4.005   7.675  0.0792 -0.5643  0.0972
  182SOPE   H8X20850   4.447   4.037   7.723 -0.1340  0.5238 -0.9817
  182SOPE   H8Y20851   4.617   4.083   7.700 -1.4380  0.3999  1.8082
  182SOPE   C3920852   4.590   3.873   7.734  0.2566  0.6017  0.7731
  182SOPE   H9X20853   4.694   3.844   7.705 -0.5591  0.1898 -2.0389
  182SOPE   H9Y20854   4.523   3.788   7.711  1.9852 -1.3221  2.4745
  182SOPE  C31020855   4.596   3.876   7.885  0.2219 -0.6646  0.4173
  182SOPE  H10X20856   4.497   3.914   7.918 -0.1831 -1.3245  0.0017
  182SOPE  H10Y20857   4.674   3.947   7.919 -0.1909 -0.0338  0.0819
  182SOPE  C31120858   4.610   3.740   7.962  0.4645 -0.8341 -0.0816
  182SOPE  H11X20859   4.686   3.677   7.911 -1.0426 -3.7439  0.9856
  182SOPE  H11Y20860   4.515   3.682   7.964 -0.1148  0.1014  0.0870
  182SOPE  C31220861   4.652   3.757   8.114 -0.1651  0.0460  0.4921
  182SOPE  H12X20862   4.739   3.826   8.111 -1.6345  1.9836  0.3296
  182SOPE  H12Y20863   4.690   3.659   8.151 -0.2341 -0.3730 -0.5292
  182SOPE  C31320864   4.537   3.807   8.191  0.6438 -0.0167  0.0867
  182SOPE  H13X20865   4.444   3.774   8.142 -0.6724  3.0584  0.2716
  182SOPE  H13Y20866   4.522   3.916   8.175 -1.4031 -0.4695 -1.5274
  182SOPE  C31420867   4.531   3.761   8.334  0.4233 -0.0019 -0.0992
  182SOPE  H14X20868   4.607   3.818   8.390  0.8318  0.0065 -0.6501
  182SOPE  H14Y20869   4.560   3.654   8.323 -0.6804 -0.3525  0.2812
  182SOPE  C31520870   4.389   3.769   8.392 -0.3433 -0.7420  0.6014
  182SOPE  H15X20871   4.387   3.720   8.492  4.3728  0.2420  1.3868
  182SOPE  H15Y20872   4.318   3.723   8.320 -1.7984  3.6251 -1.0223
  182SOPE  C31620873   4.325   3.913   8.407 -0.0488 -0.5834 -0.4449
  182SOPE  H16X20874   4.310   3.956   8.306 -0.7852 -0.6295 -0.3599
  182SOPE  H16Y20875   4.396   3.984   8.455  1.1554 -1.4660 -0.8556
  182SOPE  C31720876   4.198   3.915   8.492  0.1675 -0.4784 -0.0379
  182SOPE  H17X20877   4.228   3.896   8.597 -0.1852 -0.9267 -0.0140
  182SOPE  H17Y20878   4.131   3.830   8.466 -0.1007 -0.2418 -0.1265
  182SOPE  C31820879   4.118   4.045   8.475 -0.2611 -0.0768  0.5041
  182SOPE  H18X20880   4.077   4.052   8.372 -1.0118  1.2108  0.8627
  182SOPE  H18Y20881   4.182   4.135   8.486  0.0697 -0.3030  0.4333
  182SOPE  H18Z20882   4.031   4.058   8.543 -1.3602  1.5189 -1.1205
  183SOPE     N20883   2.272   1.576   6.390  0.2106  0.0269 -0.3266
  183SOPE   HN120884   2.341   1.576   6.468  0.5665 -1.1937 -0.6174
  183SOPE   HN220885   2.183   1.611   6.431  0.3647  1.7227 -1.3225
  183SOPE   HN320886   2.263   1.478   6.355  1.1252  0.3810 -1.6476
  183SOPE   C1220887   2.322   1.662   6.279 -0.8052 -0.0076  0.4847
  183SOPE  H12A20888   2.368   1.598   6.201  0.7066  1.7046 -0.0948
  183SOPE  H12B20889   2.409   1.722   6.312 -0.5828 -0.3279  0.4873
  183SOPE   C1120890   2.203   1.745   6.220  0.5278 -0.3680  0.1477
  183SOPE  H11A20891   2.117   1.686   6.182 -0.0523  1.8667 -2.3368
  183SOPE  H11B20892   2.248   1.797   6.133 -1.7397  0.3653 -0.6748
  183SOPE     P20893   2.218   1.970   6.355 -0.6191  0.1310 -0.2647
  183SOPE   O1320894   2.201   2.072   6.254 -0.1165 -0.1213 -0.3837
  183SOPE   O1420895   2.361   1.934   6.397 -0.2934  0.8826  0.6100
  183SOPE   O1220896   2.137   1.839   6.302 -0.7685 -0.0455  0.1381
  183SOPE   O1120897   2.136   2.021   6.481 -0.0812  0.0353  0.2604
  183SOPE    C120898   2.094   1.910   6.568 -0.6802  0.0258 -0.8789
  183SOPE    HA20899   2.158   1.819   6.563 -0.4527 -0.0685  2.0827
  183SOPE    HB20900   1.991   1.885   6.534  0.4917 -3.0125 -2.6698
  183SOPE    C220901   2.082   1.967   6.714 -1.0892  0.3340 -0.8025
  183SOPE    HS20902   2.006   2.049   6.712 -0.7997  0.5887 -2.4876
  183SOPE   O2120903   2.207   2.027   6.760  0.3728  0.0175  0.5884
  183SOPE   C2120904   2.312   1.963   6.783 -0.4551  0.5298 -0.6974
  183SOPE   O2220905   2.330   1.841   6.775 -0.2335  0.0519  0.2926
  183SOPE   C2220906   2.412   2.071   6.830 -0.8158 -0.2327  0.0189
  183SOPE   H2R20907   2.399   2.162   6.767  1.2410  1.8144  2.3255
  183SOPE   H2S20908   2.512   2.024   6.817 -1.1621 -1.0537  0.3153
  183SOPE    C320909   2.026   1.854   6.817 -0.1947  0.0220  0.0598
  183SOPE    HX20910   2.097   1.771   6.832 -0.4571  0.1230  2.3018
  183SOPE    HY20911   1.944   1.800   6.765  1.1388 -1.4425 -0.6028
  183SOPE   O3120912   1.974   1.913   6.936 -0.1394  0.6408 -0.2357
  183SOPE   C3120913   2.040   1.882   7.049  0.6942  1.0359 -0.0134
  183SOPE   O3220914   2.147   1.827   7.049  0.0163  0.0805 -1.0273
  183SOPE   C3220915   1.954   1.932   7.170 -0.3525 -0.1859 -0.8838
  183SOPE   H2X20916   1.856   1.886   7.146 -0.0176 -0.7125 -1.2672
  183SOPE   H2Y20917   1.934   2.041   7.158 -2.8703 -0.4123  0.5969
  183SOPE   C2320918   2.390   2.121   6.976  0.1393 -0.2379  0.8263
  183SOPE   H3R20919   2.285   2.148   7.001  0.0068  0.2670 -0.2061
  183SOPE   H3S20920   2.458   2.209   6.986  0.2459 -0.2206  0.0142
  183SOPE   C2420921   2.437   2.021   7.077 -0.5364 -0.1435 -0.1375
  183SOPE   H4R20922   2.441   1.914   7.050  0.0299  0.4073 -2.4422
  183SOPE   H4S20923   2.538   2.052   7.114  0.2240 -0.1828 -2.0747
  183SOPE   C2520924   2.355   2.018   7.216 -0.3816  0.1465 -0.5121
  183SOPE   H5R20925   2.248   1.989   7.209 -1.5093  3.6278  0.1758
  183SOPE   H5S20926   2.410   1.935   7.266 -0.1123  0.5893 -0.0664
  183SOPE   C2620927   2.373   2.149   7.304 -0.0643  0.2853  0.0688
  183SOPE   H6R20928   2.475   2.185   7.276  0.1091  0.3403  0.7700
  183SOPE   H6S20929   2.299   2.221   7.261 -0.0612  1.0737  1.3342
  183SOPE   C2720930   2.349   2.136   7.456  0.2736 -0.9665 -0.1263
  183SOPE   H7R20931   2.242   2.114   7.472  0.1121 -0.3917 -0.4187
  183SOPE   H7S20932   2.400   2.044   7.492 -0.6819 -0.9882  1.2502
  183SOPE   C2820933   2.377   2.252   7.553 -0.1113  0.0836 -0.7489
  183SOPE   H8R20934   2.331   2.341   7.505 -0.1261  0.0867 -0.7300
  183SOPE   H8S20935   2.329   2.230   7.651 -0.1334  2.6660 -0.1078
  183SOPE   C2920936   2.522   2.271   7.574  0.4195 -0.2933  0.3158
  183SOPE   H9120937   2.573   2.342   7.507  0.0139 -0.7570 -0.4879
  183SOPE  C21020938   2.590   2.196   7.661  0.5418  0.3943  0.1684
  183SOPE  H10120939   2.700   2.202   7.656  0.7344 -1.1047  1.7322
  183SOPE  C21120940   2.531   2.094   7.755  0.3776  0.5108  0.0208
  183SOPE  H11R20941   2.603   2.010   7.772 -1.0778 -0.4840  1.6225
  183SOPE  H11S20942   2.440   2.043   7.716 -0.1561 -0.0014  1.8051
  183SOPE  C21220943   2.496   2.150   7.898  0.7128 -0.7351 -0.5062
  183SOPE  H12R20944   2.483   2.055   7.955 -1.2933  0.0675  0.4658
  183SOPE  H12S20945   2.403   2.211   7.899  1.7059  0.8155  0.0250
  183SOPE  C21320946   2.617   2.216   7.974 -0.1759  0.3131  0.2942
  183SOPE  H13R20947   2.623   2.319   7.932 -0.5848  0.4820  0.6424
  183SOPE  H13S20948   2.712   2.162   7.953 -1.6737 -1.9618 -1.0037
  183SOPE  C21420949   2.594   2.223   8.124 -0.5510  0.7585  0.2931
  183SOPE  H14R20950   2.630   2.128   8.168 -0.9332  0.8727  0.8509
  183SOPE  H14S20951   2.485   2.232   8.144 -0.9801 -1.3278 -0.8384
  183SOPE  C21520952   2.673   2.345   8.188 -0.0907 -0.0054  0.0361
  183SOPE  H15R20953   2.615   2.430   8.146  0.2676  0.8111  1.1370
  183SOPE  H15S20954   2.777   2.347   8.148 -0.8236  4.2235 -2.2144
  183SOPE  C21620955   2.676   2.354   8.340 -0.3901 -0.1745  0.2550
  183SOPE  H16R20956   2.750   2.277   8.371  0.9357  0.3831 -1.4038
  183SOPE  H16S20957   2.574   2.331   8.379 -0.9760 -0.3412 -1.3090
  183SOPE  C21720958   2.721   2.483   8.392  0.0084 -0.7927 -0.9532
  183SOPE  H17R20959   2.655   2.564   8.355 -0.4099  0.3483  1.9931
  183SOPE  H17S20960   2.822   2.510   8.354 -0.3214  1.5233 -0.3678
  183SOPE  C21820961   2.740   2.492   8.542 -0.3719  0.8177  0.1832
  183SOPE  H18R20962   2.648   2.455   8.591 -0.8136 -0.5360 -1.5783
  183SOPE  H18S20963   2.761   2.596   8.576  1.5838  0.4602  0.1640
  183SOPE  H18T20964   2.826   2.427   8.569  0.6119  1.7048 -0.7577
  183SOPE   C3320965   2.012   1.906   7.309 -0.3411 -0.8873  0.0600
  183SOPE   H3X20966   2.073   1.988   7.352  0.4127 -1.8589  0.8942
  183SOPE   H3Y20967   2.083   1.822   7.295  0.9287  0.4088 -1.7261
  183SOPE   C3420968   1.900   1.879   7.413 -0.4613  0.6521  0.1057
  183SOPE   H4X20969   1.828   1.803   7.376  0.2759  0.3521 -0.7722
  183SOPE   H4Y20970   1.836   1.969   7.420 -0.7538  0.5057 -0.6095
  183SOPE   C3520971   1.952   1.854   7.555 -0.0194  0.7093  1.0107
  183SOPE   H5X20972   2.043   1.790   7.558 -1.0475 -0.8339  0.7708
  183SOPE   H5Y20973   1.860   1.818   7.605 -0.3088 -0.2177 -0.1226
  183SOPE   C3620974   2.008   1.971   7.627  0.0983 -0.7716  0.1871
  183SOPE   H6X20975   1.933   2.053   7.626  1.2358  0.3194 -1.8091
  183SOPE   H6Y20976   2.094   2.017   7.573  1.1489  1.0382  3.2092
  183SOPE   C3720977   2.048   1.943   7.778  0.1533  0.6546 -0.5708
  183SOPE   H7X20978   2.133   1.871   7.778 -1.6520 -1.6187  0.6957
  183SOPE   H7Y20979   1.961   1.887   7.817  0.5204 -1.1863 -2.2259
  183SOPE   C3820980   2.066   2.075   7.846  0.4865 -0.2869  0.2908
  183SOPE   H8X20981   1.966   2.120   7.864  0.5139  0.1870 -0.6545
  183SOPE   H8Y20982   2.111   2.139   7.767 -1.7093  1.2207  0.1686
  183SOPE   C3920983   2.139   2.068   7.978 -0.5661  0.1318  0.1029
  183SOPE   H9X20984   2.165   2.173   8.004  0.4875 -0.3219  0.9885
  183SOPE   H9Y20985   2.235   2.012   7.976 -0.4264  0.3660  0.2200
  183SOPE  C31020986   2.066   2.011   8.101  0.4159 -0.5683 -0.1224
  183SOPE  H10X20987   2.075   1.901   8.087 -0.6486 -0.3205 -3.8931
  183SOPE  H10Y20988   1.960   2.043   8.096  0.7611  1.1229  1.9377
  183SOPE  C31120989   2.123   2.050   8.238  0.3220 -0.0179  0.2760
  183SOPE  H11X20990   2.044   2.048   8.315  0.2790 -0.0843  0.2286
  183SOPE  H11Y20991   2.144   2.159   8.232 -0.8883  0.2117 -0.0872
  183SOPE  C31220992   2.247   1.967   8.276  0.4057 -0.3000  0.0771
  183SOPE  H12X20993   2.349   1.999   8.243 -0.4348  3.1760  0.4688
  183SOPE  H12Y20994   2.234   1.867   8.229 -0.4254  0.1472 -0.6700
  183SOPE  C31320995   2.256   1.967   8.428 -0.0062  0.5704  0.0533
  183SOPE  H13X20996   2.349   1.911   8.450 -0.2036  0.1359 -0.2040
  183SOPE  H13Y20997   2.169   1.912   8.468  1.0759 -0.3745  1.1768
  183SOPE  C31420998   2.263   2.116   8.482  0.5084  0.2842  0.0991
  183SOPE  H14X20999   2.178   2.182   8.454  0.2159 -0.2615 -0.2949
  183SOPE  H14Y21000   2.356   2.150   8.431  1.0909 -0.6539  0.5216
  183SOPE  C31521001   2.293   2.121   8.632 -0.3997 -0.1119 -0.2594
  183SOPE  H15X21002   2.211   2.072   8.689 -0.1619 -0.7983 -0.4964
  183SOPE  H15Y21003   2.305   2.226   8.665  3.5134 -0.3172 -0.5334
  183SOPE  C31621004   2.432   2.065   8.672  0.3813 -1.2964  0.2435
  183SOPE  H16X21005   2.458   1.963   8.638  1.3216 -1.4738  1.4228
  183SOPE  H16Y21006   2.443   2.063   8.783 -1.1606  1.6644  0.5705
  183SOPE  C31721007   2.555   2.143   8.617  0.7164  0.4202 -0.1239
  183SOPE  H17X21008   2.536   2.251   8.633  2.3632  0.8751 -0.9505
  183SOPE  H17Y21009   2.567   2.128   8.508 -2.0865 -0.9042 -0.3269
  183SOPE  C31821010   2.683   2.104   8.697  0.3927 -0.3434 -0.0031
  183SOPE  H18X21011   2.679   2.116   8.807 -0.9522 -0.7553  0.0035
  183SOPE  H18Y21012   2.769   2.162   8.655 -0.1485 -0.9957 -2.1330
  183SOPE  H18Z21013   2.710   1.997   8.685  1.3063 -0.3735  1.9190
  184SOPE     N21014   0.795   1.542   6.214 -0.2774  0.0950 -0.4521
  184SOPE   HN121015   0.863   1.482   6.265  1.8032  2.1519 -0.6303
  184SOPE   HN221016   0.713   1.492   6.175 -0.6202  0.6289 -0.4301
  184SOPE   HN321017   0.845   1.577   6.130 -2.5416 -0.3195 -2.0739
  184SOPE   C1221018   0.745   1.653   6.308  0.4477 -0.0379 -0.1860
  184SOPE  H12A21019   0.691   1.606   6.393  2.0968 -0.2875  0.7846
  184SOPE  H12B21020   0.660   1.700   6.254 -1.0951 -0.1993  1.9603
  184SOPE   C1121021   0.859   1.745   6.347 -0.4323 -0.3890 -0.0070
  184SOPE  H11A21022   0.935   1.691   6.407 -0.2276 -0.6515 -0.4944
  184SOPE  H11B21023   0.840   1.819   6.427 -0.1711  0.6695 -0.8990
  184SOPE     P21024   0.881   1.898   6.140 -0.1205  0.1485  0.2198
  184SOPE   O1321025   0.787   1.833   6.045  0.0824 -0.0295  0.0265
  184SOPE   O1421026   1.006   1.956   6.085 -0.5644 -0.2135  0.0103
  184SOPE   O1221027   0.932   1.787   6.234  0.1287  0.6868  0.2679
  184SOPE   O1121028   0.800   2.005   6.236  0.0372  0.7804  0.2019
  184SOPE    C121029   0.820   2.143   6.224  0.3520 -0.8405 -0.4121
  184SOPE    HA21030   0.722   2.190   6.247  0.4831  0.0783 -1.6447
  184SOPE    HB21031   0.847   2.174   6.121 -0.9872  0.4724 -0.3961
  184SOPE    C221032   0.928   2.195   6.322  1.0630 -0.1377  0.1436
  184SOPE    HS21033   1.027   2.159   6.288 -0.1183  0.2942 -4.2975
  184SOPE   O2121034   0.877   2.154   6.453  0.0668 -0.6679  0.7043
  184SOPE   C2121035   0.962   2.094   6.536  0.8861  0.6421  0.3942
  184SOPE   O2221036   1.075   2.065   6.509 -0.1821  0.6558 -0.2905
  184SOPE   C2221037   0.886   2.072   6.673  0.7541 -0.7801  1.1342
  184SOPE   H2R21038   0.796   2.009   6.651  0.2448  0.2312  0.2459
  184SOPE   H2S21039   0.866   2.176   6.705  2.1309 -0.0378 -0.2846
  184SOPE    C321040   0.937   2.351   6.309  0.4764  0.5514 -0.0394
  184SOPE    HX21041   0.833   2.391   6.305  0.6678  1.5682  2.7614
  184SOPE    HY21042   0.995   2.387   6.221  0.2918  0.4946 -0.1855
  184SOPE   O3121043   0.996   2.415   6.424  0.0066  0.0328  0.0987
  184SOPE   C3121044   1.126   2.406   6.435 -0.2505  0.7345  0.3670
  184SOPE   O3221045   1.206   2.367   6.351  0.2493  0.6595 -0.1688
  184SOPE   C3221046   1.171   2.447   6.576  0.0643  0.0791  0.0559
  184SOPE   H2X21047   1.088   2.426   6.647  1.5225 -1.9972  1.2658
  184SOPE   H2Y21048   1.184   2.556   6.563 -3.6272  0.5380 -0.8084
  184SOPE   C2321049   0.970   2.003   6.786  0.0781 -0.4751 -0.1981
  184SOPE   H3R21050   1.074   2.039   6.768  0.7417 -1.6428  1.1948
  184SOPE   H3S21051   0.971   1.893   6.774  0.7454 -0.5923  0.8155
  184SOPE   C2421052   0.925   2.051   6.927 -0.2827  0.5016  0.5955
  184SOPE   H4R21053   0.817   2.035   6.942  0.1325 -2.7233  0.7383
  184SOPE   H4S21054   0.981   1.989   6.999  0.6248  0.9388  0.2876
  184SOPE   C2521055   0.957   2.196   6.965  0.0521 -0.0795 -0.0024
  184SOPE   H5R21056   1.059   2.227   6.932  0.0882 -1.7068 -1.5466
  184SOPE   H5S21057   0.885   2.263   6.913 -0.5963  0.1418  1.1367
  184SOPE   C2621058   0.952   2.213   7.115 -0.2599  0.1282 -0.8011
  184SOPE   H6R21059   1.023   2.141   7.160  0.7475  0.3573 -1.9616
  184SOPE   H6S21060   0.987   2.317   7.135  2.3108 -0.5444 -1.5036
  184SOPE   C2721061   0.814   2.205   7.186 -0.1577 -0.0101  0.1987
  184SOPE   H7R21062   0.746   2.267   7.124 -0.7333 -1.8949 -1.1545
  184SOPE   H7S21063   0.765   2.106   7.177 -0.7397  0.3164 -0.3039
  184SOPE   C2821064   0.808   2.252   7.331 -1.2490  0.2804  0.7077
  184SOPE   H8R21065   0.827   2.361   7.335  0.3191  0.2655 -2.7213
  184SOPE   H8S21066   0.704   2.245   7.371 -1.3340  0.9179  0.6060
  184SOPE   C2921067   0.906   2.185   7.423 -0.3499 -0.5158  0.0276
  184SOPE   H9121068   0.976   2.114   7.377 -0.1517 -0.1882 -0.1837
  184SOPE  C21021069   0.920   2.205   7.556  0.1262  0.1129 -0.3382
  184SOPE  H10121070   0.995   2.146   7.611 -1.9910 -2.4814 -0.0216
  184SOPE  C21121071   0.849   2.304   7.647  0.4021 -0.2652 -0.5077
  184SOPE  H11R21072   0.751   2.333   7.604 -0.3527 -2.1789 -0.1628
  184SOPE  H11S21073   0.902   2.402   7.654  0.6872 -0.4679  0.2734
  184SOPE  C21221074   0.816   2.248   7.787 -0.2201 -0.6169  0.9721
  184SOPE  H12R21075   0.758   2.153   7.792 -1.8851  0.3623  0.9886
  184SOPE  H12S21076   0.745   2.317   7.837 -1.8319  0.3084 -2.3198
  184SOPE  C21321077   0.942   2.231   7.865  0.7133 -0.6926  0.2492
  184SOPE  H13R21078   1.010   2.316   7.841 -2.4664  0.9227 -4.7135
  184SOPE  H13S21079   0.997   2.141   7.832  0.9821 -0.3109 -0.3692
  184SOPE  C21421080   0.915   2.230   8.012  0.1284  0.2702  0.0425
  184SOPE  H14R21081   0.824   2.174   8.040  0.1599 -1.1693 -2.4810
  184SOPE  H14S21082   0.882   2.332   8.044 -0.2404  0.4086 -0.7497
  184SOPE  C21521083   1.031   2.181   8.087 -0.6576  0.5040 -0.3361
  184SOPE  H15R21084   1.014   2.203   8.194 -2.3877 -1.3236 -0.1858
  184SOPE  H15S21085   1.124   2.236   8.059 -0.0014 -0.7478 -0.7395
  184SOPE  C21621086   1.057   2.027   8.076  0.2805 -0.0470  0.2316
  184SOPE  H16R21087   1.075   2.002   7.969 -0.2646  2.5484 -0.5492
  184SOPE  H16S21088   0.964   1.977   8.109  1.1054 -0.4526  2.0821
  184SOPE  C21721089   1.186   1.995   8.159 -0.2312 -0.3180  0.2875
  184SOPE  H17R21090   1.264   2.074   8.151 -0.3359 -0.2824 -0.3907
  184SOPE  H17S21091   1.229   1.898   8.124  0.3096  0.2189 -0.5599
  184SOPE  C21821092   1.160   1.993   8.311  1.1955  0.7392  0.1339
  184SOPE  H18R21093   1.112   2.079   8.362 -0.3787 -0.0005 -0.0468
  184SOPE  H18S21094   1.254   1.967   8.365  1.2049 -1.9486 -1.0347
  184SOPE  H18T21095   1.092   1.907   8.327 -0.3200  1.9537  0.4684
  184SOPE   C3321096   1.302   2.376   6.611  0.3471 -0.4793 -0.2981
  184SOPE   H3X21097   1.387   2.420   6.553 -1.4268  0.5387 -2.2622
  184SOPE   H3Y21098   1.292   2.269   6.584  3.3581 -0.6026 -1.3492
  184SOPE   C3421099   1.320   2.371   6.765 -0.3128  0.2613 -0.5832
  184SOPE   H4X21100   1.401   2.298   6.786 -0.5170  0.2008  0.0232
  184SOPE   H4Y21101   1.226   2.346   6.819 -0.2692 -0.8924 -0.9984
  184SOPE   C3521102   1.402   2.494   6.818  0.3829  0.2772  0.3148
  184SOPE   H5X21103   1.329   2.575   6.799  0.8576  0.6381  0.0075
  184SOPE   H5Y21104   1.490   2.513   6.753  0.9596 -1.0315  0.6857
  184SOPE   C3621105   1.447   2.489   6.964  0.0833  0.7634  0.8173
  184SOPE   H6X21106   1.497   2.588   6.973  1.7790 -0.0723  0.8956
  184SOPE   H6Y21107   1.527   2.418   6.995 -0.4092 -0.7120 -1.1383
  184SOPE   C3721108   1.339   2.478   7.068 -0.5256 -0.1041 -0.1194
  184SOPE   H7X21109   1.264   2.399   7.044 -0.9175  0.3283 -0.3215
  184SOPE   H7Y21110   1.286   2.575   7.079  2.6026  1.7525 -0.2668
  184SOPE   C3821111   1.396   2.461   7.206 -0.9002  0.5902  0.0744
  184SOPE   H8X21112   1.459   2.545   7.243  2.3861  0.5471 -4.5526
  184SOPE   H8Y21113   1.450   2.363   7.214 -2.7291 -0.3603  1.5928
  184SOPE   C3921114   1.279   2.432   7.310 -0.1571 -0.3763  0.1467
  184SOPE   H9X21115   1.217   2.347   7.275 -2.3169  1.7893 -1.6205
  184SOPE   H9Y21116   1.225   2.529   7.299  1.0314  0.4211  1.0828
  184SOPE  C31021117   1.331   2.441   7.454  1.0750 -0.2388  0.1565
  184SOPE  H10X21118   1.395   2.532   7.458  0.9905 -0.2150  1.1172
  184SOPE  H10Y21119   1.398   2.353   7.462  0.6049 -0.5275  1.0192
  184SOPE  C31121120   1.214   2.441   7.557 -0.2034 -0.2705 -0.2744
  184SOPE  H11X21121   1.149   2.352   7.543  2.4236 -2.4991  0.7492
  184SOPE  H11Y21122   1.157   2.535   7.540  2.5311  1.3838 -0.8811
  184SOPE  C31221123   1.278   2.443   7.700 -0.6590 -0.1612  0.2295
  184SOPE  H12X21124   1.363   2.373   7.689  0.7428  1.8182 -2.7510
  184SOPE  H12Y21125   1.205   2.400   7.772  0.0053 -2.2362 -0.2536
  184SOPE  C31321126   1.328   2.580   7.748  0.4326 -1.7403 -1.4272
  184SOPE  H13X21127   1.403   2.627   7.681 -1.2723  1.1518 -1.4717
  184SOPE  H13Y21128   1.384   2.568   7.844  0.4397  0.1664 -1.1527
  184SOPE  C31421129   1.215   2.685   7.761  0.2724  0.3971 -0.2508
  184SOPE  H14X21130   1.185   2.730   7.664 -2.0631  1.9334  1.0751
  184SOPE  H14Y21131   1.248   2.768   7.827  0.0377 -1.0567  1.7828
  184SOPE  C31521132   1.089   2.632   7.829  0.3354 -0.4070 -0.6266
  184SOPE  H15X21133   1.047   2.560   7.756  1.8718  0.3047 -2.2876
  184SOPE  H15Y21134   1.028   2.725   7.828 -0.9235 -1.1594  1.1464
  184SOPE  C31621135   1.107   2.583   7.969  0.7840 -0.6400 -0.7147
  184SOPE  H16X21136   1.199   2.521   7.960  0.9070 -0.4741 -0.6082
  184SOPE  H16Y21137   1.010   2.534   7.992  0.0140  0.5168 -1.3967
  184SOPE  C31721138   1.120   2.694   8.074 -0.3950 -0.1591  0.1307
  184SOPE  H17X21139   1.031   2.757   8.053 -0.3777  0.0834  0.7612
  184SOPE  H17Y21140   1.213   2.753   8.063  1.0899 -1.5633  3.5743
  184SOPE  C31821141   1.147   2.654   8.223 -0.1624 -1.2106 -0.1955
  184SOPE  H18X21142   1.184   2.744   8.277  0.0653 -0.9690 -0.7412
  184SOPE  H18Y21143   1.235   2.587   8.227  0.3841 -0.4676  0.4400
  184SOPE  H18Z21144   1.065   2.595   8.270 -0.9436 -0.0440 -0.0437
  185SAPI   C1221145   2.405   0.014  11.405  0.3434  0.9229 -0.3023
  185SAPI    H221146   2.357   0.009  11.305  0.7574 -0.2628 -0.4576
  185SAPI    O221147   2.424   0.153  11.425  0.0419 -0.1562 -0.6611
  185SAPI   HO221148   2.496   0.171  11.365  1.1970 -0.5814  0.5469
  185SAPI   C1321149   2.305  -0.035  11.509 -0.3709  0.0776  0.8791
  185SAPI    H321150   2.293  -0.144  11.489  0.4152 -0.2305  2.0004
  185SAPI    O321151   2.173   0.017  11.497 -0.5846 -0.0536 -0.2128
  185SAPI   HO321152   2.176   0.102  11.543 -0.7455 -1.7075  3.1821
  185SAPI   C1421153   2.363  -0.032  11.645  0.0835 -0.2358 -0.1774
  185SAPI    H421154   2.395   0.069  11.679  3.5354 -1.6175  1.2098
  185SAPI    O421155   2.271  -0.081  11.743 -0.3555 -0.8806 -0.2767
  185SAPI   HO421156   2.317  -0.106  11.823  1.4630 -0.8341 -1.2518
  185SAPI   C1521157   2.497  -0.114  11.654  0.3108 -0.2812  1.2151
  185SAPI    H521158   2.463  -0.216  11.624  0.4133 -0.9783  3.3270
  185SAPI    O521159   2.552  -0.132  11.788 -0.4015 -0.4078 -0.0601
  185SAPI   HO521160   2.551  -0.223  11.818  1.4824 -0.6037 -0.5028
  185SAPI   C1621161   2.592  -0.066  11.553 -0.3917  0.4307  0.3395
  185SAPI    H621162   2.613   0.041  11.573 -0.6612  0.7439 -0.9358
  185SAPI    O621163   2.715  -0.139  11.557 -0.0804  0.0432 -0.4607
  185SAPI   HO621164   2.768  -0.102  11.485  0.1602 -0.5585 -0.5978
  185SAPI   C1121165   2.534  -0.065  11.412  0.0800  0.2841  0.0301
  185SAPI    H121166   2.511  -0.172  11.394 -0.5414  0.2995  0.7064
  185SAPI     P21167   2.659  -0.089  11.180  0.5233  0.0891 -0.1094
  185SAPI   O1321168   2.725  -0.220  11.201  0.8654 -0.0703  0.5433
  185SAPI   O1421169   2.727   0.010  11.090  0.8962 -0.1725  0.6763
  185SAPI   O1221170   2.629  -0.007  11.321 -0.5178  0.4540  0.5527
  185SAPI   O1121171   2.511  -0.117  11.134  0.3460  0.0906 -0.3057
  185SAPI    C121172   2.487  -0.211  11.030  0.0331  0.3073  0.4267
  185SAPI    HA21173   2.532  -0.311  11.047  0.1792  0.4194  0.6920
  185SAPI    HB21174   2.377  -0.227  11.029  0.3504 -2.2608 -0.9324
  185SAPI    C221175   2.528  -0.163  10.890  1.1218  0.7113  0.6209
  185SAPI    HS21176   2.637  -0.181  10.877  0.8679 -0.8174  0.3505
  185SAPI   O2121177   2.490  -0.027  10.885  1.0989 -0.2061  0.6136
  185SAPI   C2121178   2.566   0.049  10.802 -0.7855  0.1005 -0.3902
  185SAPI   O2221179   2.659   0.011  10.733  0.2726  0.4706 -0.7800
  185SAPI   C2221180   2.527   0.192  10.820  0.2103  0.2020  0.9040
  185SAPI   H2R21181   2.416   0.196  10.826  0.0620  0.3142 -1.1005
  185SAPI   H2S21182   2.559   0.238  10.915 -0.4455  1.7022  0.4340
  185SAPI    C321183   2.452  -0.242  10.787 -0.5095  0.7018  0.1136
  185SAPI    HX21184   2.349  -0.213  10.760 -1.1536 -2.0613 -0.7910
  185SAPI    HY21185   2.453  -0.345  10.829 -1.0515  0.3534 -0.7060
  185SAPI   O3121186   2.526  -0.252  10.665 -0.2748 -0.4508  0.5826
  185SAPI   C3121187   2.493  -0.164  10.571  0.1106  0.0114 -0.3559
  185SAPI   O3221188   2.395  -0.092  10.584  0.2380 -0.0746  0.2803
  185SAPI   C3221189   2.589  -0.176  10.455  0.0115 -0.3632  0.8751
  185SAPI   H2X21190   2.653  -0.265  10.469 -0.1217 -0.5755  0.1597
  185SAPI   H2Y21191   2.644  -0.079  10.453 -0.9822  0.2157 -0.4201
  185SAPI   C2321192   2.574   0.284  10.705 -0.5477 -0.0254  0.3595
  185SAPI   H3R21193   2.684   0.272  10.693 -0.5221 -1.9195  2.0469
  185SAPI   H3S21194   2.559   0.386  10.747 -0.6739 -0.2405  0.8423
  185SAPI   C2421195   2.497   0.273  10.577  0.5491 -0.4408  0.3955
  185SAPI   H4R21196   2.391   0.286  10.609  0.4339  0.1425 -0.1939
  185SAPI   H4S21197   2.521   0.172  10.539  0.3270 -0.4970  0.4084
  185SAPI   C2521198   2.533   0.390  10.480 -0.5897  0.1925  0.4590
  185SAPI   H5R21199   2.559   0.491  10.517  0.7437  1.6397 -3.8285
  185SAPI   C2621200   2.551   0.373  10.349  0.1725  0.4228  0.3839
  185SAPI   H6R21201   2.577   0.462  10.289  2.1882  1.4242  2.5737
  185SAPI   C2721202   2.534   0.244  10.269 -0.5051 -0.2593  0.5536
  185SAPI   H7R21203   2.436   0.239  10.218 -0.8094 -1.8804  1.2535
  185SAPI   H7S21204   2.518   0.158  10.337 -0.9398 -0.2569  0.4581
  185SAPI   C2821205   2.644   0.218  10.165  0.2449  0.5799  0.3093
  185SAPI   H8R21206   2.725   0.151  10.198 -0.1507 -1.0361 -1.7562
  185SAPI   C2921207   2.650   0.270  10.043 -0.3164  0.3171  0.0024
  185SAPI   H9R21208   2.722   0.229   9.970  0.8981  2.0405  0.1528
  185SAPI  C21021209   2.558   0.369   9.975 -0.2694  0.0650 -0.5342
  185SAPI  H10R21210   2.620   0.424   9.901 -0.3094 -0.3579 -0.8829
  185SAPI  H10S21211   2.516   0.443  10.046 -1.7565 -0.4934 -0.7853
  185SAPI  C21121212   2.438   0.308   9.912 -0.1101  0.7671  0.0801
  185SAPI  H11R21213   2.366   0.283   9.991  0.1779  1.0183  0.4206
  185SAPI  C21221214   2.405   0.302   9.784  0.2616 -0.6177  0.0559
  185SAPI  H12R21215   2.310   0.256   9.754  0.2449  0.2566 -1.3462
  185SAPI  C21321216   2.484   0.356   9.667  0.1700 -0.2344 -0.6197
  185SAPI  H13R21217   2.591   0.375   9.693 -0.3479  1.7959  0.2365
  185SAPI  H13S21218   2.455   0.461   9.646  0.8835  0.0159 -0.3791
  185SAPI  C21421219   2.462   0.276   9.542 -0.1613  0.1495  0.7475
  185SAPI  H14R21220   2.355   0.259   9.523 -0.2022  0.1291  0.9891
  185SAPI  C21521221   2.549   0.232   9.449 -0.9017  0.4111  0.4974
  185SAPI  H15R21222   2.517   0.173   9.362 -0.3027  4.3849 -2.7521
  185SAPI  C21621223   2.696   0.254   9.454 -0.0568  0.5423 -0.0885
  185SAPI  H16R21224   2.766   0.167   9.450  1.5729  1.8274 -2.6087
  185SAPI  H16S21225   2.727   0.317   9.539  1.5861  1.5604 -1.3721
  185SAPI  C21721226   2.726   0.332   9.318 -0.5253 -0.0136  0.0005
  185SAPI  H17R21227   2.827   0.379   9.320 -0.7994  0.6663 -1.2379
  185SAPI  H17S21228   2.662   0.422   9.329  0.2706  0.4759  0.8547
  185SAPI  C21821229   2.703   0.267   9.184  0.2929  0.9138  0.2971
  185SAPI  H18R21230   2.596   0.244   9.165  0.4278  0.1651  0.4202
  185SAPI  H18S21231   2.764   0.175   9.176 -0.1094  0.6481  0.2732
  185SAPI  C21921232   2.742   0.348   9.063 -0.2299  0.0331 -0.1118
  185SAPI  H19R21233   2.728   0.291   8.969 -3.1134  0.2303  0.1172
  185SAPI  H19S21234   2.851   0.362   9.078  0.3999 -1.6527 -2.5662
  185SAPI  C22021235   2.648   0.472   9.043 -0.6861  1.0088  0.3750
  185SAPI  H20R21236   2.553   0.450   8.991 -0.9377  2.8005  0.0027
  185SAPI  H20S21237   2.692   0.525   8.956 -0.0515  1.7095  1.1006
  185SAPI  H20T21238   2.631   0.534   9.134  1.8659  2.8674 -0.3007
  185SAPI   C3321239   2.521  -0.191  10.315  0.3904 -0.2326  0.4062
  185SAPI   H3X21240   2.462  -0.098  10.305 -1.2811 -1.4249 -1.5215
  185SAPI   H3Y21241   2.464  -0.286  10.316  1.7782 -1.0913  0.7817
  185SAPI   C3421242   2.624  -0.184  10.195  0.6720 -0.0763 -0.8375
  185SAPI   H4X21243   2.668  -0.285  10.202  0.4108 -0.0991  0.6777
  185SAPI   H4Y21244   2.689  -0.093  10.196 -0.0596  0.4628  0.5387
  185SAPI   C3521245   2.548  -0.189  10.071  0.7704  0.3872  0.8932
  185SAPI   H5X21246   2.475  -0.107  10.058 -0.9197 -1.2066 -0.1178
  185SAPI   H5Y21247   2.487  -0.282  10.068 -0.5808  1.2737 -0.9478
  185SAPI   C3621248   2.638  -0.177   9.953 -0.4091 -0.3030 -0.1758
  185SAPI   H6X21249   2.720  -0.251   9.959 -0.2953 -0.1987 -0.4030
  185SAPI   H6Y21250   2.690  -0.079   9.953  0.5341 -0.7566 -2.2282
  185SAPI   C3721251   2.562  -0.184   9.821  0.1179  0.6591 -0.1235
  185SAPI   H7X21252   2.483  -0.107   9.811  0.8188  1.1833 -2.3095
  185SAPI   H7Y21253   2.528  -0.289   9.809  0.1786  0.6684 -0.3843
  185SAPI   C3821254   2.668  -0.154   9.706  0.2580  0.2728 -0.4820
  185SAPI   H8X21255   2.763  -0.200   9.742 -0.2668 -0.3060  0.2117
  185SAPI   H8Y21256   2.691  -0.046   9.700  3.2470 -0.3292 -1.9601
  185SAPI   C3921257   2.625  -0.224   9.582  0.0910  0.2641 -0.9840
  185SAPI   H9X21258   2.514  -0.220   9.581 -0.0297 -1.6433  0.3126
  185SAPI   H9Y21259   2.668  -0.326   9.589  1.4427  0.8380 -0.6463
  185SAPI  C31021260   2.684  -0.142   9.458  0.7011  0.2743 -0.3359
  185SAPI  H10X21261   2.794  -0.144   9.474  0.2533 -0.1059  4.1541
  185SAPI  H10Y21262   2.647  -0.038   9.457  2.1567  0.8125 -0.6866
  185SAPI  C31121263   2.651  -0.204   9.333 -0.4390 -0.4717 -0.0134
  185SAPI  H11X21264   2.547  -0.182   9.300 -0.4043 -0.3314 -0.0318
  185SAPI  H11Y21265   2.660  -0.313   9.350 -0.6965 -0.4042  0.5590
  185SAPI  C31221266   2.742  -0.169   9.214 -0.0159 -0.1164  0.0417
  185SAPI  H12X21267   2.840  -0.210   9.245 -0.5331 -0.4911  1.2281
  185SAPI  H12Y21268   2.749  -0.058   9.203  0.7509 -0.2247 -0.6174
  185SAPI  C31321269   2.704  -0.228   9.077  0.6176  0.4457  0.6075
  185SAPI  H13X21270   2.600  -0.208   9.045  0.4181  0.5878  1.3209
  185SAPI  H13Y21271   2.701  -0.339   9.077 -0.1796  0.4604 -0.1683
  185SAPI  C31421272   2.795  -0.175   8.961 -0.5099  0.2885  0.2496
  185SAPI  H14X21273   2.891  -0.134   8.998 -1.5405  2.2224  0.8926
  185SAPI  H14Y21274   2.730  -0.112   8.897 -1.2174 -0.3118  0.3598
  185SAPI  C31521275   2.830  -0.289   8.857  0.0689  0.5336  0.0771
  185SAPI  H15X21276   2.739  -0.350   8.839 -0.2443  0.2953  2.1781
  185SAPI  H15Y21277   2.909  -0.358   8.893 -1.1691 -3.0615 -3.3142
  185SAPI  C31621278   2.886  -0.222   8.729  0.5850 -0.0573  0.7071
  185SAPI  H16X21279   2.948  -0.297   8.675  1.8364  1.6159 -0.2952
  185SAPI  H16Y21280   2.961  -0.142   8.748  1.6914 -0.9548  0.2318
  185SAPI  C31721281   2.777  -0.168   8.626 -0.9455 -0.4583 -0.3044
  185SAPI  H17X21282   2.699  -0.101   8.670  0.3048 -0.3847  1.9436
  185SAPI  H17Y21283   2.719  -0.250   8.579  1.2696 -0.9405 -2.3878
  185SAPI  C31821284   2.827  -0.086   8.504 -0.1237  0.0132  0.2439
  185SAPI  H18X21285   2.868   0.010   8.543 -1.2067  0.7773 -0.4504
  185SAPI  H18Y21286   2.743  -0.063   8.435  1.7259  3.1994 -1.1292
  185SAPI  H18Z21287   2.907  -0.139   8.448 -1.3665  0.3690 -1.9905
  186SAPI   C1221288   4.478   3.766  11.027 -0.3446  0.3828 -0.1205
  186SAPI    H221289   4.404   3.782  11.108 -0.8304 -1.4149 -0.1778
  186SAPI    O221290   4.605   3.790  11.077  0.2703 -0.1294 -0.7028
  186SAPI   HO221291   4.612   3.882  11.101 -0.2695  0.2043 -1.7618
  186SAPI   C1321292   4.472   3.625  10.982 -0.2125 -0.7761  0.9937
  186SAPI    H321293   4.369   3.611  10.943  0.2267 -1.1426 -0.0577
  186SAPI    O321294   4.486   3.539  11.097 -0.4138  0.6107  0.4979
  186SAPI   HO321295   4.528   3.580  11.173 -1.8564  1.4484  0.8839
  186SAPI   C1421296   4.571   3.590  10.872 -0.3466  0.2714 -0.1811
  186SAPI    H421297   4.675   3.609  10.906 -0.1198  2.0768 -1.6941
  186SAPI    O421298   4.555   3.449  10.835  0.2413  0.1875 -0.2897
  186SAPI   HO421299   4.641   3.420  10.805  1.0401 -1.3435  3.0205
  186SAPI   C1521300   4.540   3.679  10.756 -0.4263 -0.0530 -0.1871
  186SAPI    H521301   4.434   3.657  10.736 -0.1379 -0.3177 -1.5257
  186SAPI    O521302   4.620   3.656  10.641 -0.0111 -0.3367  0.5750
  186SAPI   HO521303   4.568   3.602  10.581  0.6973 -0.4846  0.0901
  186SAPI   C1621304   4.549   3.825  10.798 -0.3533  0.2028 -0.2822
  186SAPI    H621305   4.651   3.846  10.840 -0.2581 -1.1604  0.2186
  186SAPI    O621306   4.520   3.916  10.691 -0.2910 -0.1263  0.1106
  186SAPI   HO621307   4.503   4.000  10.736 -0.0382  0.1096 -0.2335
  186SAPI   C1121308   4.452   3.862  10.914  0.5665  0.0503  0.5837
  186SAPI    H121309   4.348   3.851  10.877  1.2572 -1.2111 -1.0949
  186SAPI     P21310   4.357   4.110  10.987 -0.2610 -0.3549 -0.0309
  186SAPI   O1321311   4.413   4.230  11.049  0.0729  0.4205  0.1629
  186SAPI   O1421312   4.237   4.043  11.043  0.2150  0.4258 -0.1325
  186SAPI   O1221313   4.476   3.995  10.964 -0.5358  0.2535  0.0485
  186SAPI   O1121314   4.323   4.146  10.836  0.0565 -0.2320 -0.0599
  186SAPI    C121315   4.420   4.220  10.757 -0.3855 -0.0193  0.1812
  186SAPI    HA21316   4.520   4.185  10.792 -1.4388 -1.0635  2.4173
  186SAPI    HB21317   4.407   4.191  10.651 -0.4542 -1.5574  0.5793
  186SAPI    C221318   4.414   4.378  10.768 -0.1549 -0.8446 -0.1276
  186SAPI    HS21319   4.422   4.406  10.875  1.6492  1.6871 -0.8171
  186SAPI   O2121320   4.289   4.422  10.710 -0.1882 -0.3827  0.5097
  186SAPI   C2121321   4.257   4.553  10.690  0.4279  0.6518  0.2229
  186SAPI   O2221322   4.316   4.646  10.742  0.1088 -0.0861 -0.3697
  186SAPI   C2221323   4.137   4.560  10.608 -0.2337  0.1511  0.2766
  186SAPI   H2R21324   4.062   4.490  10.650 -1.8087  1.1675 -0.7223
  186SAPI   H2S21325   4.090   4.659  10.630 -1.4964 -0.6382  1.3087
  186SAPI    C321326   4.540   4.437  10.696  0.2961 -0.6979 -0.7732
  186SAPI    HX21327   4.631   4.403  10.750 -1.8129  0.0766  3.7597
  186SAPI    HY21328   4.535   4.547  10.709  0.3037 -0.8787  1.0159
  186SAPI   O3121329   4.547   4.398  10.554  0.1093  0.2201  0.3556
  186SAPI   C3121330   4.664   4.426  10.494 -0.4928  0.4008 -0.2438
  186SAPI   O3221331   4.755   4.488  10.541  0.0929 -0.0552  0.4019
  186SAPI   C3221332   4.660   4.367  10.353 -0.3425  0.0249 -0.3267
  186SAPI   H2X21333   4.620   4.263  10.354  1.5262 -0.7296  0.1764
  186SAPI   H2Y21334   4.764   4.364  10.312 -0.8846 -0.1706 -1.7714
  186SAPI   C2321335   4.163   4.516  10.460  0.4496 -0.1213 -0.4070
  186SAPI   H3R21336   4.061   4.499  10.419  0.0210 -0.3840  0.7185
  186SAPI   H3S21337   4.226   4.425  10.465  2.2795  1.1676  3.1144
  186SAPI   C2421338   4.234   4.618  10.369  0.0430  0.1757 -0.4801
  186SAPI   H4R21339   4.254   4.566  10.273 -0.2137 -1.8931  0.5250
  186SAPI   H4S21340   4.331   4.651  10.411 -0.4310 -0.9317  1.6509
  186SAPI   C2521341   4.119   4.722  10.338  0.8555  0.7521 -0.0833
  186SAPI   H5R21342   4.081   4.782  10.422 -1.0452  0.2622 -0.5420
  186SAPI   C2621343   4.066   4.748  10.215 -0.0853 -0.1051 -0.1631
  186SAPI   H6R21344   3.980   4.817  10.214  0.2176  0.3983  2.2962
  186SAPI   C2721345   4.107   4.696  10.079  0.0460  0.4029  0.0584
  186SAPI   H7R21346   4.023   4.630  10.051  0.8759 -0.4678 -0.4150
  186SAPI   H7S21347   4.196   4.631  10.094  0.7918  1.2318 -0.6455
  186SAPI   C2821348   4.137   4.822   9.998  0.5784  0.1833  0.3094
  186SAPI   H8R21349   4.209   4.898  10.034 -1.4413  1.8859  0.9489
  186SAPI   C2921350   4.083   4.860   9.881  0.1025 -1.3927 -0.2622
  186SAPI   H9R21351   4.117   4.957   9.842  4.2921 -1.9608  1.4479
  186SAPI  C21021352   3.981   4.782   9.805  0.5703  1.3676 -0.3470
  186SAPI  H10R21353   3.907   4.764   9.886 -0.8522 -2.5608 -2.2333
  186SAPI  H10S21354   4.006   4.682   9.763 -4.3512  0.0434 -0.7033
  186SAPI  C21121355   3.911   4.855   9.690  0.3225 -0.0696 -0.2166
  186SAPI  H11R21356   3.830   4.926   9.714  2.2363  1.8660  0.9201
  186SAPI  C21221357   3.954   4.868   9.564  0.3295 -0.4853  0.5406
  186SAPI  H12R21358   3.893   4.919   9.488  1.6770  0.9625  0.3589
  186SAPI  C21321359   4.080   4.804   9.518  0.0997 -0.0720 -0.3941
  186SAPI  H13R21360   4.152   4.768   9.595 -3.0640 -1.8480  1.9659
  186SAPI  H13S21361   4.131   4.882   9.457  0.6524 -0.7364 -0.8055
  186SAPI  C21421362   4.040   4.681   9.448 -0.1777 -0.3701  0.2078
  186SAPI  H14R21363   4.051   4.587   9.504  2.3506 -1.7396 -2.2895
  186SAPI  C21521364   4.004   4.667   9.320  0.5081 -0.0823 -0.7421
  186SAPI  H15R21365   3.995   4.564   9.282  3.0710 -1.1157  1.0865
  186SAPI  C21621366   3.992   4.768   9.215 -0.3052 -0.2651 -0.2764
  186SAPI  H16R21367   4.011   4.872   9.249 -1.1997 -0.4326  0.7971
  186SAPI  H16S21368   3.883   4.769   9.192 -0.0019  0.1570 -1.7883
  186SAPI  C21721369   4.060   4.752   9.077 -0.1618 -0.0945  0.1331
  186SAPI  H17R21370   4.019   4.833   9.013  3.2570  0.4411 -1.6352
  186SAPI  H17S21371   4.033   4.660   9.022  2.4677 -0.9748  0.1518
  186SAPI  C21821372   4.215   4.768   9.078  0.7252  0.9938  0.2109
  186SAPI  H18R21373   4.246   4.746   8.974 -0.1600 -2.1037  0.4778
  186SAPI  H18S21374   4.259   4.690   9.143 -3.0121 -1.8180 -0.2660
  186SAPI  C21921375   4.270   4.911   9.113 -0.1326 -0.1399  0.2478
  186SAPI  H19R21376   4.225   4.948   9.208 -1.7980  0.3588 -0.6872
  186SAPI  H19S21377   4.230   4.965   9.024  3.8766  1.2882 -0.8760
  186SAPI  C22021378   4.424   4.926   9.110 -0.0661  0.4586 -0.4853
  186SAPI  H20R21379   4.448   4.878   9.012 -0.8675 -0.5091 -0.2333
  186SAPI  H20S21380   4.475   4.862   9.185  1.1657  2.5041  0.4979
  186SAPI  H20T21381   4.458   5.031   9.117  0.0374  0.3876  0.1113
  186SAPI   C3321382   4.572   4.453  10.258 -0.5894  0.2350 -0.0911
  186SAPI   H3X21383   4.590   4.562  10.264 -2.3610  0.6325 -1.1941
  186SAPI   H3Y21384   4.466   4.433  10.286 -0.3991 -1.2229 -0.3084
  186SAPI   C3421385   4.582   4.383  10.115 -0.0539 -0.3104  0.0254
  186SAPI   H4X21386   4.541   4.281  10.132  2.9609 -1.3811  1.6083
  186SAPI   H4Y21387   4.688   4.369  10.086 -0.9073 -3.8483 -1.9189
  186SAPI   C3521388   4.512   4.476  10.023 -0.4352 -0.4804  0.6645
  186SAPI   H5X21389   4.567   4.573  10.023 -0.5049 -0.4404  0.4250
  186SAPI   H5Y21390   4.409   4.493  10.060  0.0118 -0.6036  1.9915
  186SAPI   C3621391   4.517   4.429   9.876 -0.0364  0.0270 -0.4241
  186SAPI   H6X21392   4.477   4.325   9.874 -0.9061  0.3437  0.0783
  186SAPI   H6Y21393   4.623   4.416   9.845 -0.7622 -1.4021 -2.6098
  186SAPI   C3721394   4.433   4.514   9.786  0.0938  0.0456 -0.1723
  186SAPI   H7X21395   4.489   4.610   9.786 -0.2006  0.2724  2.2937
  186SAPI   H7Y21396   4.337   4.529   9.839  0.3767  0.5338  0.2087
  186SAPI   C3821397   4.412   4.468   9.641  0.3180 -0.8421  0.1277
  186SAPI   H8X21398   4.336   4.533   9.592  0.3275 -2.0508 -1.5573
  186SAPI   H8Y21399   4.377   4.363   9.643 -0.2973 -0.6697 -0.8707
  186SAPI   C3921400   4.534   4.474   9.545  0.1574 -0.8889  0.5472
  186SAPI   H9X21401   4.583   4.375   9.552  0.3742 -0.7003  1.9277
  186SAPI   H9Y21402   4.608   4.552   9.575 -0.9108 -0.3981  2.0395
  186SAPI  C31021403   4.488   4.506   9.404 -0.0436  0.0348  0.1527
  186SAPI  H10X21404   4.424   4.597   9.409 -3.3357 -2.0724 -0.6951
  186SAPI  H10Y21405   4.415   4.432   9.366  1.3143 -0.7887 -0.9605
  186SAPI  C31121406   4.606   4.514   9.312  0.3621 -0.0549  0.1681
  186SAPI  H11X21407   4.662   4.418   9.308 -0.1819 -0.3570 -0.7351
  186SAPI  H11Y21408   4.668   4.585   9.369 -1.7507  0.9556  1.3351
  186SAPI  C31221409   4.576   4.581   9.180 -0.4243  0.1678 -0.0267
  186SAPI  H12X21410   4.509   4.667   9.200  0.2169  0.8323 -0.7047
  186SAPI  H12Y21411   4.513   4.513   9.119 -0.8534 -1.3406  1.9831
  186SAPI  C31321412   4.707   4.621   9.114 -0.2107 -0.3385  0.1542
  186SAPI  H13X21413   4.768   4.528   9.109 -0.3638 -0.4630  0.5656
  186SAPI  H13Y21414   4.752   4.695   9.184 -0.5818 -0.9981  1.0995
  186SAPI  C31421415   4.699   4.678   8.971  0.1933 -0.5220 -0.4513
  186SAPI  H14X21416   4.800   4.712   8.940  0.8080 -1.7676  0.0985
  186SAPI  H14Y21417   4.640   4.772   8.979 -0.7788 -1.0961 -0.7583
  186SAPI  C31521418   4.643   4.579   8.866  0.4044 -0.1719  0.8047
  186SAPI  H15X21419   4.542   4.544   8.895  0.6204 -1.1112  0.4684
  186SAPI  H15Y21420   4.705   4.487   8.856 -1.1040 -1.4971  2.9853
  186SAPI  C31621421   4.639   4.631   8.718  0.2803 -0.8097 -0.8051
  186SAPI  H16X21422   4.545   4.687   8.702 -0.4695 -1.1648  1.8619
  186SAPI  H16Y21423   4.622   4.545   8.649  0.2843 -0.0413 -1.7963
  186SAPI  C31721424   4.764   4.709   8.671  0.5613 -0.4832 -0.2419
  186SAPI  H17X21425   4.778   4.808   8.720  0.8939 -0.9052  0.5265
  186SAPI  H17Y21426   4.739   4.738   8.566 -0.0368 -1.0615 -0.2576
  186SAPI  C31821427   4.888   4.624   8.673 -0.5966  0.0526  0.4227
  186SAPI  H18X21428   4.861   4.526   8.628 -4.0748  1.7487 -1.5932
  186SAPI  H18Y21429   4.932   4.606   8.773  1.1742 -0.4560 -0.3943
  186SAPI  H18Z21430   4.969   4.670   8.611 -2.0610 -0.7260 -2.2562
  187SAPI   C1221431   1.670   4.722   6.389 -0.4498  0.4271 -0.2852
  187SAPI    H221432   1.700   4.807   6.454 -0.7666  0.2341  0.1177
  187SAPI    O221433   1.652   4.777   6.260  0.1979 -0.2232 -0.2040
  187SAPI   HO221434   1.560   4.798   6.247  0.3130  0.8064  0.4941
  187SAPI   C1321435   1.773   4.615   6.388 -0.0483  0.6772  0.3568
  187SAPI    H321436   1.785   4.558   6.483 -1.8080 -2.4896 -1.1804
  187SAPI    O321437   1.892   4.674   6.351 -0.4857 -0.2089 -0.2050
  187SAPI   HO321438   1.877   4.716   6.266 -0.0930  0.8011  0.2202
  187SAPI   C1421439   1.733   4.506   6.289 -0.1991 -0.0676  0.3515
  187SAPI    H421440   1.715   4.554   6.191  0.9285 -1.0923 -0.3881
  187SAPI    O421441   1.837   4.407   6.278  0.3606  0.1863 -0.0267
  187SAPI   HO421442   1.885   4.436   6.200 -0.1881  2.1694  0.3257
  187SAPI   C1521443   1.594   4.446   6.320 -0.3368  0.3892 -0.2157
  187SAPI    H521444   1.608   4.396   6.418  0.9253  0.0617 -0.5351
  187SAPI    O521445   1.549   4.345   6.231 -0.0089 -0.0294 -0.4111
  187SAPI   HO521446   1.492   4.293   6.288  1.3843 -0.3274  0.7668
  187SAPI   C1621447   1.494   4.557   6.337 -0.0508  0.2289  0.1058
  187SAPI    H621448   1.470   4.604   6.239 -1.0085 -0.5250 -0.0381
  187SAPI    O621449   1.374   4.500   6.383  0.3070 -0.0931 -0.6927
  187SAPI   HO621450   1.312   4.574   6.389 -0.5346 -0.7341 -1.2450
  187SAPI   C1121451   1.539   4.667   6.436 -0.4274 -0.4764 -0.1745
  187SAPI    H121452   1.570   4.627   6.535  0.5977  0.9686  0.1116
  187SAPI     P21453   1.317   4.791   6.530  0.0433  0.3694 -0.0684
  187SAPI   O1321454   1.224   4.684   6.494  0.2862  0.0933 -0.1949
  187SAPI   O1421455   1.263   4.929   6.536 -0.0636 -0.6356  0.3457
  187SAPI   O1221456   1.452   4.778   6.440 -0.2615 -0.0742  0.9670
  187SAPI   O1121457   1.374   4.756   6.669  0.6701 -0.0542 -0.3169
  187SAPI    C121458   1.490   4.813   6.725 -0.3915 -0.0705 -0.0069
  187SAPI    HA21459   1.590   4.773   6.697  0.5052  1.2702  1.1374
  187SAPI    HB21460   1.497   4.920   6.699 -0.3162  0.0162  0.3602
  187SAPI    C221461   1.476   4.815   6.873 -0.8037 -0.3836 -0.2641
  187SAPI    HS21462   1.423   4.908   6.901  0.8369  0.9545 -1.3701
  187SAPI   O2121463   1.607   4.805   6.937 -0.0613 -0.1832 -0.4978
  187SAPI   C2121464   1.672   4.911   6.931 -0.2873  0.0452 -0.1530
  187SAPI   O2221465   1.648   5.024   6.895 -1.5335 -0.3058  0.0397
  187SAPI   C2221466   1.802   4.869   6.997 -0.6243 -0.4729 -0.2350
  187SAPI   H2R21467   1.840   4.774   6.954 -0.0167  0.8731 -2.9256
  187SAPI   H2S21468   1.877   4.950   6.986  0.5905 -1.6623 -0.9830
  187SAPI    C321469   1.392   4.704   6.926  0.9217  0.1011  0.1058
  187SAPI    HX21470   1.434   4.607   6.891 -2.3638 -1.7377  0.8423
  187SAPI    HY21471   1.290   4.708   6.884  1.0814 -2.7881 -0.7847
  187SAPI   O3121472   1.377   4.702   7.066 -0.0588 -0.3904  0.1889
  187SAPI   C3121473   1.320   4.799   7.129  0.5089  0.1584  0.4992
  187SAPI   O3221474   1.247   4.883   7.081  0.0541  0.1993 -0.1738
  187SAPI   C3221475   1.347   4.790   7.281 -0.2750 -0.3915 -0.3630
  187SAPI   H2X21476   1.455   4.762   7.284 -0.4375 -1.5086 -2.6744
  187SAPI   H2Y21477   1.294   4.705   7.329  1.1958 -0.6465  0.8885
  187SAPI   C2321478   1.780   4.846   7.148 -0.3166  0.0271 -0.7146
  187SAPI   H3R21479   1.870   4.797   7.192  1.5083  3.0324 -0.7730
  187SAPI   H3S21480   1.690   4.788   7.177 -0.8618  1.8319  1.5810
  187SAPI   C2421481   1.776   4.969   7.243 -0.2657 -0.3317  0.2668
  187SAPI   H4R21482   1.699   5.036   7.199  0.3922 -0.7007 -1.5553
  187SAPI   H4S21483   1.879   5.010   7.234 -0.0421 -1.0351 -0.5390
  187SAPI   C2521484   1.746   4.949   7.391  0.9483 -0.0592  0.4493
  187SAPI   H5R21485   1.742   4.844   7.424 -0.8466 -0.5344 -1.1446
  187SAPI   C2621486   1.711   5.054   7.475 -0.0332  0.6244  0.6816
  187SAPI   H6R21487   1.698   5.042   7.584 -2.5664 -0.3958  0.3496
  187SAPI   C2721488   1.685   5.196   7.425 -0.7810 -0.2606 -0.6641
  187SAPI   H7R21489   1.715   5.207   7.319  0.4890 -0.7205 -0.3717
  187SAPI   H7S21490   1.748   5.268   7.482 -1.5181 -0.1067 -0.0234
  187SAPI   C2821491   1.548   5.240   7.452  0.3309 -0.0945 -0.0993
  187SAPI   H8R21492   1.469   5.194   7.391  0.1164 -0.7570  0.6567
  187SAPI   C2921493   1.508   5.323   7.549 -0.7294 -0.2216 -0.1250
  187SAPI   H9R21494   1.400   5.345   7.550 -0.6661  0.1775 -1.1223
  187SAPI  C21021495   1.579   5.400   7.660  0.2798 -0.0231  0.3475
  187SAPI  H10R21496   1.504   5.429   7.738  1.2813  2.9061  0.3474
  187SAPI  H10S21497   1.622   5.493   7.617 -0.2425 -0.5097 -1.2872
  187SAPI  C21121498   1.688   5.330   7.728 -0.1729 -0.0083 -0.5840
  187SAPI  H11R21499   1.792   5.353   7.702 -0.2726  0.4402 -0.5946
  187SAPI  C21221500   1.669   5.239   7.832  0.1728 -0.8894  0.1096
  187SAPI  H12R21501   1.757   5.187   7.875 -0.5990 -0.9545  1.6764
  187SAPI  C21321502   1.532   5.191   7.881 -0.3529  0.4796 -0.3723
  187SAPI  H13R21503   1.459   5.204   7.798 -2.4441  0.0671  1.3115
  187SAPI  H13S21504   1.494   5.240   7.974  2.3217  0.1316  1.0197
  187SAPI  C21421505   1.543   5.045   7.911  0.3230  0.1165 -0.2023
  187SAPI  H14R21506   1.526   4.985   7.820  0.7539 -0.8365  0.3275
  187SAPI  C21521507   1.566   4.990   8.035  0.6138  0.1107  0.1247
  187SAPI  H15R21508   1.569   4.880   8.040  1.0543  0.1259  0.2404
  187SAPI  C21621509   1.580   5.066   8.166  0.4867 -0.9058 -0.4453
  187SAPI  H16R21510   1.516   5.010   8.238 -0.8632 -0.9908 -1.6842
  187SAPI  H16S21511   1.533   5.167   8.158  1.2700 -0.3750  1.1558
  187SAPI  C21721512   1.721   5.087   8.223  0.7047  0.1927  0.8518
  187SAPI  H17R21513   1.792   5.128   8.148  0.6146  0.0781  0.7029
  187SAPI  H17S21514   1.759   4.989   8.260  1.0365  0.6885  1.8838
  187SAPI  C21821515   1.724   5.187   8.335  0.2632 -0.1433 -0.1034
  187SAPI  H18R21516   1.676   5.277   8.291  2.8985  0.8031 -1.2484
  187SAPI  H18S21517   1.830   5.219   8.341  0.4359 -0.7524  0.1815
  187SAPI  C21921518   1.673   5.140   8.475 -0.2634 -0.2168  0.2313
  187SAPI  H19R21519   1.706   5.035   8.492 -1.2954 -0.4133  1.1369
  187SAPI  H19S21520   1.563   5.124   8.471 -0.3772  0.2635  1.1478
  187SAPI  C22021521   1.721   5.225   8.592  0.7387  0.7261 -0.0485
  187SAPI  H20R21522   1.669   5.322   8.579 -1.1854 -0.2306  0.0526
  187SAPI  H20S21523   1.831   5.239   8.585  0.7929 -0.4763 -2.4948
  187SAPI  H20T21524   1.689   5.187   8.692  1.4853 -2.9997 -1.0677
  187SAPI   C3321525   1.327   4.933   7.350 -1.4217 -0.1650 -0.2789
  187SAPI   H3X21526   1.221   4.967   7.341 -1.1717  0.5643 -0.4558
  187SAPI   H3Y21527   1.390   5.004   7.293  1.8656 -3.9478 -1.7870
  187SAPI   C3421528   1.367   4.928   7.503  0.4758 -0.2714 -0.1798
  187SAPI   H4X21529   1.344   5.024   7.555 -2.0580 -1.2602  0.7301
  187SAPI   H4Y21530   1.472   4.894   7.515 -0.0974 -1.6923  1.2015
  187SAPI   C3521531   1.271   4.818   7.560 -0.3993  0.1961  0.0169
  187SAPI   H5X21532   1.334   4.728   7.539  0.8839  1.5363 -2.2032
  187SAPI   H5Y21533   1.175   4.820   7.504 -1.2197  0.4471  1.3870
  187SAPI   C3621534   1.239   4.846   7.710  0.6819 -0.1665 -0.0450
  187SAPI   H6X21535   1.334   4.875   7.761  1.3433  0.0137 -1.3458
  187SAPI   H6Y21536   1.211   4.754   7.766  0.0137 -0.7570 -1.3004
  187SAPI   C3721537   1.143   4.962   7.745  0.1187 -0.1000  0.6668
  187SAPI   H7X21538   1.056   4.949   7.678 -1.4847  1.4333  2.3404
  187SAPI   H7Y21539   1.189   5.059   7.715 -0.1340 -0.5534 -1.3655
  187SAPI   C3821540   1.091   4.973   7.888  0.4738  1.0290 -0.5432
  187SAPI   H8X21541   1.091   4.873   7.938 -0.7994  0.2714 -1.9812
  187SAPI   H8Y21542   0.982   4.992   7.897 -0.4422 -2.2729 -2.6034
  187SAPI   C3921543   1.169   5.074   7.971  0.1428 -0.1733  0.0338
  187SAPI   H9X21544   1.123   5.168   7.932 -0.1960 -0.5911 -0.5910
  187SAPI   H9Y21545   1.279   5.073   7.960  0.4236  0.1936  2.2579
  187SAPI  C31021546   1.132   5.064   8.125  0.2833 -0.6534  0.3090
  187SAPI  H10X21547   1.156   4.965   8.169  0.4451 -0.2431  1.1520
  187SAPI  H10Y21548   1.023   5.084   8.126  0.1328 -0.3841 -3.5715
  187SAPI  C31121549   1.217   5.167   8.212  0.5720 -0.3903 -0.1292
  187SAPI  H11X21550   1.212   5.269   8.168 -0.3698 -1.0758 -1.7328
  187SAPI  H11Y21551   1.320   5.129   8.224  0.8394  0.8322  1.7258
  187SAPI  C31221552   1.154   5.189   8.346  0.5348  0.2607  0.2949
  187SAPI  H12X21553   1.113   5.102   8.401  0.4104  0.0999 -0.0522
  187SAPI  H12Y21554   1.069   5.258   8.326 -0.1711 -0.9700 -1.2091
  187SAPI  C31321555   1.247   5.253   8.454 -0.1660 -0.1913  0.1782
  187SAPI  H13X21556   1.296   5.348   8.424  0.2753 -0.4197  0.1650
  187SAPI  H13Y21557   1.330   5.181   8.469 -0.3108 -0.9559 -2.3047
  187SAPI  C31421558   1.165   5.277   8.590 -0.1950  0.1429  0.1813
  187SAPI  H14X21559   1.134   5.179   8.632  1.6830 -1.1296 -1.2439
  187SAPI  H14Y21560   1.078   5.331   8.547  0.6591 -0.2516 -2.1939
  187SAPI  C31521561   1.241   5.336   8.710  0.0219  0.2061 -0.1531
  187SAPI  H15X21562   1.292   5.432   8.688 -1.5896  1.5062  1.4553
  187SAPI  H15Y21563   1.319   5.267   8.747  0.2639  1.0944  1.0934
  187SAPI  C31621564   1.145   5.384   8.822 -0.1982  0.3509  0.2138
  187SAPI  H16X21565   1.053   5.323   8.833 -1.7287  1.9667 -2.5561
  187SAPI  H16Y21566   1.100   5.485   8.809 -3.0286 -0.8611  0.0104
  187SAPI  C31721567   1.214   5.398   8.953  0.3098  0.1186  0.5875
  187SAPI  H17X21568   1.301   5.465   8.936 -0.3975  0.4722 -1.9819
  187SAPI  H17Y21569   1.255   5.300   8.989  1.1070  1.1371  2.6494
  187SAPI  C31821570   1.115   5.441   9.074  0.0345 -0.1377 -0.2594
  187SAPI  H18X21571   1.047   5.355   9.097  0.5924  0.0149  2.2391
  187SAPI  H18Y21572   1.050   5.526   9.044  0.1700 -0.2236 -0.8084
  187SAPI  H18Z21573   1.159   5.467   9.173  1.7868 -2.2376 -0.4019
  188SAPI   C1221574   2.595   1.518   6.554 -0.6208  0.3864  0.0461
  188SAPI    H221575   2.554   1.432   6.612 -0.5748 -0.1725 -0.7277
  188SAPI    O221576   2.548   1.494   6.417  0.0367  0.3945 -0.4344
  188SAPI   HO221577   2.595   1.414   6.391  1.4211  0.7794  0.7231
  188SAPI   C1321578   2.553   1.640   6.619 -0.1632 -0.6053 -0.0543
  188SAPI    H321579   2.589   1.642   6.724  1.7242  2.1123 -0.6446
  188SAPI    O321580   2.409   1.646   6.622  0.2645  0.0681  0.1760
  188SAPI   HO321581   2.383   1.714   6.685  0.9639  0.6961 -0.2011
  188SAPI   C1421582   2.608   1.759   6.535 -0.1465 -0.1682 -0.5775
  188SAPI    H421583   2.572   1.735   6.433 -3.0912  0.7957  0.1269
  188SAPI    O421584   2.548   1.889   6.569 -0.3738  0.0894  0.0838
  188SAPI   HO421585   2.473   1.895   6.509  0.4625 -0.6174 -1.0514
  188SAPI   C1521586   2.756   1.753   6.529  0.4121 -0.4313 -0.1397
  188SAPI    H521587   2.795   1.760   6.633  2.3078 -0.0024 -0.8458
  188SAPI    O521588   2.814   1.868   6.468  0.4099  0.4687 -0.1350
  188SAPI   HO521589   2.904   1.846   6.444 -0.1669 -1.0628 -1.0845
  188SAPI   C1621590   2.811   1.622   6.478  0.5539 -0.1362  0.1515
  188SAPI    H621591   2.782   1.603   6.373  0.8571  0.7440 -0.0928
  188SAPI    O621592   2.956   1.620   6.490 -0.1073  0.1683  0.2807
  188SAPI   HO621593   2.980   1.531   6.518 -1.5391 -0.9794 -1.8404
  188SAPI   C1121594   2.748   1.506   6.562 -0.3208 -0.0487  0.2002
  188SAPI    H121595   2.785   1.524   6.666  1.4664 -0.1030 -0.3959
  188SAPI     P21596   2.910   1.298   6.576  0.1909  0.2509 -0.2305
  188SAPI   O1321597   3.004   1.403   6.616  0.0174 -0.7338  0.3605
  188SAPI   O1421598   2.957   1.195   6.478  0.6888 -0.0270 -0.0303
  188SAPI   O1221599   2.783   1.377   6.514  0.3462  0.0004 -0.1246
  188SAPI   O1121600   2.851   1.230   6.700  0.6211  0.2225 -0.1185
  188SAPI    C121601   2.722   1.182   6.710  0.2045  0.2262 -0.5694
  188SAPI    HA21602   2.663   1.265   6.752 -0.1439 -0.7204  0.8757
  188SAPI    HB21603   2.677   1.169   6.609 -0.8970  1.8382 -0.3245
  188SAPI    C221604   2.710   1.064   6.811 -0.5265  0.1606 -0.4021
  188SAPI    HS21605   2.604   1.031   6.805 -0.6569  0.1959  1.3139
  188SAPI   O2121606   2.754   1.098   6.944 -0.2664 -0.1991 -0.2970
  188SAPI   C2121607   2.661   1.145   7.023  0.2255 -0.9821  0.5570
  188SAPI   O2221608   2.539   1.150   7.010 -0.4531  0.1712 -0.1061
  188SAPI   C2221609   2.742   1.221   7.127  0.1776  0.5336  0.1607
  188SAPI   H2R21610   2.807   1.150   7.182  0.7162 -0.5253 -1.7370
  188SAPI   H2S21611   2.821   1.284   7.080  0.0760  1.2061  0.8760
  188SAPI    C321612   2.792   0.943   6.762  0.2834  0.3387 -0.5232
  188SAPI    HX21613   2.900   0.969   6.760  0.2077  0.6317 -1.8458
  188SAPI    HY21614   2.763   0.918   6.658 -0.8648 -1.8937  0.2582
  188SAPI   O3121615   2.774   0.829   6.841 -0.2361  0.5716 -0.7111
  188SAPI   C3121616   2.666   0.745   6.820 -0.6927  0.2505  0.1843
  188SAPI   O3221617   2.584   0.764   6.733  0.6926 -1.1187 -0.7807
  188SAPI   C3221618   2.647   0.657   6.951 -0.1713 -0.1576  0.3223
  188SAPI   H2X21619   2.741   0.632   7.005 -0.1792 -1.0562 -0.0523
  188SAPI   H2Y21620   2.598   0.562   6.920 -1.8768  1.6731 -3.1258
  188SAPI   C2321621   2.650   1.292   7.224 -0.1351 -0.3493 -0.7211
  188SAPI   H3R21622   2.561   1.232   7.256 -1.1076  0.1766 -2.3125
  188SAPI   H3S21623   2.604   1.373   7.163 -1.4819 -1.5049 -1.3052
  188SAPI   C2421624   2.729   1.347   7.345  0.1536 -0.1956  0.3746
  188SAPI   H4R21625   2.656   1.415   7.393  1.1903  0.6689  0.7481
  188SAPI   H4S21626   2.813   1.401   7.298  0.3734 -0.5497  0.3516
  188SAPI   C2521627   2.784   1.239   7.449  0.0542  0.1644 -0.4992
  188SAPI   H5R21628   2.776   1.135   7.414 -0.0959  0.4262 -1.2781
  188SAPI   C2621629   2.831   1.260   7.573  0.7095  0.0922  0.0217
  188SAPI   H6R21630   2.846   1.162   7.620 -0.5769 -0.3389 -0.4278
  188SAPI   C2721631   2.833   1.398   7.644  0.5799 -0.3071 -0.4004
  188SAPI   H7R21632   2.784   1.375   7.742  0.1806 -0.7716 -0.7059
  188SAPI   H7S21633   2.763   1.479   7.613  0.0274 -1.7821 -3.3739
  188SAPI   C2821634   2.968   1.458   7.652  0.4770  0.3608 -0.2871
  188SAPI   H8R21635   3.049   1.402   7.603  0.7055 -0.7471  1.2711
  188SAPI   C2921636   3.002   1.565   7.733 -0.0580 -0.6952 -0.5516
  188SAPI   H9R21637   3.104   1.602   7.748 -0.4153 -0.1337  0.5915
  188SAPI  C21021638   2.900   1.649   7.809  0.5533 -0.7988 -0.2796
  188SAPI  H10R21639   2.887   1.619   7.915 -5.0639 -0.3219 -0.5578
  188SAPI  H10S21640   2.797   1.618   7.782  0.0019 -0.6533  1.5541
  188SAPI  C21121641   2.897   1.803   7.802  0.1285 -0.3888 -0.1007
  188SAPI  H11R21642   2.897   1.840   7.906  0.4990  0.3065 -0.3435
  188SAPI  C21221643   2.890   1.888   7.701 -0.2540 -0.5078 -0.1242
  188SAPI  H12R21644   2.897   1.994   7.728  0.2368 -0.9358  1.5031
  188SAPI  C21321645   2.877   1.853   7.560 -0.1526  0.5593 -0.0433
  188SAPI  H13R21646   2.892   1.745   7.539  1.3240  0.6442  0.4419
  188SAPI  H13S21647   2.965   1.903   7.514  0.2622  2.3787  2.4962
  188SAPI  C21421648   2.751   1.912   7.502  0.1512 -0.3988  0.4820
  188SAPI  H14R21649   2.672   1.940   7.573  1.0545  0.0922  1.3343
  188SAPI  C21521650   2.726   1.925   7.369  0.3530 -0.8271 -0.2631
  188SAPI  H15R21651   2.637   1.978   7.332  0.8838  0.6981  0.5548
  188SAPI  C21621652   2.825   1.887   7.269 -0.3840  0.7017  1.0102
  188SAPI  H16R21653   2.912   1.830   7.308  0.2254 -0.5563 -1.9021
  188SAPI  H16S21654   2.866   1.979   7.220  1.5361  0.4684  2.0757
  188SAPI  C21721655   2.765   1.794   7.161  0.3946 -0.0198 -0.2485
  188SAPI  H17R21656   2.673   1.837   7.117  0.2473  2.5406  2.2603
  188SAPI  H17S21657   2.728   1.700   7.209  2.8253 -1.2116 -0.5776
  188SAPI  C21821658   2.866   1.769   7.048 -0.4216  0.3881  0.1982
  188SAPI  H18R21659   2.963   1.740   7.094 -0.6543 -1.8902 -0.5987
  188SAPI  H18S21660   2.883   1.867   6.999 -0.2369 -0.6480 -1.9187
  188SAPI  C21921661   2.822   1.678   6.934 -0.5167 -1.1570  1.4142
  188SAPI  H19R21662   2.896   1.695   6.853  0.5098  0.2659  2.5905
  188SAPI  H19S21663   2.729   1.732   6.905  1.3286  0.9112 -1.2742
  188SAPI  C22021664   2.808   1.534   6.962 -0.1588  0.1663 -0.0202
  188SAPI  H20R21665   2.797   1.474   6.869  0.9013  0.8428 -0.6034
  188SAPI  H20S21666   2.725   1.517   7.034 -1.3129  2.1934 -0.7818
  188SAPI  H20T21667   2.898   1.494   7.012 -1.2614 -1.1623  0.9802
  188SAPI   C3321668   2.541   0.715   7.044  0.1096 -0.2557  0.1965
  188SAPI   H3X21669   2.446   0.713   6.986  0.9751  0.8102 -1.3406
  188SAPI   H3Y21670   2.560   0.822   7.067  1.3247 -0.5091  0.4121
  188SAPI   C3421671   2.519   0.625   7.170  0.0590 -0.0298  0.6824
  188SAPI   H4X21672   2.524   0.521   7.130  2.5455  0.1095  0.4859
  188SAPI   H4Y21673   2.422   0.639   7.223 -0.8215 -0.4194 -0.7749
  188SAPI   C3521674   2.631   0.639   7.277  0.2818 -0.4665 -0.4960
  188SAPI   H5X21675   2.640   0.746   7.303 -0.4980  0.4991 -3.7073
  188SAPI   H5Y21676   2.732   0.603   7.247  1.0737  1.0356  0.2755
  188SAPI   C3621677   2.590   0.575   7.412  0.2815 -0.4870 -0.4254
  188SAPI   H6X21678   2.589   0.465   7.395 -1.2024 -0.1728 -2.7976
  188SAPI   H6Y21679   2.482   0.596   7.427  0.1011 -0.8905 -1.0886
  188SAPI   C3721680   2.685   0.598   7.534 -0.2422  0.4123 -0.3516
  188SAPI   H7X21681   2.683   0.709   7.547 -0.9341  0.0667  3.8278
  188SAPI   H7Y21682   2.788   0.570   7.502 -0.0085  0.6803  0.1458
  188SAPI   C3821683   2.633   0.522   7.657  0.8129  0.3270 -0.1814
  188SAPI   H8X21684   2.657   0.413   7.653  0.1739  0.0332  2.3694
  188SAPI   H8Y21685   2.525   0.538   7.676  0.7545 -0.5573  0.3439
  188SAPI   C3921686   2.691   0.576   7.787  0.4549 -0.1592 -0.0959
  188SAPI   H9X21687   2.658   0.678   7.813 -0.2893 -0.7040  1.2044
  188SAPI   H9Y21688   2.802   0.566   7.779  0.4327 -0.1536 -0.4404
  188SAPI  C31021689   2.642   0.496   7.917  0.2467 -0.1414  0.3128
  188SAPI  H10X21690   2.726   0.496   7.990  1.4076 -2.8333 -0.9037
  188SAPI  H10Y21691   2.619   0.393   7.884 -0.2143  0.1598 -0.3093
  188SAPI  C31121692   2.513   0.544   7.979 -0.4759 -0.2170  1.0007
  188SAPI  H11X21693   2.419   0.545   7.920  0.8009  2.6704 -1.2124
  188SAPI  H11Y21694   2.529   0.649   8.011 -0.4050 -0.0435  0.4123
  188SAPI  C31221695   2.473   0.465   8.099  0.4314 -0.2629 -0.6497
  188SAPI  H12X21696   2.560   0.451   8.168  2.1093 -1.8933 -2.9520
  188SAPI  H12Y21697   2.443   0.361   8.073  1.3188 -1.0418  1.1801
  188SAPI  C31321698   2.369   0.536   8.186 -0.1783 -0.3741  0.5648
  188SAPI  H13X21699   2.282   0.563   8.122  1.9855  1.8795 -1.6439
  188SAPI  H13Y21700   2.415   0.634   8.210  2.7344 -1.7291  0.9298
  188SAPI  C31421701   2.321   0.454   8.314  0.2864  0.2841  0.9815
  188SAPI  H14X21702   2.416   0.407   8.350 -0.5904 -1.3980  1.2040
  188SAPI  H14Y21703   2.251   0.368   8.300  3.1724 -2.2195  0.7956
  188SAPI  C31521704   2.279   0.547   8.434  0.4006  0.3162 -0.5064
  188SAPI  H15X21705   2.359   0.622   8.449 -0.7872  1.1866  1.8625
  188SAPI  H15Y21706   2.267   0.482   8.523 -0.4557  1.1050 -0.0334
  188SAPI  C31621707   2.137   0.599   8.420 -0.7423  0.2182  0.2338
  188SAPI  H16X21708   2.068   0.512   8.415 -2.0869  1.1961  0.9990
  188SAPI  H16Y21709   2.126   0.660   8.328 -3.1329  1.0313  0.9780
  188SAPI  C31721710   2.100   0.684   8.548 -0.8924  1.1672  0.2792
  188SAPI  H17X21711   2.201   0.711   8.587  0.5173 -2.3701 -0.5961
  188SAPI  H17Y21712   2.065   0.612   8.625 -1.7057  1.3726  0.1117
  188SAPI  C31821713   1.998   0.797   8.526 -0.2436  0.2247  0.7763
  188SAPI  H18X21714   2.036   0.867   8.448  0.6580 -2.0780 -0.9997
  188SAPI  H18Y21715   1.982   0.856   8.618  0.7265  1.0804  0.4087
  188SAPI  H18Z21716   1.902   0.748   8.500  0.6277  0.2799 -3.2639
  189POPC     N21717   2.314   3.351  11.016 -0.0161 -0.1519  0.0456
  189POPC   C1221718   2.262   3.477  10.949  0.0605  0.1639 -0.7603
  189POPC  H12A21719   2.343   3.546  10.930  1.2652 -0.6437  1.1132
  189POPC  H12B21720   2.189   3.530  11.008 -1.5059 -1.8550 -0.7809
  189POPC   C1321721   2.368   3.414  11.143  0.8870 -0.4970 -0.1030
  189POPC  H13A21722   2.286   3.434  11.211 -0.0304 -2.1226 -0.6571
  189POPC  H13B21723   2.419   3.334  11.193  0.4260 -1.6851 -1.4511
  189POPC  H13C21724   2.427   3.501  11.121  0.4789 -0.0187  0.6525
  189POPC   C1421725   2.208   3.252  11.055 -0.7036 -0.1819  0.8706
  189POPC  H14A21726   2.156   3.231  10.963  0.7329 -0.6475  0.1255
  189POPC  H14B21727   2.253   3.164  11.099 -1.3417  1.0431  4.2410
  189POPC  H14C21728   2.139   3.295  11.126 -2.2437  1.7839 -1.6515
  189POPC   C1521729   2.427   3.281  10.939 -0.0594 -0.7364  0.1905
  189POPC  H15A21730   2.384   3.231  10.854 -0.4914 -0.6658  0.3645
  189POPC  H15B21731   2.480   3.208  10.998  0.6873  0.3570  0.9076
  189POPC  H15C21732   2.494   3.360  10.910 -1.8377  1.5718  1.9081
  189POPC   C1121733   2.190   3.457  10.811  0.1735  0.7556 -0.2205
  189POPC  H11A21734   2.257   3.397  10.746 -0.7090  0.9118 -1.3089
  189POPC  H11B21735   2.174   3.555  10.761 -0.2913  1.2562  0.8795
  189POPC     P21736   1.929   3.440  10.875 -0.3756 -0.2516 -0.0035
  189POPC   O1321737   1.949   3.554  10.966 -0.2000 -0.3515  0.2234
  189POPC   O1421738   1.857   3.320  10.932  0.3208  0.2184  0.0471
  189POPC   O1221739   2.067   3.383  10.818  0.4134 -0.2429 -0.5149
  189POPC   O1121740   1.854   3.488  10.756  0.3907  0.3462  0.0769
  189POPC    C121741   1.904   3.527  10.631  0.1526 -0.7292  0.3940
  189POPC    HA21742   1.992   3.472  10.591  0.3227  0.5231 -1.0643
  189POPC    HB21743   1.945   3.631  10.640 -0.4529 -0.5154  0.7016
  189POPC    C221744   1.797   3.535  10.522  0.1834  0.7452  0.1723
  189POPC    HS21745   1.824   3.613  10.448 -0.1283 -0.5073 -1.2993
  189POPC   O2121746   1.669   3.581  10.585 -0.7524  0.3554  0.3889
  189POPC   C2121747   1.573   3.596  10.499 -0.3686 -0.2302  0.2638
  189POPC   O2221748   1.585   3.598  10.379  0.1660  0.4918 -0.1867
  189POPC   C2221749   1.438   3.632  10.561  0.5237 -0.3425  0.1217
  189POPC   H2R21750   1.426   3.591  10.664 -1.0678  1.5201  0.7349
  189POPC   H2S21751   1.360   3.576  10.505 -0.7590 -0.3031  1.7895
  189POPC    C321752   1.775   3.395  10.452  0.2885 -0.5369  0.2755
  189POPC    HX21753   1.682   3.395  10.391 -0.3524  1.8935  1.1033
  189POPC    HY21754   1.777   3.309  10.521  2.0563 -0.5144  0.3013
  189POPC   O3121755   1.882   3.379  10.353 -0.2921  0.1807  0.5510
  189POPC   C3121756   1.895   3.258  10.299 -0.1874 -0.5786  0.0959
  189POPC   O3221757   1.818   3.167  10.319  0.7428  0.0461 -0.1100
  189POPC   C3221758   2.029   3.251  10.228  0.5379 -0.1076  0.1014
  189POPC   H2X21759   2.110   3.271  10.301  0.3704  0.9935  0.0123
  189POPC   H2Y21760   2.030   3.332  10.151  1.0808 -0.7437 -0.5660
  189POPC   C2321761   1.421   3.791  10.574  0.4650  0.1238  0.1085
  189POPC   H3R21762   1.512   3.832  10.622 -1.6511  3.9318  1.2087
  189POPC   H3S21763   1.341   3.803  10.650 -1.6701  0.7670 -2.1467
  189POPC   C2421764   1.376   3.864  10.445 -0.5548 -0.1588 -0.8137
  189POPC   H4R21765   1.431   3.822  10.358  0.2607 -0.7334 -0.0418
  189POPC   H4S21766   1.403   3.971  10.458  0.2365 -0.3984 -0.3775
  189POPC   C2521767   1.224   3.878  10.417  0.1205  0.0157 -0.3369
  189POPC   H5R21768   1.177   3.940  10.497 -1.7460 -1.8522  0.1008
  189POPC   H5S21769   1.182   3.775  10.426  0.2701 -0.1290 -1.1823
  189POPC   C2621770   1.208   3.946  10.280  0.3153  0.0382  0.0911
  189POPC   H6R21771   1.277   4.032  10.268 -2.5164  2.2977 -1.4518
  189POPC   H6S21772   1.110   3.997  10.264  0.9710  2.6758  3.3836
  189POPC   C2721773   1.243   3.854  10.160  0.0344 -0.6951  0.6967
  189POPC   H7R21774   1.334   3.796  10.187  0.5911 -1.0048 -1.6517
  189POPC   H7S21775   1.267   3.912  10.068 -0.9208  0.3954  1.1175
  189POPC   C2821776   1.131   3.771  10.125  0.9061  0.4126  0.2425
  189POPC   H8R21777   1.049   3.826  10.073 -0.0155  1.2911  2.5278
  189POPC   H8S21778   1.083   3.740  10.220  1.8145 -0.6911  0.3639
  189POPC   C2921779   1.190   3.655  10.052 -0.1252  1.0697  0.7062
  189POPC   H9121780   1.254   3.580  10.101 -1.9367 -1.4735 -0.5604
  189POPC  C21021781   1.176   3.640   9.918  0.4963  0.4368  0.0906
  189POPC  H10121782   1.216   3.553   9.864  0.3155 -0.1227  0.8533
  189POPC  C21121783   1.105   3.726   9.822 -0.4032 -0.1758 -0.1853
  189POPC  H11R21784   1.064   3.820   9.866  0.3816 -0.1598  0.5319
  189POPC  H11S21785   1.011   3.675   9.790  0.5093 -2.5079  0.6935
  189POPC  C21221786   1.197   3.766   9.703 -0.2200  0.1999  0.4060
  189POPC  H12R21787   1.255   3.676   9.673 -0.3390 -0.1825  1.2913
  189POPC  H12S21788   1.271   3.846   9.721  2.3447 -2.3384  1.9268
  189POPC  C21321789   1.103   3.808   9.589 -0.0187 -0.1086  0.0346
  189POPC  H13R21790   1.024   3.875   9.628 -1.2770 -1.6371  0.2263
  189POPC  H13S21791   1.047   3.719   9.553 -1.8495  0.7320  0.6818
  189POPC  C21421792   1.176   3.883   9.480 -0.2177  0.0221  0.1113
  189POPC  H14R21793   1.253   3.946   9.528 -1.9411  1.7669  0.7099
  189POPC  H14S21794   1.108   3.951   9.424  2.6045  0.0803 -3.6884
  189POPC  C21521795   1.238   3.783   9.381 -0.0175 -0.3627 -0.3601
  189POPC  H15R21796   1.172   3.702   9.343  1.6750 -1.6258 -0.7585
  189POPC  H15S21797   1.316   3.728   9.438 -1.8122 -1.4069  1.1914
  189POPC  C21621798   1.307   3.860   9.268  0.0726  0.2884 -0.1101
  189POPC  H16R21799   1.351   3.782   9.202 -1.9622  0.5441 -1.8710
  189POPC  H16S21800   1.387   3.920   9.317 -0.9878  1.0911  0.6935
  189POPC  C21721801   1.214   3.948   9.177 -0.5858 -0.0025 -0.3934
  189POPC  H17R21802   1.171   4.029   9.240  2.5937 -0.2507  2.3877
  189POPC  H17S21803   1.123   3.894   9.143 -0.7494 -0.8882  1.3452
  189POPC  C21821804   1.283   4.011   9.056 -0.5144  0.4130 -0.1501
  189POPC  H18R21805   1.300   3.937   8.976  1.1414  1.3613 -0.7314
  189POPC  H18S21806   1.380   4.049   9.093  0.7990 -1.6582 -1.3146
  189POPC  H18T21807   1.225   4.094   9.009 -2.2316 -0.8157 -0.3000
  189POPC   C3321808   2.069   3.120  10.156  0.8283  0.5606 -0.0482
  189POPC   H3X21809   2.057   3.039  10.232  0.2509 -0.1320 -0.8659
  189POPC   H3Y21810   2.180   3.120  10.153  0.8837 -0.0736  1.1343
  189POPC   C3421811   2.003   3.092  10.025 -0.4594  0.4568  0.2954
  189POPC   H4X21812   1.907   3.148  10.019  0.3305  1.9575  1.1127
  189POPC   H4Y21813   1.986   2.982  10.016 -0.5572  0.6134 -2.2742
  189POPC   C3521814   2.095   3.137   9.909  0.4152 -0.1606 -0.5502
  189POPC   H5X21815   2.173   3.060   9.897  1.7617  1.0622  0.0295
  189POPC   H5Y21816   2.144   3.230   9.945 -0.3672 -0.1923  0.6563
  189POPC   C3621817   2.029   3.157   9.772 -0.4480 -0.5423  0.1343
  189POPC   H6X21818   2.107   3.200   9.707  1.7684 -3.2556  0.7702
  189POPC   H6Y21819   1.944   3.228   9.776 -0.3577 -0.4716  1.6240
  189POPC   C3721820   1.992   3.023   9.717  0.1706 -0.3260 -0.0645
  189POPC   H7X21821   1.922   2.968   9.784 -0.2476  0.1808 -0.0765
  189POPC   H7Y21822   2.081   2.958   9.706 -0.1463 -0.8106  0.1822
  189POPC   C3821823   1.925   3.039   9.578  0.1953  0.7978  0.5521
  189POPC   H8X21824   1.847   3.116   9.592 -0.7132 -0.1681  0.9027
  189POPC   H8Y21825   1.884   2.941   9.545  1.3487  0.1959  0.8196
  189POPC   C3921826   2.024   3.091   9.469  0.2963 -0.0807 -0.3314
  189POPC   H9X21827   2.055   3.196   9.487 -1.8336  0.8244 -1.5340
  189POPC   H9Y21828   1.960   3.096   9.378 -1.6728 -0.3273  0.9656
  189POPC  C31021829   2.145   3.002   9.435 -0.9542 -0.0534 -0.6096
  189POPC  H10X21830   2.103   2.907   9.396 -1.9719  0.8409 -1.7181
  189POPC  H10Y21831   2.208   2.994   9.527  0.4175  0.1948 -1.4903
  189POPC  C31121832   2.222   3.063   9.318  0.2839  0.0181 -0.3216
  189POPC  H11X21833   2.286   3.149   9.347  1.3473 -0.3583 -1.4229
  189POPC  H11Y21834   2.150   3.102   9.243 -0.4586 -1.0402 -0.1705
  189POPC  C31221835   2.318   2.963   9.252  0.5073  0.5904 -0.5997
  189POPC  H12X21836   2.263   2.868   9.232 -2.2197  2.0908 -0.6180
  189POPC  H12Y21837   2.403   2.950   9.323 -0.4414 -0.8004  0.3523
  189POPC  C31321838   2.377   3.014   9.124 -0.5174  0.0433 -0.3675
  189POPC  H13X21839   2.422   3.115   9.133  1.9362 -0.6810 -2.9122
  189POPC  H13Y21840   2.297   3.044   9.054 -0.4474  0.0080 -0.4636
  189POPC  C31421841   2.458   2.903   9.056  0.1264  0.0333 -0.3634
  189POPC  H14X21842   2.390   2.817   9.037 -0.2260  0.3312 -0.4519
  189POPC  H14Y21843   2.537   2.871   9.127 -2.4446  0.0225  2.6544
  189POPC  C31521844   2.509   2.945   8.915 -0.3764  0.4593  0.1276
  189POPC  H15X21845   2.579   3.030   8.925  1.7240 -1.3934  2.4336
  189POPC  H15Y21846   2.424   2.977   8.850  0.1842  0.7127 -0.4894
  189POPC  C31621847   2.597   2.830   8.855  0.6743  0.6379  0.2421
  189POPC  H16X21848   2.546   2.732   8.866  1.3362  0.5239  2.7733
  189POPC  H16Y21849   2.692   2.816   8.910 -1.0120 -1.6865  2.8676
  189POPC  H16Z21850   2.619   2.848   8.747  1.3737  0.8213  0.4149
  190POPC     N21851   4.836   5.897  10.924 -0.6774 -0.1384 -0.2709
  190POPC   C1221852   4.728   5.820  10.851  0.9609  0.7273 -0.2935
  190POPC  H12A21853   4.767   5.733  10.801 -0.5159 -1.1064  1.5611
  190POPC  H12B21854   4.680   5.888  10.782 -0.7535  1.3666  1.4343
  190POPC   C1321855   4.767   6.021  10.973  0.2443  0.1672 -0.0634
  190POPC  H13A21856   4.836   6.087  11.023  2.6640  0.6285 -3.6165
  190POPC  H13B21857   4.735   6.081  10.889  2.9195 -1.2348 -2.2695
  190POPC  H13C21858   4.685   5.994  11.037  1.3193  1.1752  1.8281
  190POPC   C1421859   4.899   5.821  11.036 -0.3466  0.1201 -0.5674
  190POPC  H14A21860   4.818   5.789  11.101 -1.1163 -0.1964 -1.6508
  190POPC  H14B21861   4.957   5.737  10.999  0.3297  1.2111 -2.0992
  190POPC  H14C21862   4.971   5.883  11.086 -0.9114  0.3718 -0.0474
  190POPC   C1521863   4.947   5.936  10.836  0.8203 -0.4272  0.3102
  190POPC  H15A21864   4.908   5.985  10.748 -0.6299 -0.8793  0.6856
  190POPC  H15B21865   5.009   5.857  10.796  0.6816  0.0223 -0.8445
  190POPC  H15C21866   5.003   6.016  10.882  2.0483  0.8700 -3.0746
  190POPC   C1121867   4.619   5.749  10.938  0.3585 -0.2228 -0.3950
  190POPC  H11A21868   4.671   5.685  11.012 -0.1747  0.9861  1.0832
  190POPC  H11B21869   4.559   5.690  10.866 -1.2471  0.7997  0.0618
  190POPC     P21870   4.387   5.861  10.984 -0.2986  0.3666 -0.1587
  190POPC   O1321871   4.351   5.992  11.044  0.2628 -0.6082 -0.5657
  190POPC   O1421872   4.306   5.750  11.033  0.1044  0.2959  0.8556
  190POPC   O1221873   4.542   5.840  11.026  0.5303  0.1665 -0.5416
  190POPC   O1121874   4.380   5.858  10.825  0.2013 -0.2299 -0.1877
  190POPC    C121875   4.373   5.989  10.762 -0.3107 -0.4655  0.1690
  190POPC    HA21876   4.418   5.983  10.660  0.4152  2.3233  0.2657
  190POPC    HB21877   4.441   6.062  10.810  1.2825 -0.6405 -1.6806
  190POPC    C221878   4.225   6.027  10.749 -0.3323  0.3327 -0.3491
  190POPC    HS21879   4.186   6.011  10.852  2.5132  2.2559  1.1627
  190POPC   O2121880   4.164   5.953  10.651  0.1036 -0.7599 -0.0271
  190POPC   C2121881   4.030   5.966  10.639 -0.2520  0.1570  0.1338
  190POPC   O2221882   3.962   6.015  10.722  0.0180  0.2228  0.6399
  190POPC   C2221883   3.974   5.907  10.507 -0.0587 -0.0515 -0.4198
  190POPC   H2R21884   3.864   5.920  10.511 -0.3290 -1.7908  4.1263
  190POPC   H2S21885   4.007   5.801  10.512 -0.0257 -0.2592 -3.2507
  190POPC    C321886   4.212   6.177  10.729 -0.5992  0.6413 -0.3571
  190POPC    HX21887   4.257   6.218  10.822 -1.4992 -0.2160  0.4759
  190POPC    HY21888   4.107   6.213  10.720 -0.8567 -0.2507 -1.0689
  190POPC   O3121889   4.285   6.224  10.608  1.2755 -0.4654 -0.1569
  190POPC   C3121890   4.358   6.328  10.622  0.1099 -0.1517 -0.4994
  190POPC   O3221891   4.387   6.384  10.729 -0.2681 -0.1080 -0.3642
  190POPC   C3221892   4.403   6.377  10.478 -0.1131  0.4715  0.2975
  190POPC   H2X21893   4.485   6.306  10.455 -1.1866 -1.2875  1.6060
  190POPC   H2Y21894   4.447   6.479  10.488 -0.6343  0.6600  0.7427
  190POPC   C2321895   4.045   5.955  10.376 -0.3298 -0.1247  0.4595
  190POPC   H3R21896   4.122   5.880  10.347 -3.3969 -2.7870 -1.6103
  190POPC   H3S21897   4.090   6.056  10.389  1.3067 -0.7577  0.0610
  190POPC   C2421898   3.951   5.961  10.253 -0.1190 -0.0112  0.6529
  190POPC   H4R21899   3.892   6.053  10.275  0.9675  0.3615  2.2035
  190POPC   H4S21900   3.891   5.867  10.248  1.0376 -0.8227  1.5927
  190POPC   C2521901   4.025   5.972  10.117 -0.2661  0.4577 -1.1432
  190POPC   H5R21902   4.078   5.874  10.115 -0.9140  0.0802 -0.4455
  190POPC   H5S21903   4.104   6.050  10.121 -2.4094  2.7472 -0.1269
  190POPC   C2621904   3.929   5.988  10.003  0.2470  0.2556  0.0861
  190POPC   H6R21905   3.891   6.092   9.996 -3.0697 -0.8012  0.3620
  190POPC   H6S21906   3.832   5.936  10.018  1.8581 -2.2926  2.7994
  190POPC   C2721907   3.981   5.935   9.869 -0.0022  0.6037  0.0843
  190POPC   H7R21908   3.975   5.825   9.882 -0.0893  0.6988  0.8798
  190POPC   H7S21909   4.090   5.954   9.855 -0.2552  0.4668 -2.5442
  190POPC   C2821910   3.899   5.983   9.752 -0.0787  0.1312  0.0487
  190POPC   H8R21911   3.799   6.015   9.791 -0.5975 -1.8716  0.4520
  190POPC   H8S21912   3.887   5.903   9.676 -3.1814  1.1672 -0.7232
  190POPC   C2921913   3.974   6.096   9.682  0.2042  0.0990  0.0020
  190POPC   H9121914   4.033   6.160   9.749 -0.0622  1.8388 -1.3610
  190POPC  C21021915   3.973   6.125   9.552  0.5144 -0.2917  0.2709
  190POPC  H10121916   4.039   6.207   9.517 -1.1371  1.2607  0.6487
  190POPC  C21121917   3.901   6.041   9.452  0.0357  0.3151  0.0644
  190POPC  H11R21918   3.793   6.067   9.454  0.0382  0.3999 -0.6337
  190POPC  H11S21919   3.919   5.932   9.461 -4.3519 -0.5392  1.1671
  190POPC  C21221920   3.929   6.097   9.309  0.1939 -0.3514 -0.2791
  190POPC  H12R21921   4.035   6.085   9.278 -0.2402 -2.4720 -1.0709
  190POPC  H12S21922   3.906   6.206   9.307  0.8350 -0.1748  0.9607
  190POPC  C21321923   3.841   6.029   9.206 -0.5852  0.1903 -0.7409
  190POPC  H13R21924   3.733   6.040   9.230 -0.4486  0.9680 -0.4442
  190POPC  H13S21925   3.862   5.920   9.199 -0.6336  0.2605 -2.3129
  190POPC  C21421926   3.867   6.096   9.071  0.8956 -0.3579 -0.2904
  190POPC  H14R21927   3.973   6.099   9.038  1.0958 -0.0950  0.3611
  190POPC  H14S21928   3.847   6.205   9.083  1.3319 -0.2059 -0.8587
  190POPC  C21521929   3.779   6.039   8.955  0.3756 -0.2057 -0.0504
  190POPC  H15R21930   3.772   6.110   8.871 -2.8167 -0.5136 -0.1610
  190POPC  H15S21931   3.674   6.038   8.991  0.5744  1.6370  0.6573
  190POPC  C21621932   3.828   5.901   8.906 -0.0569  0.3586  0.2903
  190POPC  H16R21933   3.824   5.818   8.980 -1.1712  0.9282  0.9030
  190POPC  H16S21934   3.938   5.897   8.891 -0.2914  0.6036 -1.7105
  190POPC  C21721935   3.755   5.842   8.789 -0.4584  0.1484 -0.2777
  190POPC  H17R21936   3.760   5.908   8.700 -0.0282  2.1644  1.1742
  190POPC  H17S21937   3.647   5.841   8.815 -0.1543 -0.7528  1.0488
  190POPC  C21821938   3.794   5.700   8.752 -0.1979  0.2960  0.1323
  190POPC  H18R21939   3.721   5.653   8.683  0.9884 -1.7849  0.2342
  190POPC  H18S21940   3.811   5.634   8.840 -1.9024 -0.7704 -0.2935
  190POPC  H18T21941   3.884   5.687   8.689 -1.1782 -1.5240 -0.9844
  190POPC   C3321942   4.284   6.380  10.381 -0.3004 -0.3736 -0.1336
  190POPC   H3X21943   4.215   6.464  10.404 -0.2156 -0.2388 -0.3668
  190POPC   H3Y21944   4.230   6.283  10.392 -3.0645  1.0930  0.3316
  190POPC   C3421945   4.355   6.396  10.242  0.0522  0.2181  0.2896
  190POPC   H4X21946   4.412   6.303  10.223  0.6561  0.6280  0.0633
  190POPC   H4Y21947   4.426   6.482  10.240 -1.8841  1.9084 -2.4354
  190POPC   C3521948   4.260   6.420  10.126  0.0547  0.5921  0.3993
  190POPC   H5X21949   4.185   6.494  10.161 -0.5134 -0.2995  1.1204
  190POPC   H5Y21950   4.196   6.330  10.114  1.0278 -0.3711  1.9482
  190POPC   C3621951   4.333   6.461   9.999 -0.7657  0.2914  0.3014
  190POPC   H6X21952   4.420   6.396   9.980 -1.2375 -0.0970 -0.5886
  190POPC   H6Y21953   4.367   6.567  10.002  0.4793 -0.1120  1.0598
  190POPC   C3721954   4.247   6.439   9.867 -0.4803 -0.1648 -0.8519
  190POPC   H7X21955   4.169   6.518   9.857 -0.0253  0.8323  2.3503
  190POPC   H7Y21956   4.190   6.345   9.880 -1.4452  0.5505  0.3229
  190POPC   C3821957   4.331   6.420   9.741  0.3419 -0.5428  0.0678
  190POPC   H8X21958   4.413   6.351   9.772  1.4077  1.3146  1.5472
  190POPC   H8Y21959   4.379   6.518   9.720  0.9743 -0.1780  2.8799
  190POPC   C3921960   4.261   6.364   9.612 -0.5016 -0.6135  0.0101
  190POPC   H9X21961   4.180   6.436   9.587  0.7412  1.6268  1.9915
  190POPC   H9Y21962   4.212   6.267   9.634 -2.0826  0.2829  0.5469
  190POPC  C31021963   4.349   6.345   9.488 -0.1973 -0.1166  0.4349
  190POPC  H10X21964   4.434   6.279   9.516  0.5633 -0.0543 -1.5156
  190POPC  H10Y21965   4.382   6.448   9.462 -1.0641 -0.0781 -0.6142
  190POPC  C31121966   4.276   6.277   9.366 -0.5264  0.1224  0.1652
  190POPC  H11X21967   4.171   6.313   9.355 -1.1313 -1.3919  0.7473
  190POPC  H11Y21968   4.271   6.173   9.405  0.1219  0.9641  2.6624
  190POPC  C31221969   4.340   6.291   9.221 -0.3404 -0.4197  0.2507
  190POPC  H12X21970   4.338   6.401   9.204  1.3763 -0.2733  0.7266
  190POPC  H12Y21971   4.264   6.245   9.155 -1.5824 -0.8200  1.9085
  190POPC  C31321972   4.474   6.220   9.227 -0.1177 -0.4692 -0.5979
  190POPC  H13X21973   4.462   6.121   9.275 -0.5123 -1.2317 -2.2034
  190POPC  H13Y21974   4.536   6.288   9.290 -2.0409 -0.2238  1.1252
  190POPC  C31421975   4.538   6.200   9.085  0.4360  0.3951 -0.3131
  190POPC  H14X21976   4.466   6.143   9.022  0.0047 -0.5583  1.0085
  190POPC  H14Y21977   4.633   6.143   9.094 -0.2834 -1.1710 -1.9555
  190POPC  C31521978   4.580   6.342   9.039  0.4811  0.6341 -0.2898
  190POPC  H15X21979   4.676   6.357   9.091  0.8902  0.0665 -0.8686
  190POPC  H15Y21980   4.508   6.422   9.066  0.5984  0.1730  1.5497
  190POPC  C31621981   4.595   6.346   8.884 -0.8528  0.5293  0.4973
  190POPC  H16X21982   4.672   6.272   8.852 -1.4850 -0.1731  0.5561
  190POPC  H16Y21983   4.619   6.446   8.842  1.0664 -0.2550 -0.3930
  190POPC  H16Z21984   4.500   6.304   8.844 -1.1564  0.1146  1.6066
  191POPC     N21985   3.581   0.115   6.340 -0.1011  0.3789  0.0202
  191POPC   C1221986   3.668   0.004   6.285  0.9836  0.5514 -0.6734
  191POPC  H12A21987   3.673   0.016   6.178 -2.0575 -2.7736 -1.3436
  191POPC  H12B21988   3.607  -0.082   6.306  1.0744  0.5665 -0.3393
  191POPC   C1321989   3.636   0.247   6.296  0.0199 -0.1292 -0.6861
  191POPC  H13A21990   3.661   0.251   6.191 -0.3489 -0.0257 -0.7728
  191POPC  H13B21991   3.567   0.328   6.314 -1.5533 -0.9369 -2.6909
  191POPC  H13C21992   3.726   0.266   6.352 -0.4933  0.7201 -0.1272
  191POPC   C1421993   3.444   0.101   6.281 -0.3860  0.0923 -0.1075
  191POPC  H14A21994   3.378   0.169   6.334 -0.6655  0.6926 -1.1920
  191POPC  H14B21995   3.449   0.123   6.176 -2.0017 -1.5334 -0.5787
  191POPC  H14C21996   3.407  -0.000   6.280  2.2785 -0.9506 -1.3138
  191POPC   C1521997   3.572   0.102   6.483  0.2802  0.0770 -0.5590
  191POPC  H15A21998   3.662   0.115   6.542 -0.9709  0.5841  1.3350
  191POPC  H15B21999   3.539   0.005   6.519 -1.4013 -0.0042 -2.1788
  191POPC  H15C22000   3.507   0.177   6.525  0.1189 -1.5761  2.4075
  191POPC   C1122001   3.811  -0.006   6.344  0.0315 -0.1789 -0.5797
  191POPC  H11A22002   3.864  -0.094   6.302  2.2142  0.1308  1.3581
  191POPC  H11B22003   3.802  -0.021   6.454  0.6355 -0.8050 -0.6143
  191POPC     P22004   4.020   0.137   6.371 -0.1483  0.0519 -0.1372
  191POPC   O1322005   4.029   0.285   6.390 -0.0536 -0.0268 -0.2143
  191POPC   O1422006   4.125   0.070   6.290  0.1014  0.2763 -0.4795
  191POPC   O1222007   3.881   0.108   6.307  0.0340  0.3360 -0.4786
  191POPC   O1122008   4.016   0.071   6.519  0.0545 -0.0555 -0.2823
  191POPC    C122009   4.056  -0.064   6.529 -0.8412 -1.1946 -0.4139
  191POPC    HA22010   4.067  -0.115   6.431  0.1855  0.6328 -1.3084
  191POPC    HB22011   3.972  -0.118   6.577 -0.6324 -1.0407  0.1205
  191POPC    C222012   4.174  -0.090   6.630  0.1755  0.5728  0.1504
  191POPC    HS22013   4.178  -0.200   6.638  0.2405  0.3494 -2.2049
  191POPC   O2122014   4.156  -0.032   6.754  0.1217 -0.3902 -0.4594
  191POPC   C2122015   4.063  -0.085   6.832  0.3137  0.4849 -0.2764
  191POPC   O2222016   4.017  -0.193   6.808 -0.4082  0.2451 -0.5419
  191POPC   C2222017   4.029   0.002   6.955 -1.2797  0.3868 -0.1183
  191POPC   H2R22018   3.959   0.077   6.913 -1.1495  0.4029 -0.3098
  191POPC   H2S22019   4.124   0.053   6.983 -0.9847  0.6239 -1.4609
  191POPC    C322020   4.313  -0.053   6.566  0.7478  0.7492  0.4373
  191POPC    HX22021   4.286   0.052   6.540 -2.1000  0.0098  0.0314
  191POPC    HY22022   4.324  -0.112   6.472 -0.0094  0.4496  0.5306
  191POPC   O3122023   4.429  -0.077   6.649 -0.1967 -0.5550 -0.4489
  191POPC   C3122024   4.480   0.030   6.715  0.4273  0.6440 -0.1146
  191POPC   O3222025   4.452   0.147   6.688  0.0955 -0.1037  0.2942
  191POPC   C3222026   4.578  -0.022   6.824  0.1200  0.1164  0.4204
  191POPC   H2X22027   4.655  -0.081   6.769  0.4066 -0.8548  1.8285
  191POPC   H2Y22028   4.520  -0.098   6.879  2.6077 -0.8757  1.8341
  191POPC   C2322029   3.971  -0.090   7.064  0.2749 -0.4588  0.1826
  191POPC   H3R22030   4.037  -0.175   7.094  2.0268  1.1627  1.1330
  191POPC   H3S22031   3.880  -0.138   7.021  0.0292  0.7210 -0.6571
  191POPC   C2422032   3.940  -0.007   7.196  0.6941 -0.4599 -0.5662
  191POPC   H4R22033   3.898  -0.072   7.276 -1.1353  1.9451  0.5798
  191POPC   H4S22034   3.857   0.059   7.161  1.1229  0.5376  0.2353
  191POPC   C2522035   4.065   0.075   7.234  0.8279 -0.2865  0.2648
  191POPC   H5R22036   4.077   0.161   7.165 -2.1382  1.0785  1.3143
  191POPC   H5S22037   4.156   0.011   7.230  1.8842  1.1976 -0.2334
  191POPC   C2622038   4.060   0.136   7.373  0.0827  0.3613  0.4339
  191POPC   H6R22039   3.968   0.194   7.393  0.1494  1.0107 -0.9745
  191POPC   H6S22040   4.145   0.204   7.395 -2.8220  4.6761 -0.4469
  191POPC   C2722041   4.062   0.032   7.479  0.2127  0.6067 -1.2910
  191POPC   H7R22042   4.101  -0.066   7.445 -1.4784 -0.2957 -0.7156
  191POPC   H7S22043   3.962   0.003   7.516  0.7622  2.6044  2.2362
  191POPC   C2822044   4.148   0.067   7.602 -0.5187  0.1127 -0.3041
  191POPC   H8R22045   4.125   0.172   7.630 -0.3516  0.7473 -2.4119
  191POPC   H8S22046   4.253   0.076   7.568  0.1087 -0.4810  1.3505
  191POPC   C2922047   4.152  -0.025   7.723 -0.2877  0.0593 -0.2895
  191POPC   H9122048   4.150  -0.134   7.707  2.2391  0.0932 -1.3715
  191POPC  C21022049   4.173   0.008   7.853 -0.6458 -0.4696  0.3047
  191POPC  H10122050   4.159  -0.052   7.944 -2.3919 -1.8786 -0.8152
  191POPC  C21122051   4.190   0.152   7.899 -0.0484  0.3049  1.0916
  191POPC  H11R22052   4.096   0.200   7.933 -1.9458 -1.0003 -1.9270
  191POPC  H11S22053   4.222   0.223   7.820 -1.7599  3.9921  3.4659
  191POPC  C21222054   4.288   0.163   8.016  0.6744  0.6172  0.4576
  191POPC  H12R22055   4.393   0.153   7.982  0.3646  1.6786 -0.8785
  191POPC  H12S22056   4.260   0.086   8.092  0.4135  0.3071  0.0520
  191POPC  C21322057   4.266   0.304   8.077  0.1027  0.5443 -0.2237
  191POPC  H13R22058   4.165   0.294   8.122  0.7206 -3.0729  0.6693
  191POPC  H13S22059   4.262   0.379   7.995  1.5838  1.7043  0.7065
  191POPC  C21422060   4.372   0.350   8.179 -0.2000  1.1961 -0.1112
  191POPC  H14R22061   4.452   0.388   8.112  1.4152 -1.3525  0.2240
  191POPC  H14S22062   4.413   0.263   8.235 -0.1659  0.0343 -1.8698
  191POPC  C21522063   4.334   0.465   8.271 -0.7226  0.4676 -0.7709
  191POPC  H15R22064   4.429   0.489   8.324  0.9864 -2.3991 -2.2470
  191POPC  H15S22065   4.262   0.421   8.343  0.1018 -0.3210 -0.3971
  191POPC  C21622066   4.289   0.595   8.204  0.7344 -0.0572 -0.7045
  191POPC  H16R22067   4.180   0.577   8.187  0.2990  0.9185  0.8678
  191POPC  H16S22068   4.327   0.604   8.100 -2.2519  1.5476 -1.7733
  191POPC  C21722069   4.322   0.723   8.284  0.1641  0.2510 -0.1043
  191POPC  H17R22070   4.433   0.731   8.277  0.1090  0.3271 -0.9271
  191POPC  H17S22071   4.304   0.714   8.394 -0.3422  1.4699 -0.0799
  191POPC  C21822072   4.262   0.847   8.218  0.1830 -0.0638  0.1590
  191POPC  H18R22073   4.237   0.925   8.292  0.8038 -0.1034  0.4173
  191POPC  H18S22074   4.174   0.818   8.158  0.4402 -0.5986  0.0310
  191POPC  H18T22075   4.337   0.886   8.146  1.3944 -0.8652  0.9203
  191POPC   C3322076   4.630   0.086   6.918  0.4287 -0.2468  0.5771
  191POPC   H3X22077   4.677   0.041   7.008 -0.5125 -1.1565  0.6259
  191POPC   H3Y22078   4.558   0.159   6.961  2.7607  4.6971 -2.8061
  191POPC   C3422079   4.732   0.178   6.848  0.0181 -0.1862 -0.6743
  191POPC   H4X22080   4.681   0.259   6.791  0.7469  1.0756  0.4254
  191POPC   H4Y22081   4.794   0.120   6.776  0.1162  0.0021 -0.7412
  191POPC   C3522082   4.823   0.250   6.952  0.4787  0.5694 -0.5453
  191POPC   H5X22083   4.903   0.311   6.903  0.2597  0.9593 -0.4223
  191POPC   H5Y22084   4.867   0.174   7.019  1.4392  1.4193 -0.1790
  191POPC   C3622085   4.755   0.354   7.047 -0.4216  0.3580  0.3620
  191POPC   H6X22086   4.705   0.293   7.126  0.3763  1.6158  1.9058
  191POPC   H6Y22087   4.674   0.405   6.991  0.5357 -0.4134 -1.8628
  191POPC   C3722088   4.851   0.464   7.107  0.0652 -0.3523 -0.0078
  191POPC   H7X22089   4.783   0.543   7.145  0.1464  0.0354 -0.6574
  191POPC   H7Y22090   4.913   0.499   7.023 -1.8920  1.7134 -0.6917
  191POPC   C3822091   4.939   0.418   7.234  0.2263 -0.3334 -0.2595
  191POPC   H8X22092   5.028   0.483   7.248 -1.3720  1.8438  0.4290
  191POPC   H8Y22093   4.970   0.317   7.199  1.0895  0.4130 -1.7241
  191POPC   C3922094   4.853   0.391   7.357 -0.1635 -0.1135  0.9851
  191POPC   H9X22095   4.777   0.313   7.335 -1.1008  1.3102 -1.1155
  191POPC   H9Y22096   4.795   0.485   7.367 -0.9717 -0.6549  1.5427
  191POPC  C31022097   4.947   0.355   7.469 -0.2996 -0.2676 -0.3700
  191POPC  H10X22098   5.008   0.445   7.488  3.1426 -2.1991 -1.4893
  191POPC  H10Y22099   5.017   0.277   7.432 -0.2533  0.0195 -0.8925
  191POPC  C31122100   4.887   0.295   7.600  1.0517  0.1948 -0.0696
  191POPC  H11X22101   4.836   0.198   7.583  1.8863 -0.1170 -0.8836
  191POPC  H11Y22102   4.813   0.371   7.633 -1.0222 -1.5714 -0.3504
  191POPC  C31222103   4.986   0.275   7.714 -0.2720  0.2104 -0.4681
  191POPC  H12X22104   5.055   0.361   7.703 -1.4813  1.3887  0.7350
  191POPC  H12Y22105   5.043   0.185   7.683  0.7185  1.2172 -1.7011
  191POPC  C31322106   4.934   0.258   7.854 -0.3503 -0.1508 -0.4818
  191POPC  H13X22107   4.867   0.170   7.856  0.0737 -0.4700 -0.1389
  191POPC  H13Y22108   4.881   0.350   7.885  0.7109  0.1064  0.6563
  191POPC  C31422109   5.054   0.240   7.955 -1.0864  0.3254 -0.2962
  191POPC  H14X22110   5.113   0.334   7.950 -0.5109  0.2038  2.5132
  191POPC  H14Y22111   5.119   0.162   7.911 -0.4270  0.3828  0.5484
  191POPC  C31522112   5.009   0.203   8.097 -0.4471 -0.1147  0.2718
  191POPC  H15X22113   4.988   0.095   8.112 -0.6695 -0.0206  0.6660
  191POPC  H15Y22114   4.909   0.247   8.117 -1.9404 -3.2704  0.3812
  191POPC  C31622115   5.115   0.245   8.206 -0.1090  0.6539  0.4721
  191POPC  H16X22116   5.086   0.230   8.313  0.5039 -1.0308  0.4202
  191POPC  H16Y22117   5.143   0.352   8.195 -0.7076  0.6263 -1.8390
  191POPC  H16Z22118   5.201   0.178   8.188  0.0661  1.6194 -2.9984
  192POPC     N22119   4.289   2.754   6.190 -0.3071  0.5150 -0.1789
  192POPC   C1222120   4.263   2.620   6.118  0.2052 -0.1858  0.0891
  192POPC  H12A22121   4.308   2.623   6.020 -2.1307 -1.5542 -1.1215
  192POPC  H12B22122   4.155   2.617   6.106  0.4150  0.1232 -2.2244
  192POPC   C1322123   4.441   2.774   6.198  0.0187 -0.5643  0.0476
  192POPC  H13A22124   4.473   2.779   6.095 -2.0670 -1.3554 -0.6928
  192POPC  H13B22125   4.460   2.865   6.254  1.5400 -0.7548 -0.1199
  192POPC  H13C22126   4.503   2.702   6.248  0.7679 -0.6527 -0.9772
  192POPC   C1422127   4.234   2.865   6.114  0.0651  0.5019 -0.3672
  192POPC  H14A22128   4.127   2.858   6.110  0.1130 -1.7342  0.6610
  192POPC  H14B22129   4.274   2.960   6.146  2.4593 -0.4470 -0.3220
  192POPC  H14C22130   4.258   2.861   6.009  0.7215 -0.9623 -0.1935
  192POPC   C1522131   4.231   2.742   6.328 -0.4580 -0.1322 -0.4715
  192POPC  H15A22132   4.249   2.647   6.375  0.9674 -0.4818 -1.6269
  192POPC  H15B22133   4.125   2.764   6.329  0.1885  4.1746 -1.6622
  192POPC  H15C22134   4.290   2.817   6.378  0.2770 -0.5692 -0.6700
  192POPC   C1122135   4.296   2.487   6.187 -0.1455 -0.6591 -0.2063
  192POPC  H11A22136   4.403   2.492   6.216 -0.1289 -0.3169 -0.3180
  192POPC  H11B22137   4.289   2.414   6.104 -0.7965 -0.1310 -0.6287
  192POPC     P22138   4.062   2.405   6.259 -0.0472  0.0645 -0.0789
  192POPC   O1322139   4.064   2.268   6.202  0.3204 -0.0452 -0.0396
  192POPC   O1422140   3.994   2.504   6.173 -0.0620 -0.1698 -0.3270
  192POPC   O1222141   4.211   2.458   6.306 -0.0821 -0.1524  0.1631
  192POPC   O1122142   3.980   2.405   6.393  0.7267  0.0047 -0.0952
  192POPC    C122143   3.986   2.508   6.493 -0.8828 -0.0862 -0.2735
  192POPC    HA22144   3.888   2.500   6.544 -0.8994 -0.8442 -0.4099
  192POPC    HB22145   4.003   2.601   6.434  0.8255 -0.4463 -0.4291
  192POPC    C222146   4.106   2.487   6.593  0.1385  0.0679  0.3441
  192POPC    HS22147   4.198   2.468   6.534 -0.8100  0.9165 -1.5082
  192POPC   O2122148   4.070   2.383   6.679 -0.4132  0.7446 -0.8136
  192POPC   C2122149   4.105   2.260   6.649 -0.4240  0.2885  0.2489
  192POPC   O2222150   4.197   2.229   6.572 -0.1259  0.5678  0.7640
  192POPC   C2222151   4.026   2.156   6.731  0.0622  0.1626  0.3349
  192POPC   H2R22152   3.949   2.119   6.659 -0.2400  0.8719  0.2787
  192POPC   H2S22153   3.963   2.198   6.812  2.3544  0.8177  1.8674
  192POPC    C322154   4.132   2.620   6.670  0.0824 -0.0937  0.6047
  192POPC    HX22155   4.035   2.650   6.715  0.0351 -0.3415  0.6699
  192POPC    HY22156   4.162   2.703   6.604 -1.8676  0.5586  0.4887
  192POPC   O3122157   4.220   2.591   6.777 -0.6040 -0.9420 -0.3304
  192POPC   C3122158   4.355   2.591   6.748  0.4870  0.4048 -0.3180
  192POPC   O3222159   4.401   2.606   6.638 -0.2315  0.2592  0.6661
  192POPC   C3222160   4.438   2.560   6.878 -0.5926  0.1313 -0.0240
  192POPC   H2X22161   4.530   2.621   6.881 -1.0665  0.8832 -0.5323
  192POPC   H2Y22162   4.470   2.453   6.875 -0.6700  0.1296 -1.5956
  192POPC   C2322163   4.105   2.038   6.794  0.5092  0.1194  0.1555
  192POPC   H3R22164   4.141   1.963   6.720 -1.4646 -2.0527  1.2652
  192POPC   H3S22165   4.026   1.978   6.845 -1.3725  0.2181 -2.4069
  192POPC   C2422166   4.204   2.068   6.902  0.5752  0.3329  0.3608
  192POPC   H4R22167   4.300   2.107   6.863  0.6019 -1.0576 -1.0285
  192POPC   H4S22168   4.235   1.980   6.962 -5.1725 -2.0542  0.4641
  192POPC   C2522169   4.145   2.169   7.009 -0.2300 -0.1511  0.0102
  192POPC   H5R22170   4.055   2.116   7.046 -0.3246 -1.8898 -2.4133
  192POPC   H5S22171   4.111   2.272   6.983 -1.0345 -0.1338  1.0734
  192POPC   C2622172   4.250   2.179   7.128  0.2293  0.3336  0.0990
  192POPC   H6R22173   4.342   2.222   7.083 -0.5654  2.2117  0.1786
  192POPC   H6S22174   4.276   2.074   7.154  2.9304 -0.1820 -3.8070
  192POPC   C2722175   4.208   2.265   7.243 -0.4322 -0.7265 -0.2175
  192POPC   H7R22176   4.114   2.232   7.293 -1.7629 -0.4315 -2.3809
  192POPC   H7S22177   4.162   2.350   7.188 -0.0726  1.2620  2.3562
  192POPC   C2822178   4.313   2.304   7.345 -0.4654  0.2211 -0.0975
  192POPC   H8R22179   4.284   2.391   7.407  2.3804  1.4416 -0.3052
  192POPC   H8S22180   4.407   2.330   7.292  0.5684 -2.5143  0.1987
  192POPC   C2922181   4.349   2.188   7.436  0.4997  0.2573  0.4229
  192POPC   H9122182   4.432   2.135   7.387  0.7648  1.5297 -0.5621
  192POPC  C21022183   4.294   2.157   7.553  0.9928 -0.0021 -0.7007
  192POPC  H10122184   4.321   2.064   7.604 -0.9913  1.4143  3.3313
  192POPC  C21122185   4.184   2.230   7.623  0.2868 -0.4987 -0.2008
  192POPC  H11R22186   4.124   2.154   7.676 -0.6934  3.4373  5.1538
  192POPC  H11S22187   4.116   2.289   7.558 -0.3295 -0.9591  0.0254
  192POPC  C21222188   4.224   2.319   7.741  0.2182 -0.3905 -0.2835
  192POPC  H12R22189   4.279   2.407   7.704 -1.1968  1.6069  2.0676
  192POPC  H12S22190   4.288   2.250   7.800 -0.1834  0.9048  1.7609
  192POPC  C21322191   4.099   2.378   7.809 -0.4479  0.7220  0.5896
  192POPC  H13R22192   4.021   2.299   7.813 -0.5644  0.7424 -0.7874
  192POPC  H13S22193   4.064   2.468   7.755  2.5919  1.3998 -0.4097
  192POPC  C21422194   4.132   2.410   7.952 -0.3807 -0.1659  0.1132
  192POPC  H14R22195   4.229   2.462   7.945  0.7030 -1.5424  3.2426
  192POPC  H14S22196   4.146   2.329   8.026 -2.3359  0.2406  1.0059
  192POPC  C21522197   4.036   2.509   8.007 -0.3282  0.1462 -0.8810
  192POPC  H15R22198   3.945   2.450   8.032  0.5417  0.3924  3.5628
  192POPC  H15S22199   4.037   2.596   7.938  1.4054  0.1687 -0.8653
  192POPC  C21622200   4.090   2.573   8.139 -0.7064  0.4437 -0.4448
  192POPC  H16R22201   4.038   2.670   8.155  1.8700  1.3996  3.3554
  192POPC  H16S22202   4.197   2.596   8.120 -0.7288  2.2929  1.2969
  192POPC  C21722203   4.076   2.483   8.260  0.3769 -0.1815  0.0496
  192POPC  H17R22204   4.109   2.379   8.239  0.0138 -0.3920  0.4939
  192POPC  H17S22205   3.968   2.466   8.282  0.1866  1.5509  0.6446
  192POPC  C21822206   4.149   2.537   8.388  0.3699 -0.3363  0.5552
  192POPC  H18R22207   4.259   2.548   8.372 -0.0524  2.0192 -1.3295
  192POPC  H18S22208   4.140   2.464   8.470  0.0276 -0.2001  0.6382
  192POPC  H18T22209   4.091   2.625   8.423 -1.6085 -0.7672 -1.4283
  192POPC   C3322210   4.360   2.593   7.008  0.4685 -0.3531 -0.7301
  192POPC   H3X22211   4.282   2.515   7.022 -0.9472  0.6815 -2.3968
  192POPC   H3Y22212   4.307   2.691   7.003  3.4967  1.3897 -0.9415
  192POPC   C3422213   4.452   2.608   7.128 -0.0480  0.1325  0.5055
  192POPC   H4X22214   4.540   2.671   7.102  0.9093 -1.5227 -0.4457
  192POPC   H4Y22215   4.493   2.506   7.148  0.2071 -0.0908 -1.0618
  192POPC   C3522216   4.373   2.665   7.244  0.6295 -0.2756  0.1452
  192POPC   H5X22217   4.286   2.598   7.254  0.4963  0.2152  2.7705
  192POPC   H5Y22218   4.342   2.770   7.224  1.6149 -0.1685 -0.9292
  192POPC   C3622219   4.442   2.646   7.382 -0.1942  0.5566  0.7682
  192POPC   H6X22220   4.544   2.690   7.375 -0.2033  0.5084  0.2517
  192POPC   H6Y22221   4.462   2.537   7.382  0.8073  0.5961 -3.0377
  192POPC   C3722222   4.356   2.680   7.502 -0.0459  0.3088 -0.4479
  192POPC   H7X22223   4.258   2.634   7.479 -0.5636  1.8092 -1.4110
  192POPC   H7Y22224   4.334   2.789   7.495  2.2692  0.9142  0.7142
  192POPC   C3822225   4.408   2.643   7.636 -0.0251  0.7083 -0.4757
  192POPC   H8X22226   4.462   2.545   7.636  2.2948  1.8964  0.4119
  192POPC   H8Y22227   4.324   2.637   7.708 -0.4661 -0.0650 -1.0335
  192POPC   C3922228   4.501   2.753   7.696 -0.4070 -0.0669  0.5888
  192POPC   H9X22229   4.446   2.848   7.715  1.4325  0.9937  0.8627
  192POPC   H9Y22230   4.578   2.766   7.617 -3.1829 -1.1459 -2.5037
  192POPC  C31022231   4.566   2.704   7.828  0.4069 -0.8151  0.5816
  192POPC  H10X22232   4.660   2.763   7.833 -0.2224  0.3315 -0.6200
  192POPC  H10Y22233   4.590   2.596   7.831  1.1753 -0.6471  0.6731
  192POPC  C31122234   4.481   2.738   7.946 -0.2942  0.2501 -0.2321
  192POPC  H11X22235   4.390   2.674   7.942 -0.0045 -0.6011  3.2663
  192POPC  H11Y22236   4.450   2.845   7.941 -0.0726  0.2924 -0.7943
  192POPC  C31222237   4.546   2.719   8.085 -0.2640 -0.0243 -0.0861
  192POPC  H12X22238   4.480   2.787   8.143 -1.7838 -0.2946 -1.4217
  192POPC  H12Y22239   4.652   2.751   8.082 -0.6265  1.5144  1.6640
  192POPC  C31322240   4.533   2.577   8.142 -0.0174 -0.1427  0.1462
  192POPC  H13X22241   4.433   2.531   8.128 -0.7327  0.3029  3.0074
  192POPC  H13Y22242   4.534   2.599   8.251  1.9416  0.3563  0.0688
  192POPC  C31422243   4.650   2.482   8.105  0.3509  0.4252  0.1546
  192POPC  H14X22244   4.747   2.536   8.114  0.4941  0.0806  0.7052
  192POPC  H14Y22245   4.623   2.463   7.999 -1.5072 -0.5846  0.7719
  192POPC  C31522246   4.656   2.348   8.176 -0.0967  0.0178  0.7957
  192POPC  H15X22247   4.577   2.285   8.130 -0.3743  2.1016 -1.8523
  192POPC  H15Y22248   4.640   2.361   8.285 -1.7429  2.9284  0.2957
  192POPC  C31622249   4.790   2.277   8.159 -0.3199  0.5861 -0.4178
  192POPC  H16X22250   4.783   2.168   8.182 -1.2584  0.4536 -1.2828
  192POPC  H16Y22251   4.873   2.337   8.202 -0.4043  0.2078  0.2792
  192POPC  H16Z22252   4.814   2.277   8.050  0.9624  1.2807 -0.1604
  193SOD    SOD22253   0.697   2.779  11.676  0.4390  0.3022  0.4308
  194SOD    SOD22254   1.892   0.565  10.976 -0.0411  0.7507 -0.5090
  195SOD    SOD22255   5.912   1.258  12.959 -0.0811  0.2902 -0.3470
  196SOD    SOD22256   2.098   2.454   6.471 -0.0493  0.1444  0.4731
  197SOD    SOD22257   3.640   2.534  12.239  0.1174  0.0598  0.0044
  198SOD    SOD22258   6.644   0.732   3.545  0.0851  0.2024 -0.2110
  199SOD    SOD22259   6.562   5.007   2.095 -0.3465  0.0638 -0.0767
  200SOD    SOD22260   2.884   1.879   2.278  0.1453  0.0404  0.3310
  201SOD    SOD22261   5.896   2.913   2.576 -0.0818  0.2299  0.3695
  202SOD    SOD22262   5.016   1.346   0.312  0.2251 -0.1362  0.4971
  203SOD    SOD22263   0.517   0.911  10.536 -0.0289  0.2075 -0.2844
  204SOD    SOD22264   2.142   1.891   1.751  0.2080  0.0640  0.7146
  205SOD    SOD22265   2.922   2.267   4.556 -0.0971 -0.0501  0.0449
  206SOD    SOD22266   4.727   3.377   5.982 -0.0912 -0.2983 -0.1997
  207SOD    SOD22267   0.928   3.563   0.412  0.0045 -0.1999 -0.4296
  208SOD    SOD22268   1.153   4.332   4.943  0.4100  0.3323  0.8779
  209SOD    SOD22269   5.851   3.883   5.784 -0.2722 -0.1279  0.2113
  210SOD    SOD22270   4.649   0.231  14.636 -0.2370  0.3801  0.1700
  211SOD    SOD22271   2.185   4.426  16.990 -0.1793  0.1656 -0.2614
  212SOD    SOD22272   5.314   5.885  14.351 -0.2325  0.0094 -0.1420
  213SOD    SOD22273   2.250   4.726   6.399 -0.1139  0.2051 -0.3138
  214SOD    SOD22274   2.475   0.755   1.067  0.1881  0.1707  0.5063
  215SOD    SOD22275   4.545   4.594  16.857 -0.1294  0.0950 -0.0301
  216SOD    SOD22276   5.641   5.746   4.841 -0.2288  0.4775 -0.6980
  217SOD    SOD22277   4.369   2.540   2.516 -0.3473 -0.3084 -0.3189
  218SOD    SOD22278   5.831   5.989   5.657  0.2698 -0.2361  0.3256
  219SOD    SOD22279   0.212   4.634  11.080 -0.5662 -0.0483  0.2411
  220SOD    SOD22280   3.993   1.275   2.565 -0.4005  0.0210 -0.0287
  221SOD    SOD22281   0.219   4.733  12.790  0.0465 -0.3126 -0.7824
  222SOD    SOD22282   5.222   0.570  14.669 -0.5829 -0.4579  0.2733
  223SOD    SOD22283   6.339   0.347   5.511 -0.0041  0.1192  0.3347
  224SOD    SOD22284   4.355   2.685   0.453 -0.4532 -0.4648 -0.2924
  225SOD    SOD22285   4.537   1.903  11.796  0.0205 -0.3186 -0.3069
  226SOD    SOD22286   2.863   2.409   0.923  0.0292  0.0668  0.3069
  227SOD    SOD22287   4.130   0.437   2.052  0.0779 -0.3582 -0.0002
  228SOD    SOD22288   2.510   5.987  12.337  0.1082  0.0985 -0.4389
  229SOD    SOD22289   2.624   1.062   2.340  0.0064  0.1465 -0.1320
  230SOD    SOD22290   2.723   2.073   6.523  0.0165  0.4915  0.3092
  231SOD    SOD22291   5.737   3.230   6.251 -0.2293  0.8179  0.3888
  232SOD    SOD22292   1.642   3.440   3.658  0.5291 -0.7161  0.1664
  233SOD    SOD22293   0.707   5.473   0.298 -0.1851  0.2055 -0.1854
  234SOD    SOD22294   0.131   0.374  15.657  0.7039  0.1818 -0.6234
  235SOD    SOD22295   4.293   1.713  15.881 -0.1026  0.1808 -0.0283
  236SOD    SOD22296   2.310   4.267   5.799 -0.0119 -0.0041  0.4934
  237SOD    SOD22297   4.921   5.359   0.375 -0.1374 -0.4755  0.6214
  238SOD    SOD22298   2.775   6.234   2.501  0.1290 -0.6832  0.1250
  239SOD    SOD22299   4.976   6.609   5.719 -0.1529  0.0224  0.2237
  240SOD    SOD22300   4.520   4.092  12.965  0.3292 -0.1591 -0.4246
  241SOD    SOD22301   3.577   0.038   0.624 -0.1202  0.5891 -0.2512
  242SOD    SOD22302   3.182   5.900  13.461  0.0757  0.2119  0.3826
  243SOD    SOD22303   6.220   3.510  15.028 -0.2250 -0.2166  0.2116
  244SOD    SOD22304   0.387   6.627  12.356  0.0363  0.5916 -0.2015
  245SOD    SOD22305   6.578   4.211   3.401 -0.2171 -0.0167 -0.2795
  246SOD    SOD22306   1.821   5.770  10.751 -0.0299 -0.1011 -0.0328
  247SOD    SOD22307   0.323   3.138  13.425  0.1381  0.0767 -0.0468
  248SOD    SOD22308   4.265   3.208  12.211  0.1188  0.0310  0.1272
  249SOD    SOD22309   0.196   1.065  11.132  0.1441 -0.0656  0.2172
  250SOD    SOD22310   4.665   1.387  10.917  0.1026  0.1117  0.1445
  251SOD    SOD22311   2.929   0.610  15.885 -0.1908  0.3493 -0.1594
  252SOD    SOD22312   4.159   2.665  13.408  0.5305  0.3958  0.0923
  253SOD    SOD22313   3.713   2.607  16.346  0.1811  0.4390 -0.4480
  254SOD    SOD22314   1.927   3.565  15.421 -0.4420 -0.2502 -0.6729
  255SOD    SOD22315   0.451   3.713   2.082 -0.0354  0.0778 -0.4478
  256SOD    SOD22316   5.549   0.304   6.070  0.7745 -0.2527  0.1728
  257SOD    SOD22317   2.614   4.233   2.915 -0.2821  0.3370  0.1760
  258SOD    SOD22318   4.169   3.996   1.392  0.2077  0.5532  0.3347
  259SOD    SOD22319   0.321   1.554   5.860  0.0989  0.3344  0.0773
  260SOD    SOD22320   6.575   4.098   4.502  0.3301  0.0882 -0.3024
  261SOD    SOD22321   0.459   0.939   3.563  0.8508 -0.0331 -0.1607
  262SOD    SOD22322   4.845   5.767   3.649  0.0495  0.0439  0.1388
  263SOD    SOD22323   5.338   6.511  13.518  0.1159  0.2212  0.0124
  264SOD    SOD22324   0.710   5.783  10.757 -0.1163 -0.2389  0.7281
  265SOD    SOD22325   0.786   6.438   4.791 -0.1780 -0.0702 -0.1872
  266SOD    SOD22326   4.639   5.872   2.485  0.0290 -0.6775  0.2270
  267SOD    SOD22327   0.173   1.772  12.728 -0.0722  0.6873  0.1835
  268SOD    SOD22328   6.054   4.279  11.835 -0.0642 -0.0671 -0.0054
  269SOD    SOD22329   2.676   6.711   5.975 -0.7515  0.2562 -0.0318
  270CLA    CLA22330   5.790   6.572   2.869  0.3736 -0.0588  0.0447
  271CLA    CLA22331   2.364   2.432  12.299  0.4911 -0.2815 -0.1951
  272CLA    CLA22332   2.794   2.103  14.861  0.1592  0.0387  0.1080
  273CLA    CLA22333   3.884   5.048  14.965  0.0838 -0.0928  0.2419
  274CLA    CLA22334   0.607   4.946  11.612  0.0953  0.1243  0.1060
  275CLA    CLA22335   3.092   1.735   2.198 -0.0827  0.4130 -0.1174
  276CLA    CLA22336   5.233   3.562  15.666 -0.4276 -0.2036 -0.0016
  277CLA    CLA22337   5.190   1.330  13.912 -0.1267 -0.5146 -0.0019
  278CLA    CLA22338   4.898   2.608  13.399 -0.1687  0.4428  0.0518
  279CLA    CLA22339   6.043   0.145  14.858 -0.1655 -0.0427  0.0807
  280CLA    CLA22340   0.844   5.623  15.074 -0.1002  0.1638 -0.1238
  281CLA    CLA22341   2.523   2.673   0.975  0.1252  0.2416  0.0935
  282CLA    CLA22342   0.604   4.856   4.774 -0.1256  0.2735 -0.0243
  283CLA    CLA22343   2.435   3.852   5.581  0.3110 -0.3150 -0.1949
  284CLA    CLA22344   2.846   5.828  13.618  0.0145 -0.4489  0.0246
  285CLA    CLA22345   6.653   5.506  13.175 -0.1272 -0.2313 -0.0283
  286CLA    CLA22346   3.870   2.676   3.331  0.5189 -0.7949  0.7450
  287CLA    CLA22347   5.304   3.206   0.043 -0.1806 -0.0769 -0.1752
  288CLA    CLA22348   1.583   1.441   5.863 -0.0520  0.6884  0.1110
  289CLA    CLA22349   6.191   4.863   3.587  0.0506  0.1892  0.0882
  290CLA    CLA22350   1.262   1.029  11.624 -0.1901  0.2414  0.0477
  291CLA    CLA22351   5.660   3.274  12.396  0.1724 -0.0245  0.1438
  292CLA    CLA22352   6.461   0.085   4.335 -0.3953 -0.4393  0.4556
  293CLA    CLA22353   0.710   4.005   0.908 -0.2452 -0.0878  0.4149
  294CLA    CLA22354   4.843   1.371  12.404  0.0638  0.1539 -0.3237
  295CLA    CLA22355   3.185   2.086  17.265  0.2904 -0.1953 -0.3740
  296CLA    CLA22356   6.669   1.436   2.848 -0.1690 -0.0456  0.1241
  297CLA    CLA22357   5.140   4.559  14.686  0.2762  0.2492  0.0035
  298CLA    CLA22358   2.077   1.232   1.713  0.2427  0.1698 -0.4207
  299CLA    CLA22359   3.355   5.720   0.264  0.4495 -0.4511 -0.3005
  300CLA    CLA22360   5.113   0.623   2.372 -0.5743 -0.1945  0.0650
  301CLA    CLA22361   4.719   3.326   2.069 -0.2247 -0.2088  0.2100
  302CLA    CLA22362   3.857   5.062  15.462  0.0920  0.1414  0.2174
  303CLA    CLA22363   0.888   3.000  14.367  0.2749  0.1925 -0.4520
  304CLA    CLA22364   2.243   3.347  16.208  0.1026 -0.0327 -0.1016
  305CLA    CLA22365   6.480   0.477   5.330  0.2300  0.2253 -0.2637
  306CLA    CLA22366   6.370   1.818   1.937 -0.8276  0.2738 -0.3258
  307CLA    CLA22367   3.200   5.160   0.223  0.1639 -0.0498  0.2401
  308CLA    CLA22368   1.488   4.662  13.637 -0.0724 -0.0023  0.2217
  309CLA    CLA22369   4.816   6.301   3.546  0.3693 -0.0575  0.2790
  310CLA    CLA22370   1.995   1.717   1.567 -0.1659  0.3604 -0.2473
  311CLA    CLA22371   4.104   5.457  16.534  0.3484  0.3013 -0.4055
  312CLA    CLA22372   5.915   3.159   5.051  0.0473  0.1608 -0.1595
  313CLA    CLA22373   3.529   1.319   1.974 -0.3590 -0.1015  0.6185
  314CLA    CLA22374   3.551   1.826  12.756 -0.0910  0.4900  0.3365
  315CLA    CLA22375   1.555   5.558   2.281  0.1411  0.4137 -0.3540
  316CLA    CLA22376   4.726   5.167   2.049 -0.1233  0.1118 -0.2197
  317CLA    CLA22377   4.047   1.359   0.717  0.1460  0.0109  0.1583
  318CLA    CLA22378   0.328   0.002   4.329  0.0660 -0.0315  0.1877
  319CLA    CLA22379   5.585   5.798   5.094 -0.2910  0.6967 -0.0328
  320CLA    CLA22380   5.135   0.187   4.503 -0.2806  0.1787  0.0909
  321CLA    CLA22381   0.803   3.147   0.078  0.1709 -0.2239  0.0701
  322CLA    CLA22382   4.709   2.491   0.023  0.1664  0.2977  0.1308
  323TIP3   OH222383   3.710   1.467   0.906  0.1923 -0.3681 -0.2266
  323TIP3    H122384   3.799   1.442   0.929  0.1105 -0.1275  0.4024
  323TIP3    H222385   3.665   1.385   0.889  0.5837 -0.4771 -0.7311
  324TIP3   OH222386   6.105   0.687   0.789 -0.5606  0.2679  0.1110
  324TIP3    H122387   6.166   0.727   0.727 -1.0636  0.9918  0.0780
  324TIP3    H222388   6.049   0.631   0.735  1.5927 -2.4194  0.4040
  325TIP3   OH222389   1.578   5.439  15.074 -0.7025  0.1172  0.1112
  325TIP3    H122390   1.522   5.484  15.011 -0.5386  0.2608  0.0678
  325TIP3    H222391   1.527   5.362  15.101 -0.5981 -0.1768 -0.5096
  326TIP3   OH222392   2.517   2.359   3.895  0.2775 -0.0222 -0.2399
  326TIP3    H122393   2.440   2.328   3.942 -0.5979 -1.1924 -2.3208
  326TIP3    H222394   2.578   2.284   3.897  1.0619  0.6077  0.6717
  327TIP3   OH222395   2.035   2.438   5.670 -0.2386  0.0793 -0.0095
  327TIP3    H122396   1.961   2.395   5.628 -1.5672  1.0872  1.1770
  327TIP3    H222397   2.112   2.394   5.635 -1.3607 -0.5860 -1.7640
  328TIP3   OH222398   0.151   1.627  12.916  0.0409 -0.3123  0.3180
  328TIP3    H122399   0.135   1.679  12.996  1.2500  0.7852 -0.1136
  328TIP3    H222400   0.195   1.548  12.947 -1.5260 -0.9677  0.9574
  329TIP3   OH222401   0.000   5.094  12.587 -0.0206  0.0633 -0.1641
  329TIP3    H122402  -0.066   5.114  12.521 -1.8763 -0.3831  1.4587
  329TIP3    H222403  -0.018   5.155  12.658  1.9820  0.6004 -0.0489
  330TIP3   OH222404   3.332   4.513  16.089 -0.0589  0.4147  0.5139
  330TIP3    H122405   3.346   4.452  16.162  0.9888  0.4131  0.3367
  330TIP3    H222406   3.237   4.523  16.083 -0.2927 -1.4888  0.3151
  331TIP3   OH222407   5.065   3.645   5.057  0.3689 -0.4981  0.3220
  331TIP3    H122408   4.982   3.613   5.091  0.6961 -2.2762 -0.4149
  331TIP3    H222409   5.131   3.607   5.116  0.6797  1.3487  1.2406
  332TIP3   OH222410   6.568   5.446  11.796  0.5236 -0.6827 -0.0109
  332TIP3    H122411   6.476   5.432  11.774  0.3892  1.2076 -0.9578
  332TIP3    H222412   6.567   5.491  11.880  0.3116  1.8537 -1.2474
  333TIP3   OH222413   2.325   3.957   3.122  0.4355  0.6087 -0.3867
  333TIP3    H122414   2.342   3.964   3.216  3.1520  0.5705 -0.8094
  333TIP3    H222415   2.374   3.880   3.094  0.5160  1.1994 -2.0056
  334TIP3   OH222416   1.291   6.641   3.483  0.4694 -0.0896  0.7624
  334TIP3    H122417   1.227   6.623   3.414  0.8821 -0.3995  0.4586
  334TIP3    H222418   1.310   6.556   3.522  0.3755  0.0596  1.1449
  335TIP3   OH222419   0.763   4.827  13.087 -0.0225 -0.1078 -0.2733
  335TIP3    H122420   0.856   4.816  13.107  0.0675 -1.1366 -1.1656
  335TIP3    H222421   0.761   4.843  12.993 -0.8184 -1.2061 -0.4529
  336TIP3   OH222422   4.381   2.318   5.356  0.0501 -0.1100 -0.5480
  336TIP3    H122423   4.476   2.310   5.358 -0.0643 -1.7794  0.3081
  336TIP3    H222424   4.364   2.403   5.316  1.8823 -0.0110 -1.1794
  337TIP3   OH222425   4.495   0.881   3.452 -0.8198 -0.0517 -0.6469
  337TIP3    H122426   4.477   0.793   3.419  0.4645 -0.9469  0.8911
  337TIP3    H222427   4.582   0.902   3.419  1.1413 -1.5503  2.9810
  338TIP3   OH222428   5.659   2.081  14.307 -0.5060 -0.1007 -0.0576
  338TIP3    H122429   5.738   2.078  14.361 -1.6172  0.0164  1.6486
  338TIP3    H222430   5.690   2.112  14.222  1.4372 -1.0093  0.2381
  339TIP3   OH222431   2.269   0.523   5.383  0.8443 -0.5832 -0.1392
  339TIP3    H122432   2.282   0.618   5.384  0.1042 -0.4732  1.0393
  339TIP3    H222433   2.243   0.504   5.292 -0.1417  0.5175 -0.1108
  340TIP3   OH222434   5.900   0.876  14.668  0.1127 -0.5610 -0.0690
  340TIP3    H122435   5.968   0.833  14.617  0.8418  0.4547 -0.0029
  340TIP3    H222436   5.827   0.886  14.608  0.3871 -0.7805 -0.4433
  341TIP3   OH222437   1.274   0.397  12.135 -0.4553 -0.2983 -0.2664
  341TIP3    H122438   1.319   0.439  12.208  1.4222 -1.3072 -0.7775
  341TIP3    H222439   1.194   0.361  12.174 -0.7346  1.3077  0.7291
  342TIP3   OH222440   1.120   0.904  17.234  0.1356  0.7140  0.4423
  342TIP3    H122441   1.172   0.958  17.294  1.5296 -0.1306  0.0526
  342TIP3    H222442   1.163   0.915  17.149 -1.7767  1.8565 -0.4447
  343TIP3   OH222443   0.567   1.632  15.451  0.2496  0.3615  0.3934
  343TIP3    H122444   0.657   1.604  15.469  0.4669  1.2291  0.7333
  343TIP3    H222445   0.564   1.723  15.482 -0.5036  0.6170 -0.3992
  344TIP3   OH222446   2.991   0.345  16.927  0.0994  0.4095 -0.1759
  344TIP3    H122447   3.079   0.310  16.916  0.4129  1.4792 -1.1659
  344TIP3    H222448   2.938   0.297  16.862  0.0112  0.0363  0.1626
  345TIP3   OH222449   3.539   5.468   0.229 -0.6263  0.5590 -0.2689
  345TIP3    H122450   3.630   5.497   0.224 -0.9066  1.2674 -2.1263
  345TIP3    H222451   3.488   5.549   0.221 -1.4263 -0.1626 -4.5629
  346TIP3   OH222452   5.693   1.767   3.695  0.0741 -0.3115  0.1928
  346TIP3    H122453   5.762   1.706   3.669  1.4528  1.6060 -0.9427
  346TIP3    H222454   5.714   1.789   3.786  2.3638  1.8556 -0.7380
  347TIP3   OH222455   5.075   0.252  12.394 -0.3099  0.4513 -0.1135
  347TIP3    H122456   5.113   0.202  12.322 -1.6308  0.3799 -0.8038
  347TIP3    H222457   4.981   0.257  12.373 -0.5751  1.2477  1.1168
  348TIP3   OH222458   0.582   1.303  10.532  0.1448 -0.4186  0.7608
  348TIP3    H122459   0.540   1.386  10.507 -0.3521 -0.7300  0.5502
  348TIP3    H222460   0.531   1.272  10.607  0.1969 -0.6402  0.7049
  349TIP3   OH222461   5.603   3.912  11.133 -0.3320  0.1196 -0.3427
  349TIP3    H122462   5.652   3.970  11.075  1.2552 -0.4224  0.3981
  349TIP3    H222463   5.569   3.843  11.076 -0.6603  0.7642 -0.9405
  350TIP3   OH222464   4.200   2.873  11.940 -0.1820 -0.7607 -0.2761
  350TIP3    H122465   4.270   2.926  11.904 -0.6505  0.0131 -0.0631
  350TIP3    H222466   4.121   2.906  11.898 -0.4362 -1.5846 -0.4731
  351TIP3   OH222467   6.163   2.814   0.738  0.0866  0.2840  0.1309
  351TIP3    H122468   6.133   2.903   0.721  1.1589  0.4166 -1.2313
  351TIP3    H222469   6.118   2.789   0.819 -0.3470  1.9891  0.4612
  352TIP3   OH222470   0.486   1.046   4.078  0.0974 -0.0458 -0.1950
  352TIP3    H122471   0.465   0.958   4.046 -2.9650  1.1310 -1.8672
  352TIP3    H222472   0.426   1.059   4.151  0.9756  0.4586  0.4474
  353TIP3   OH222473   0.296   4.226   4.585  0.6693  0.3108  0.2416
  353TIP3    H122474   0.252   4.311   4.573  0.0559 -0.1147 -0.6208
  353TIP3    H222475   0.357   4.241   4.658  1.1479  1.7196 -0.4078
  354TIP3   OH222476   4.377   5.259   1.391  0.0871 -0.3206  0.1479
  354TIP3    H122477   4.287   5.231   1.374  0.0401  0.7615 -1.5179
  354TIP3    H222478   4.424   5.177   1.410 -0.5500 -1.3080 -2.2476
  355TIP3   OH222479   3.071   5.718  17.204  0.2832  0.5066 -0.0689
  355TIP3    H122480   3.162   5.722  17.234 -0.2163  2.0417  1.3870
  355TIP3    H222481   3.045   5.627  17.221  1.6776 -0.0995 -1.0069
  356TIP3   OH222482   0.707   5.007   3.875  0.5553 -0.9218  0.1500
  356TIP3    H122483   0.790   4.981   3.915  0.5714 -0.4363  0.4285
  356TIP3    H222484   0.702   5.101   3.889  0.0130 -0.9335  0.0307
  357TIP3   OH222485   0.359   0.902   1.313 -0.3240  0.0195  0.3132
  357TIP3    H122486   0.265   0.881   1.318 -0.7389  1.6564 -0.0417
  357TIP3    H222487   0.361   0.994   1.288  1.3610  0.6816  2.6096
  358TIP3   OH222488   5.660   6.698  16.794  0.2196  0.2817 -0.4112
  358TIP3    H122489   5.635   6.713  16.885  0.0854  3.2931 -0.8401
  358TIP3    H222490   5.755   6.681  16.797  0.6672  2.6308  0.1676
  359TIP3   OH222491   0.238   5.174  13.323  0.0476  0.3501 -0.4296
  359TIP3    H122492   0.288   5.109  13.274 -0.3226 -0.3169  0.0570
  359TIP3    H222493   0.302   5.238  13.353  0.6303 -0.5586  0.2971
  360TIP3   OH222494   5.382   2.823  16.946 -0.6449  0.6432  0.2316
  360TIP3    H122495   5.330   2.875  16.884 -0.1340  0.0853 -0.6785
  360TIP3    H222496   5.317   2.791  17.009 -1.5318 -0.5029 -1.1992
  361TIP3   OH222497   0.103   4.473   5.895 -0.0363  0.5643 -0.0135
  361TIP3    H122498   0.023   4.422   5.901 -0.5228  1.3930  0.8633
  361TIP3    H222499   0.147   4.459   5.979  0.3688  0.6990 -0.1975
  362TIP3   OH222500   4.822   3.582   1.322  0.4880  0.1013 -0.3301
  362TIP3    H122501   4.896   3.552   1.270 -1.2551 -0.1056 -2.8546
  362TIP3    H222502   4.771   3.637   1.263 -0.8036  1.1885  1.6656
  363TIP3   OH222503   1.628   6.428   4.478  0.7194 -0.1370  0.3564
  363TIP3    H122504   1.649   6.499   4.538  0.2937  0.4416 -0.1799
  363TIP3    H222505   1.533   6.424   4.477  0.7125  0.1004 -0.5583
  364TIP3   OH222506   2.924   0.771   5.238 -0.0321 -0.0224  0.1976
  364TIP3    H122507   2.879   0.826   5.302  0.6807  0.6480  0.1312
  364TIP3    H222508   2.954   0.832   5.170  2.3064 -0.2054  0.9867
  365TIP3   OH222509   1.749   1.962  16.489 -0.5751  0.1309  0.4380
  365TIP3    H122510   1.722   2.054  16.486 -1.3362 -0.0256  1.7822
  365TIP3    H222511   1.770   1.945  16.580  1.6177 -0.5011 -0.1367
  366TIP3   OH222512   2.399   6.599  12.628 -0.1288 -0.0989  0.0161
  366TIP3    H122513   2.460   6.624  12.559  1.7076 -0.4468  1.4005
  366TIP3    H222514   2.450   6.612  12.709 -1.1761 -2.4142  1.1206
  367TIP3   OH222515   3.795   5.468   4.933 -0.2694  0.1741 -0.2564
  367TIP3    H122516   3.882   5.476   4.972 -1.1557 -1.6269  2.4145
  367TIP3    H222517   3.811   5.430   4.847  1.7145  2.9716 -1.2664
  368TIP3   OH222518   0.672   5.635  12.624 -0.3329  0.2331  0.2229
  368TIP3    H122519   0.601   5.588  12.667 -1.0077 -0.3329 -1.4052
  368TIP3    H222520   0.647   5.635  12.531  0.1000  3.0191  0.0320
  369TIP3   OH222521   6.476   5.476   3.315 -0.0114 -0.4607 -0.3413
  369TIP3    H122522   6.407   5.533   3.282 -0.2259 -0.6278 -0.1840
  369TIP3    H222523   6.431   5.413   3.371  0.5536  1.0039  1.9101
  370TIP3   OH222524   1.676   5.215   1.059 -0.0681 -0.6870  0.2794
  370TIP3    H122525   1.635   5.136   1.027 -0.9020 -0.5565  0.9906
  370TIP3    H222526   1.696   5.266   0.980 -2.5078 -0.1498 -0.0541
  371TIP3   OH222527   4.504   1.516  14.320 -0.0008  0.4394  0.5342
  371TIP3    H122528   4.507   1.443  14.258 -2.2912 -0.9298  1.8915
  371TIP3    H222529   4.488   1.593  14.265 -0.6958 -0.5351 -0.6846
  372TIP3   OH222530   1.687   0.222   3.021  0.2123  0.1948 -0.1286
  372TIP3    H122531   1.690   0.315   3.044 -0.7488  0.5043 -1.1447
  372TIP3    H222532   1.689   0.221   2.925 -0.2187 -0.8223 -0.1414
  373TIP3   OH222533   0.471   0.357   4.690 -0.6204 -0.1223 -0.1231
  373TIP3    H122534   0.438   0.332   4.777 -0.3966  2.3860  0.7727
  373TIP3    H222535   0.412   0.427   4.662  0.5018  0.4508 -1.1108
  374TIP3   OH222536   0.372   4.739   2.262 -0.3894 -0.3350  0.5931
  374TIP3    H122537   0.379   4.675   2.192  1.3814 -1.5725  1.8265
  374TIP3    H222538   0.459   4.741   2.302 -0.8567  1.6467  1.6414
  375TIP3   OH222539   3.213   3.581  14.939 -0.0526 -0.5761 -0.2961
  375TIP3    H122540   3.176   3.494  14.955 -0.6744 -0.2037  0.3229
  375TIP3    H222541   3.165   3.614  14.862 -1.2110 -0.0027  0.6368
  376TIP3   OH222542   2.239   3.421   5.873  0.1241 -0.9226  0.2098
  376TIP3    H122543   2.166   3.403   5.814  0.3152 -0.3994 -0.1874
  376TIP3    H222544   2.206   3.490   5.932 -0.3129 -1.9305  1.1866
  377TIP3   OH222545   1.567   3.344  12.004  0.0313 -0.2821  0.2384
  377TIP3    H122546   1.621   3.418  11.977 -0.1837 -0.1617  0.1352
  377TIP3    H222547   1.601   3.319  12.090 -0.8446  0.8834  0.9523
  378TIP3   OH222548   1.378   3.397   2.209  0.6127  0.1433  0.8447
  378TIP3    H122549   1.424   3.458   2.152 -1.8621  0.6066 -0.8203
  378TIP3    H222550   1.417   3.311   2.190 -0.4759  0.1877 -2.0571
  379TIP3   OH222551   1.014   3.813  12.473  0.5693 -0.1365  0.0577
  379TIP3    H122552   1.048   3.901  12.485  0.1501 -0.0860  1.0674
  379TIP3    H222553   1.075   3.770  12.414  0.9161  0.7531 -0.2357
  380TIP3   OH222554   4.521   1.926   1.985 -0.1779  0.3681  0.5214
  380TIP3    H122555   4.431   1.930   1.953 -0.4363 -1.2457  0.9713
  380TIP3    H222556   4.517   1.957   2.075 -0.8666 -2.4293  1.5544
  381TIP3   OH222557   5.490   3.105  12.569 -0.9209  0.0572  0.0252
  381TIP3    H122558   5.487   3.016  12.535 -0.7191 -0.0681  0.3296
  381TIP3    H222559   5.535   3.156  12.501 -1.6727  0.0812 -0.4718
  382TIP3   OH222560   3.095   4.639  11.682  0.5113  0.0955  0.1102
  382TIP3    H122561   3.082   4.729  11.712 -0.5560  0.3346 -1.0008
  382TIP3    H222562   3.189   4.627  11.682  0.6544  1.0916  0.6281
  383TIP3   OH222563   6.318   6.527   1.832  0.2002 -0.5448  0.1017
  383TIP3    H122564   6.250   6.479   1.784  0.8625 -1.0316 -0.3725
  383TIP3    H222565   6.312   6.493   1.921  0.5430 -1.4159 -0.1877
  384TIP3   OH222566   0.753   0.546   3.061  0.1289 -0.0308  0.2605
  384TIP3    H122567   0.658   0.533   3.066  0.2414 -1.2974 -0.5637
  384TIP3    H222568   0.765   0.615   2.996 -0.1737 -0.9995 -0.8478
  385TIP3   OH222569   2.104   0.915  13.055 -0.4515  0.0381  0.1201
  385TIP3    H122570   2.137   0.825  13.051 -1.1497 -0.1760 -3.6186
  385TIP3    H222571   2.158   0.956  13.123  1.3305 -2.5981  0.4848
  386TIP3   OH222572   3.421   0.588   2.673 -0.3317  0.1232  0.6429
  386TIP3    H122573   3.357   0.522   2.699  0.4806 -0.4829  1.1312
  386TIP3    H222574   3.368   0.660   2.639 -1.2106 -1.5166 -1.7336
  387TIP3   OH222575   1.754   1.185  14.332 -0.2250 -0.4505 -0.2345
  387TIP3    H122576   1.826   1.168  14.393 -0.1729  0.5751  0.0082
  387TIP3    H222577   1.776   1.267  14.290 -0.6711 -0.7291 -1.0524
  388TIP3   OH222578   6.168   0.698  12.015 -0.5841  0.0654 -0.1047
  388TIP3    H122579   6.241   0.640  12.036  0.0965  0.0065 -2.3644
  388TIP3    H222580   6.090   0.645  12.028 -0.0652 -0.7991 -0.4534
  389TIP3   OH222581   3.635   1.159   4.848  0.3240 -0.0923 -0.1280
  389TIP3    H122582   3.667   1.128   4.933 -0.2577 -0.3973 -0.0137
  389TIP3    H222583   3.713   1.162   4.792  0.3890 -1.8671 -0.1746
  390TIP3   OH222584   3.211   5.318  16.559 -0.1933 -0.1573 -0.1736
  390TIP3    H122585   3.203   5.351  16.469  1.1635  0.5517 -0.0662
  390TIP3    H222586   3.305   5.315  16.575 -0.3466  2.7230  2.2405
  391TIP3   OH222587   3.594   2.769   2.630 -0.3457  0.4321  0.4041
  391TIP3    H122588   3.625   2.851   2.670 -0.7190  0.2917  1.0009
  391TIP3    H222589   3.552   2.722   2.702 -0.7100  0.0016 -0.0827
  392TIP3   OH222590   1.940   1.293   3.983 -0.3141  0.2756 -0.1606
  392TIP3    H122591   2.014   1.316   3.927 -0.6240  0.0803 -0.6620
  392TIP3    H222592   1.899   1.377   4.004 -1.6501  0.2400 -2.2775
  393TIP3   OH222593   0.099   2.285  12.055 -0.1423 -0.2778  0.6096
  393TIP3    H122594   0.070   2.364  12.100 -0.8368 -0.0694 -0.1685
  393TIP3    H222595   0.052   2.213  12.099  1.3974 -0.4194  2.1035
  394TIP3   OH222596   4.408   0.818  12.593 -0.2633 -0.5311  0.0164
  394TIP3    H122597   4.501   0.843  12.595 -0.2911 -0.4346  0.1145
  394TIP3    H222598   4.390   0.789  12.683 -0.5659  0.3054  0.2357
  395TIP3   OH222599   2.442   3.893   0.196  0.2910 -0.1536  0.1270
  395TIP3    H122600   2.520   3.936   0.232  0.3126 -0.7967  0.8915
  395TIP3    H222601   2.429   3.935   0.111  2.4999 -1.2351 -0.8274
  396TIP3   OH222602   4.726   4.637   5.589 -0.0282 -0.0306  0.2542
  396TIP3    H122603   4.684   4.584   5.521 -1.3435 -0.0375  1.0411
  396TIP3    H222604   4.759   4.573   5.652  0.0964  0.0212  0.2416
  397TIP3   OH222605   4.265   5.122   4.920 -0.4207  0.0229  0.0570
  397TIP3    H122606   4.243   5.040   4.877  0.5143  0.2096 -0.8200
  397TIP3    H222607   4.238   5.110   5.011 -1.3753 -0.8123 -0.3191
  398TIP3   OH222608   0.647   2.132   3.916  0.9885 -0.4149  0.2255
  398TIP3    H122609   0.699   2.108   3.993  1.6877  0.2407 -0.0312
  398TIP3    H222610   0.622   2.048   3.877  0.1285 -0.7740  1.4707
  399TIP3   OH222611   5.295   2.880   4.814 -0.4408 -0.1382  0.2992
  399TIP3    H122612   5.258   2.969   4.809  1.1130  0.5345  0.2535
  399TIP3    H222613   5.314   2.868   4.907  0.1604 -0.0626  0.1911
  400TIP3   OH222614   0.615   4.070   1.212 -0.0514  0.0804 -0.0565
  400TIP3    H122615   0.674   4.029   1.148 -0.7569 -1.4942  0.2662
  400TIP3    H222616   0.673   4.097   1.283  0.5252  0.3048 -0.5987
  401TIP3   OH222617   1.777   4.003  13.163 -0.2839  0.2600  0.4023
  401TIP3    H122618   1.843   4.046  13.109 -0.9096 -1.7709 -2.2137
  401TIP3    H222619   1.784   4.045  13.248  1.8457  2.6180 -0.8096
  402TIP3   OH222620   5.627   5.003  11.557  0.6157  0.1010  0.3234
  402TIP3    H122621   5.534   4.985  11.540  0.2822  1.0108  1.0795
  402TIP3    H222622   5.673   4.966  11.482 -0.1315 -2.4803  1.0444
  403TIP3   OH222623   3.481   0.350   1.747  0.3125  0.0740 -0.6404
  403TIP3    H122624   3.446   0.275   1.698  0.3908 -0.5315  0.2008
  403TIP3    H222625   3.476   0.323   1.839  2.1035  0.3436 -0.4308
  404TIP3   OH222626   3.621   2.797  15.309  0.6245 -0.3069  0.2534
  404TIP3    H122627   3.565   2.727  15.343  1.0119 -0.6642  0.1685
  404TIP3    H222628   3.652   2.843  15.387  2.4610 -1.8477  0.5324
  405TIP3   OH222629   1.963   2.223   4.053  0.2489 -0.2196 -0.3193
  405TIP3    H122630   2.028   2.193   3.990  0.8741  0.1023  0.1581
  405TIP3    H222631   1.965   2.319   4.045  0.8255 -0.1404  0.6577
  406TIP3   OH222632   1.820   1.875   5.417 -0.1885 -0.8172 -0.5544
  406TIP3    H122633   1.741   1.928   5.404 -0.3393 -0.9016  0.0236
  406TIP3    H222634   1.792   1.786   5.397 -0.2096 -0.8317 -0.4596
  407TIP3   OH222635   5.981   5.205  14.327 -0.4720 -0.3591 -0.0924
  407TIP3    H122636   5.936   5.145  14.387  1.3006 -1.1281  0.5248
  407TIP3    H222637   5.936   5.288  14.339  1.2623  0.2238  4.2191
  408TIP3   OH222638   3.057   4.920  12.993 -0.5722  0.1134 -0.2393
  408TIP3    H122639   3.065   5.012  13.018  1.0267 -0.0329 -0.1153
  408TIP3    H222640   2.986   4.886  13.048  0.8920  0.5307  2.0528
  409TIP3   OH222641   2.934   1.129   0.585  0.0574  0.0395  0.2997
  409TIP3    H122642   3.023   1.094   0.591  0.1998  0.2873 -0.3852
  409TIP3    H222643   2.882   1.069   0.640  0.3063 -1.2388 -0.8079
  410TIP3   OH222644   6.570   2.721  14.591  0.0565  0.4860 -0.6009
  410TIP3    H122645   6.501   2.705  14.527 -0.9637 -0.0381  0.6052
  410TIP3    H222646   6.603   2.809  14.569  0.1302  0.1014 -2.1766
  411TIP3   OH222647   2.638   5.981   1.931 -0.1012  0.3482 -0.0808
  411TIP3    H122648   2.653   5.938   1.847  0.6478 -2.8690  1.5174
  411TIP3    H222649   2.566   5.932   1.971  1.4940 -0.2208  2.3112
  412TIP3   OH222650   4.771   1.702  12.304 -0.4871 -0.1270 -0.4898
  412TIP3    H122651   4.677   1.720  12.295 -0.5719 -0.8577 -1.1860
  412TIP3    H222652   4.775   1.610  12.331  0.0042  0.2257  0.6987
  413TIP3   OH222653   5.651   4.551  17.106 -0.2411 -0.1214 -0.0460
  413TIP3    H122654   5.560   4.574  17.123 -0.8334 -3.0610  1.3180
  413TIP3    H222655   5.671   4.593  17.022 -2.4157  1.5963  0.2051
  414TIP3   OH222656   4.673   5.332  12.318 -0.8270  0.6956 -0.4916
  414TIP3    H122657   4.582   5.321  12.290 -1.1010 -1.5481  1.0136
  414TIP3    H222658   4.666   5.358  12.410  0.0267 -0.5013 -0.0693
  415TIP3   OH222659   5.004   6.261  17.018 -0.1776 -0.1138  0.4736
  415TIP3    H122660   5.049   6.271  17.102  0.0734  1.0411  0.2215
  415TIP3    H222661   4.958   6.343  17.006 -2.7911 -1.4143  0.9267
  416TIP3   OH222662   2.391   5.586   1.848 -0.2877 -0.1407  0.3219
  416TIP3    H122663   2.351   5.576   1.762 -2.8351 -1.0714  1.4926
  416TIP3    H222664   2.429   5.674   1.848 -1.7718  0.5455 -1.1820
  417TIP3   OH222665   2.086   3.336  11.351  0.6939 -0.8720 -0.4936
  417TIP3    H122666   2.003   3.322  11.306  0.8052 -0.9013 -0.6929
  417TIP3    H222667   2.093   3.431  11.361  0.4470 -0.8919 -0.1128
  418TIP3   OH222668   2.326   5.576  17.204  0.0120 -0.0615 -0.0529
  418TIP3    H122669   2.342   5.644  17.138  2.0873 -1.0359 -0.6702
  418TIP3    H222670   2.312   5.497  17.152 -0.5172 -0.4444  0.6678
  419TIP3   OH222671   5.651   0.553  12.321 -0.0098 -0.5946  0.7043
  419TIP3    H122672   5.617   0.489  12.259 -0.2683  0.3014 -0.0950
  419TIP3    H222673   5.739   0.521  12.343 -0.0388 -1.0819  0.1319
  420TIP3   OH222674   5.918   5.871  15.428 -0.4884 -0.4894  0.4500
  420TIP3    H122675   5.851   5.817  15.385  0.4861 -1.1158 -0.3155
  420TIP3    H222676   5.872   5.913  15.501 -1.5621 -1.3961  0.3164
  421TIP3   OH222677   0.753   4.366   3.565  0.0850  0.2572 -0.2280
  421TIP3    H122678   0.707   4.449   3.554  0.9412  0.9540  1.1669
  421TIP3    H222679   0.685   4.303   3.591 -0.5234  0.5720 -1.0340
  422TIP3   OH222680   1.937   5.739  12.080  0.2124  0.4018 -0.0915
  422TIP3    H122681   1.888   5.662  12.050 -0.0219  0.8545 -0.9077
  422TIP3    H222682   2.028   5.709  12.085 -0.0467 -0.2593  0.7850
  423TIP3   OH222683   5.368   1.081  10.543 -0.1840 -0.0957  0.0459
  423TIP3    H122684   5.282   1.080  10.501 -0.0610  1.6408 -0.3436
  423TIP3    H222685   5.389   0.989  10.559 -1.3214 -0.6584 -1.4930
  424TIP3   OH222686   4.445   5.328  15.440  0.1468  0.0308 -0.0651
  424TIP3    H122687   4.459   5.421  15.456 -1.7423  0.2773  0.3743
  424TIP3    H222688   4.353   5.313  15.464 -0.5761 -1.2574 -3.1503
  425TIP3   OH222689   6.015   5.000   3.896  0.0428  0.2465  0.0002
  425TIP3    H122690   6.026   5.052   3.975 -0.7446 -0.9444  0.9325
  425TIP3    H222691   6.103   4.985   3.863  0.3586  0.9396  0.5159
  426TIP3   OH222692   0.488   1.094  13.467 -0.3914 -0.0147  0.0704
  426TIP3    H122693   0.473   1.106  13.373 -0.3379 -0.6110 -0.0187
  426TIP3    H222694   0.578   1.125  13.481 -1.7278  4.1787  0.7158
  427TIP3   OH222695   6.242   2.636  10.817 -0.2009  0.2575 -0.2235
  427TIP3    H122696   6.205   2.548  10.812 -0.6924  0.3599  1.2018
  427TIP3    H222697   6.212   2.679  10.736 -1.2938 -0.3841 -0.1871
  428TIP3   OH222698   1.296   4.321   3.193  0.5019  0.0752  0.3433
  428TIP3    H122699   1.382   4.350   3.165  0.3780  0.8327  0.7414
  428TIP3    H222700   1.241   4.330   3.114  1.4589 -3.5745 -0.9559
  429TIP3   OH222701   0.541   0.407  15.925 -0.2418 -0.0249  0.1406
  429TIP3    H122702   0.461   0.356  15.913 -0.8428  1.1735 -1.2057
  429TIP3    H222703   0.512   0.488  15.966  0.0613  0.9237 -1.4391
  430TIP3   OH222704   4.368   3.458   0.408 -0.1516 -0.1858  0.5627
  430TIP3    H122705   4.425   3.382   0.395  0.8557  0.5663  0.5144
  430TIP3    H222706   4.333   3.447   0.497 -0.3767 -0.9256  0.3953
  431TIP3   OH222707   6.138   5.355   5.230  0.3501 -0.0665 -0.5418
  431TIP3    H122708   6.123   5.359   5.325 -1.8055 -1.1346 -0.7928
  431TIP3    H222709   6.060   5.395   5.192  0.0379 -1.9006 -1.9070
  432TIP3   OH222710   1.713   4.181  14.050 -0.3037  0.2874 -0.5007
  432TIP3    H122711   1.688   4.183  13.958 -2.1518  4.5921 -0.1563
  432TIP3    H222712   1.795   4.230  14.054 -0.1579 -0.0009  0.1257
  433TIP3   OH222713   1.348   2.411  11.170  0.0074  0.1768  0.1894
  433TIP3    H122714   1.416   2.477  11.158 -0.4334  0.5963 -0.0545
  433TIP3    H222715   1.293   2.444  11.241 -0.6066  0.4159 -0.3797
  434TIP3   OH222716   4.087   0.387   0.632  0.9558 -0.2711 -0.3620
  434TIP3    H122717   4.020   0.340   0.582  0.5596 -0.5926  0.4627
  434TIP3    H222718   4.142   0.319   0.670  2.3314 -0.0016 -1.7596
  435TIP3   OH222719   0.377   6.429   1.406  0.0156  0.0424 -0.3435
  435TIP3    H122720   0.281   6.429   1.413  0.1341 -0.0789  2.1975
  435TIP3    H222721   0.403   6.516   1.435  0.6969  0.2022 -1.3797
  436TIP3   OH222722   2.839   2.053  17.341  0.5764  0.1154  0.4240
  436TIP3    H122723   2.880   2.049  17.427 -0.1986  1.1154  0.8448
  436TIP3    H222724   2.909   2.084  17.283  1.0321 -0.3288  0.7256
  437TIP3   OH222725   4.877   4.902  10.831  0.1736 -0.3968 -0.3028
  437TIP3    H122726   4.937   4.968  10.795  0.3198 -0.5932 -0.4221
  437TIP3    H222727   4.901   4.821  10.787 -0.9537 -0.2606 -1.2060
  438TIP3   OH222728   6.524   5.683   0.078 -0.0530  0.2031 -0.0475
  438TIP3    H122729   6.461   5.667   0.149  0.7645 -2.0226  0.2791
  438TIP3    H222730   6.479   5.651  -0.000  0.2419 -0.4263  0.0271
  439TIP3   OH222731   0.096   3.905  14.795 -0.8644 -0.0940 -0.1490
  439TIP3    H122732   0.184   3.888  14.827 -0.5701  0.7072 -0.5221
  439TIP3    H222733   0.039   3.865  14.861 -0.2342 -1.0070 -0.1295
  440TIP3   OH222734   1.335   0.325  13.350 -0.4424 -0.1270  0.3394
  440TIP3    H122735   1.397   0.252  13.346 -1.1778 -0.7815  0.6630
  440TIP3    H222736   1.356   0.377  13.272 -0.6534 -1.3072 -0.5402
  441TIP3   OH222737   1.941   6.457   3.172 -0.2427  0.4021  0.2078
  441TIP3    H122738   1.998   6.490   3.102  0.0557 -0.3898  0.0604
  441TIP3    H222739   1.865   6.422   3.126  0.2639 -0.7529  0.1992
  442TIP3   OH222740   1.273   2.623  16.752  0.0624 -0.4585 -0.0834
  442TIP3    H122741   1.237   2.545  16.709 -0.1451 -0.6850  0.4877
  442TIP3    H222742   1.246   2.614  16.844 -0.1535  0.4044 -0.0606
  443TIP3   OH222743   1.782   2.660   1.105 -0.1018 -0.2841 -0.0883
  443TIP3    H122744   1.807   2.751   1.119  1.5701 -0.9013  1.3046
  443TIP3    H222745   1.763   2.654   1.011  1.1935  1.1579 -0.4764
  444TIP3   OH222746   1.501   4.317   4.706  0.7844 -0.1876  0.0618
  444TIP3    H122747   1.459   4.339   4.622  0.0071 -1.6382  0.0463
  444TIP3    H222748   1.437   4.344   4.772 -1.3241 -4.3230 -0.0028
  445TIP3   OH222749   3.734   6.471  12.691  0.1152 -0.0733  0.3726
  445TIP3    H122750   3.768   6.495  12.605 -0.3530 -3.3297 -0.8601
  445TIP3    H222751   3.677   6.544  12.716  2.1348  2.0785 -0.8768
  446TIP3   OH222752   1.053   1.181   4.269  0.1974  0.1566  0.6878
  446TIP3    H122753   0.984   1.121   4.298  1.3949 -1.4884  0.2934
  446TIP3    H222754   1.007   1.246   4.215 -1.0145 -1.0330  0.2187
  447TIP3   OH222755   5.184   0.251  11.718 -0.1501  0.1325 -0.6546
  447TIP3    H122756   5.185   0.274  11.625  0.5249  1.3979 -0.3462
  447TIP3    H222757   5.190   0.334  11.764  2.3959 -0.5731  0.5040
  448TIP3   OH222758   3.189   0.890  13.250 -0.3252  0.0873 -0.4602
  448TIP3    H122759   3.243   0.924  13.179 -1.3976  3.5994  0.2374
  448TIP3    H222760   3.234   0.915  13.330 -0.1975 -1.9890  0.1957
  449TIP3   OH222761   0.243   1.749  12.136 -0.4920  0.2930 -0.5151
  449TIP3    H122762   0.237   1.803  12.057  1.5278 -0.8645 -1.5192
  449TIP3    H222763   0.336   1.733  12.148 -0.7889 -0.1066  1.7686
  450TIP3   OH222764   2.477   1.876   2.504 -0.0543 -0.1373  0.3954
  450TIP3    H122765   2.568   1.879   2.535  0.3638 -0.0359 -0.7967
  450TIP3    H222766   2.432   1.943   2.556  0.7478  0.3913  0.4264
  451TIP3   OH222767   0.913   6.754   0.782 -0.3609  0.4878 -0.4261
  451TIP3    H122768   0.965   6.679   0.755 -0.2492  0.4474 -0.1090
  451TIP3    H222769   0.828   6.718   0.805 -1.3406  0.8437 -3.2065
  452TIP3   OH222770   2.741   0.672   3.630  0.3703 -0.6447 -0.5918
  452TIP3    H122771   2.793   0.729   3.573 -0.7544  0.7665 -0.2487
  452TIP3    H222772   2.676   0.633   3.571 -1.0622  1.1397 -0.2562
  453TIP3   OH222773   5.234   6.689  13.410 -1.3079  0.3726  0.6588
  453TIP3    H122774   5.234   6.696  13.315 -0.4258  2.5803  0.7659
  453TIP3    H222775   5.150   6.727  13.437 -1.7292 -0.6018  0.7858
  454TIP3   OH222776   3.541   3.216   0.032  0.9990 -0.3224 -0.4538
  454TIP3    H122777   3.567   3.263   0.111  0.2836 -0.5611 -0.0612
  454TIP3    H222778   3.497   3.137   0.065 -2.7150  1.3148 -0.9181
  455TIP3   OH222779   3.257   4.145  11.275 -0.7802 -0.1603  0.0409
  455TIP3    H122780   3.177   4.158  11.327  0.1909  1.4003  1.2240
  455TIP3    H222781   3.298   4.068  11.313 -1.4612 -0.6723 -0.2451
  456TIP3   OH222782   2.818   6.484  16.109 -0.0511 -0.0819  0.4631
  456TIP3    H122783   2.728   6.508  16.089  0.1089  0.5892  0.5474
  456TIP3    H222784   2.816   6.389  16.118 -0.4472 -0.2612 -1.1709
  457TIP3   OH222785   5.497   4.625  10.612 -0.1731 -0.7452 -0.7485
  457TIP3    H122786   5.543   4.632  10.696  0.4320 -1.1593 -1.0322
  457TIP3    H222787   5.549   4.680  10.553  0.0791 -1.3748 -1.1208
  458TIP3   OH222788   4.385   1.453   5.865 -0.3544 -0.6274 -0.8462
  458TIP3    H122789   4.382   1.547   5.882 -3.0771 -0.4874 -1.5994
  458TIP3    H222790   4.449   1.419   5.928  0.6018  1.6794 -0.4730
  459TIP3   OH222791   4.429   4.161   6.095  0.1940 -0.8338  0.6293
  459TIP3    H122792   4.397   4.212   6.170  0.1101  0.6412 -0.3666
  459TIP3    H222793   4.351   4.120   6.058  0.2377 -1.5767  1.3363
  460TIP3   OH222794   2.599   2.104  16.112 -0.7522 -0.2441  0.1742
  460TIP3    H122795   2.678   2.104  16.167 -0.5925 -0.6249 -0.0567
  460TIP3    H222796   2.628   2.141  16.029 -0.2677 -2.4654 -0.6942
  461TIP3   OH222797   1.529   0.823   0.285 -0.9040  0.6807  0.0218
  461TIP3    H122798   1.576   0.848   0.206 -0.9126  0.6970  0.0217
  461TIP3    H222799   1.448   0.874   0.282 -2.0029 -1.0565 -1.1458
  462TIP3   OH222800   0.209   0.093  16.942  0.2234 -0.2066  0.3653
  462TIP3    H122801   0.139   0.051  16.992  0.6534  0.2455  1.3664
  462TIP3    H222802   0.210   0.045  16.859 -1.8566  0.3473 -0.0575
  463TIP3   OH222803   2.231   0.751   2.732 -0.2655 -0.3736 -0.4895
  463TIP3    H122804   2.323   0.738   2.753  0.1561  0.2633 -1.8593
  463TIP3    H222805   2.189   0.762   2.817  1.2635  1.5143  0.0911
  464TIP3   OH222806   3.140   2.359   0.417  0.4367  0.9005 -0.5941
  464TIP3    H122807   3.068   2.394   0.365 -1.7268  0.4731  1.9362
  464TIP3    H222808   3.165   2.430   0.475 -0.0219  0.1228  0.5830
  465TIP3   OH222809   4.577   4.534   2.578  0.2317 -0.3301  0.2148
  465TIP3    H122810   4.609   4.616   2.540  0.3681 -0.1877  0.6306
  465TIP3    H222811   4.503   4.509   2.523 -1.6493  1.5480  1.7387
  466TIP3   OH222812   2.991   3.210   4.277 -0.6147  0.6432  0.1294
  466TIP3    H122813   2.939   3.290   4.267 -1.4045 -0.1567 -3.6690
  466TIP3    H222814   2.926   3.140   4.279  0.1861 -0.1140 -0.1903
  467TIP3   OH222815   2.057   0.604   1.038 -0.0003 -0.0044 -0.0717
  467TIP3    H122816   1.967   0.636   1.042  0.0587  0.0998  2.6826
  467TIP3    H222817   2.056   0.535   0.972 -1.5825  1.3546 -1.5701
  468TIP3   OH222818   5.452   5.527   2.107 -0.3645 -0.3158  0.7780
  468TIP3    H122819   5.445   5.441   2.065 -0.2025 -1.1396  2.3804
  468TIP3    H222820   5.375   5.533   2.163 -0.7980  0.9518  0.0944
  469TIP3   OH222821   6.568   2.091  16.849 -0.0947 -0.1868 -0.2588
  469TIP3    H122822   6.502   2.161  16.858  2.1572  2.1757 -0.9023
  469TIP3    H222823   6.612   2.089  16.934  0.5819 -0.0392 -0.6028
  470TIP3   OH222824   3.702   3.126  15.009  0.0245  0.3368  0.1756
  470TIP3    H122825   3.723   3.128  14.916 -0.0466 -0.5898  0.1317
  470TIP3    H222826   3.647   3.203  15.023  0.2068  0.5961 -0.5040
  471TIP3   OH222827   2.492   1.717  13.642 -0.2468  0.5729 -0.5582
  471TIP3    H122828   2.581   1.709  13.606  0.1242 -0.9691  0.5780
  471TIP3    H222829   2.436   1.674  13.578 -0.0717  0.9498 -0.9626
  472TIP3   OH222830   3.948   3.729  17.090  0.5119 -0.2262 -0.2083
  472TIP3    H122831   3.986   3.723  17.003  0.8193 -0.5778 -0.0554
  472TIP3    H222832   3.945   3.638  17.121 -0.2571 -0.1778 -0.1356
  473TIP3   OH222833   2.838   3.689   4.515 -0.1966 -0.5221  0.2634
  473TIP3    H122834   2.928   3.679   4.547  0.0864 -3.1715 -1.1227
  473TIP3    H222835   2.797   3.748   4.578  2.3865  0.5071  1.1322
  474TIP3   OH222836   0.829   2.143   3.556 -0.0414 -0.0930 -0.7423
  474TIP3    H122837   0.833   2.223   3.504 -0.7250  0.0974 -0.5101
  474TIP3    H222838   0.758   2.092   3.517 -0.5135  0.0186 -0.0559
  475TIP3   OH222839   2.794   0.465   5.904 -0.0717  0.3826  0.1083
  475TIP3    H122840   2.881   0.458   5.866 -0.5804 -1.9473 -0.8743
  475TIP3    H222841   2.735   0.465   5.828 -1.0103 -1.4322  0.7761
  476TIP3   OH222842   5.764   2.311  14.789  0.5718  0.4527 -0.6390
  476TIP3    H122843   5.680   2.350  14.763  0.7695  0.8500 -0.6834
  476TIP3    H222844   5.794   2.365  14.862 -0.0272 -0.7167  0.5221
  477TIP3   OH222845   3.648   0.995  10.456  0.4634 -0.2803  0.2115
  477TIP3    H122846   3.673   1.049  10.381 -0.8036 -1.5674 -1.1916
  477TIP3    H222847   3.698   1.032  10.529  2.4586  0.4391 -1.4208
  478TIP3   OH222848   2.859   0.352  13.967  0.4508 -0.6153 -0.7400
  478TIP3    H122849   2.934   0.292  13.970  1.0832  0.0258 -2.4779
  478TIP3    H222850   2.785   0.299  13.998  1.2239 -1.9038 -1.0054
  479TIP3   OH222851   6.299   0.843  17.261 -0.3041  0.1063 -0.1021
  479TIP3    H122852   6.245   0.793  17.199  0.5434 -0.7371 -0.1789
  479TIP3    H222853   6.316   0.781  17.332  1.8754 -0.1867 -0.8198
  480TIP3   OH222854   4.457   2.524  11.601 -0.2900 -0.1199  0.6482
  480TIP3    H122855   4.381   2.467  11.612 -1.1618  0.9105  0.0957
  480TIP3    H222856   4.424   2.612  11.620  0.5771  0.4325 -0.3538
  481TIP3   OH222857   2.209   5.378   2.724  0.2770 -0.4458  0.0836
  481TIP3    H122858   2.225   5.300   2.671  1.7273 -0.0604 -0.0925
  481TIP3    H222859   2.291   5.427   2.719 -0.2379  0.5538  1.0910
  482TIP3   OH222860   1.558   5.550   5.688 -0.1598  0.4142 -0.3915
  482TIP3    H122861   1.585   5.545   5.780  1.0452  0.0800 -0.7524
  482TIP3    H222862   1.541   5.644   5.674 -2.2159  0.2498  0.6591
  483TIP3   OH222863   3.691   1.233   0.498  0.4448 -0.1313  0.1399
  483TIP3    H122864   3.681   1.269   0.586  0.5218 -0.2607  0.2021
  483TIP3    H222865   3.662   1.303   0.439  0.8996  0.1533  0.2450
  484TIP3   OH222866   4.148   3.753   2.034  0.9546 -0.4365 -0.3793
  484TIP3    H122867   4.102   3.672   2.056 -0.6050  0.9824  2.0401
  484TIP3    H222868   4.092   3.797   1.971  0.3759 -0.0375  0.3876
  485TIP3   OH222869   5.399   0.281   2.738  0.0120 -0.1033  0.3161
  485TIP3    H122870   5.346   0.326   2.672 -0.7554 -0.2472  0.8332
  485TIP3    H222871   5.363   0.310   2.822 -1.0758 -2.3324  0.6851
  486TIP3   OH222872   3.648   5.777  16.182 -0.8065  0.6019  0.1327
  486TIP3    H122873   3.583   5.832  16.139 -1.4914  1.6175  2.3027
  486TIP3    H222874   3.614   5.688  16.173 -0.8566  0.7531 -1.4532
  487TIP3   OH222875   6.471   3.422  11.975  0.0951  0.1167  0.2007
  487TIP3    H122876   6.395   3.369  11.950  0.1472 -0.1665  0.6364
  487TIP3    H222877   6.538   3.357  11.998  1.3826  0.2609 -2.7046
  488TIP3   OH222878   0.895   3.424  12.342 -0.5276  0.2333 -0.2599
  488TIP3    H122879   0.969   3.378  12.382 -0.9653 -1.0970 -0.9319
  488TIP3    H222880   0.928   3.453  12.257 -0.0317  1.8351  0.4443
  489TIP3   OH222881   2.038   3.942   5.166  0.4220  0.0532  0.1945
  489TIP3    H122882   2.080   4.023   5.137  0.4824 -0.1211 -0.2120
  489TIP3    H222883   2.083   3.872   5.118  0.5770 -0.2533  0.7722
  490TIP3   OH222884   3.008   0.084  14.195 -0.1039 -0.1319 -0.5041
  490TIP3    H122885   2.975   0.015  14.138 -0.4212 -0.0669 -0.4054
  490TIP3    H222886   3.068   0.134  14.141  0.6329 -0.8711 -0.3919
  491TIP3   OH222887   1.753   0.413   6.766 -0.1700  0.2146 -0.1042
  491TIP3    H122888   1.848   0.416   6.761  0.0696  1.0315  3.1335
  491TIP3    H222889   1.733   0.319   6.767  0.7686  0.0032  0.9057
  492TIP3   OH222890   4.018   0.545   6.127  0.1198 -0.2590  0.0615
  492TIP3    H122891   3.934   0.555   6.171  0.9312  1.0728  1.4256
  492TIP3    H222892   3.996   0.526   6.036 -1.6430  0.7040  0.2508
  493TIP3   OH222893   1.677   0.296  13.861  0.0358 -0.1303 -0.0298
  493TIP3    H122894   1.695   0.376  13.810 -1.6679 -0.1889 -0.8015
  493TIP3    H222895   1.759   0.247  13.858  1.1180  1.5750  0.4539
  494TIP3   OH222896   1.536   3.189   5.369  0.1751  0.3860 -0.7825
  494TIP3    H122897   1.567   3.273   5.334  0.9726 -0.2016 -1.5352
  494TIP3    H222898   1.552   3.126   5.298  1.2554 -0.7404  0.4004
  495TIP3   OH222899   5.663   6.550  16.454 -0.3064 -0.0384 -0.0544
  495TIP3    H122900   5.662   6.548  16.550  0.0611  1.4321 -0.0001
  495TIP3    H222901   5.707   6.468  16.430 -2.3072 -1.5113  0.9286
  496TIP3   OH222902   4.930   5.959   6.705 -0.8804  0.1180 -0.3461
  496TIP3    H122903   4.953   5.882   6.652 -1.6393  0.4168 -1.1327
  496TIP3    H222904   4.998   5.962   6.772 -0.5368 -0.9344 -0.6148
  497TIP3   OH222905   3.047   4.033   0.406 -0.3794 -0.1944  0.2792
  497TIP3    H122906   2.997   4.108   0.375 -0.1043  0.3229  1.0669
  497TIP3    H222907   3.007   3.958   0.361  0.1203  0.5156 -1.4625
  498TIP3   OH222908   3.541   2.854   1.915  0.3000  0.0059 -0.3328
  498TIP3    H122909   3.492   2.783   1.873 -0.1463 -0.4871  0.9847
  498TIP3    H222910   3.592   2.892   1.844  0.5394 -1.6119 -1.0784
  499TIP3   OH222911   2.403   3.491   0.001  0.1189 -0.5660 -0.6505
  499TIP3    H122912   2.408   3.410   0.054  0.0576  0.6000  1.2303
  499TIP3    H222913   2.348   3.550   0.052 -0.0368  0.6106 -2.1108
  500TIP3   OH222914   1.319   4.958  10.805 -0.5975  0.1179  0.1124
  500TIP3    H122915   1.350   5.043  10.775  0.2496  0.7512  2.5220
  500TIP3    H222916   1.395   4.900  10.796 -0.2104  0.4100  1.2769
  501TIP3   OH222917   1.242   2.948  17.328 -0.4682  0.4194  0.1784
  501TIP3    H122918   1.271   2.986  17.245  1.1038  0.7731  0.8407
  501TIP3    H222919   1.205   3.022  17.376 -1.4370  0.2016 -0.2183
  502TIP3   OH222920   0.379   2.963  15.737 -0.3477 -0.3111 -0.1711
  502TIP3    H122921   0.353   2.926  15.821 -1.1400  0.0051 -0.2734
  502TIP3    H222922   0.460   2.916  15.715  0.5907  0.5085  1.3655
  503TIP3   OH222923   2.636   0.568  15.218 -0.2533  0.4762  0.5705
  503TIP3    H122924   2.706   0.631  15.236  2.4148 -2.1212  0.0739
  503TIP3    H222925   2.616   0.530  15.303  0.9481 -0.6411  0.3917
  504TIP3   OH222926   1.495   3.221   0.163 -0.2446 -0.8171 -0.5536
  504TIP3    H122927   1.527   3.309   0.145 -1.6490 -0.3256 -0.7464
  504TIP3    H222928   1.486   3.218   0.259 -1.1425 -0.3821 -0.6102
  505TIP3   OH222929   1.507   1.396   1.220 -0.4345  0.2015  0.0325
  505TIP3    H122930   1.441   1.341   1.261 -0.6830  1.1160  0.8812
  505TIP3    H222931   1.459   1.448   1.155 -0.3780  0.1435 -0.0556
  506TIP3   OH222932   3.332   2.768   1.187  0.2379 -0.1649 -0.3096
  506TIP3    H122933   3.342   2.807   1.100 -1.1442 -0.7572 -0.7598
  506TIP3    H222934   3.420   2.774   1.226  0.7867  0.4750 -1.5768
  507TIP3   OH222935   2.914   1.720  16.325  0.2360  0.4394 -0.1133
  507TIP3    H122936   2.967   1.783  16.373  0.3143  1.0176 -0.9316
  507TIP3    H222937   2.900   1.648  16.386 -2.8246  2.6940  2.2080
  508TIP3   OH222938   2.071   0.690  13.443 -0.3474  0.6178  0.0181
  508TIP3    H122939   2.097   0.690  13.535 -0.9621  0.8500  0.1952
  508TIP3    H222940   1.988   0.737  13.441 -0.3988  0.5142 -0.6410
  509TIP3   OH222941   3.776   1.285  14.440 -0.1498 -0.4729  0.2610
  509TIP3    H122942   3.688   1.322  14.429  0.8290  2.6660  1.8442
  509TIP3    H222943   3.832   1.338  14.383  1.3546  0.7199  2.6994
  510TIP3   OH222944   2.429   2.487  16.055 -0.9542  0.4153  0.5797
  510TIP3    H122945   2.448   2.439  16.136 -2.6450  1.5148  1.6955
  510TIP3    H222946   2.383   2.565  16.084  0.1216  1.8299 -1.3346
  511TIP3   OH222947   5.233   2.409  16.802  0.6253  0.6112  0.6512
  511TIP3    H122948   5.174   2.335  16.790  0.5080  1.0126 -1.7758
  511TIP3    H222949   5.180   2.486  16.783  1.0052  1.2887  2.1737
  512TIP3   OH222950   1.260   6.544   2.876 -0.1536  1.1994 -0.1415
  512TIP3    H122951   1.197   6.502   2.935  0.6064 -1.6407 -1.2061
  512TIP3    H222952   1.338   6.557   2.930  0.2014 -0.4775 -0.1972
  513TIP3   OH222953   0.923   5.899  13.100 -0.4094 -0.0564 -0.2413
  513TIP3    H122954   0.892   5.960  13.032  0.8507  0.8379 -0.0508
  513TIP3    H222955   1.012   5.928  13.119 -0.3803 -0.9331  1.0767
  514TIP3   OH222956   5.033   5.730  13.029  0.0506  0.5265 -0.4229
  514TIP3    H122957   5.013   5.638  13.047  0.3873  0.4601 -0.3847
  514TIP3    H222958   4.960   5.779  13.069  0.5728  0.3568  0.7690
  515TIP3   OH222959   0.572   2.079   2.672 -0.3646 -0.3725  0.3126
  515TIP3    H122960   0.563   2.074   2.577  0.4773 -0.7153  0.2407
  515TIP3    H222961   0.496   2.129   2.701 -0.0951  0.6328 -0.6486
  516TIP3   OH222962   0.393   2.356  16.838  0.1588 -0.3382 -0.3577
  516TIP3    H122963   0.333   2.418  16.879  1.4117  0.0376  1.0168
  516TIP3    H222964   0.338   2.302  16.782 -0.8263  2.9038 -2.8188
  517TIP3   OH222965   1.576   3.840   1.824  0.3270 -0.1102  0.2496
  517TIP3    H122966   1.592   3.918   1.772 -1.4585  0.6170  0.6971
  517TIP3    H222967   1.589   3.869   1.915 -1.7492  0.1139  0.5189
  518TIP3   OH222968   0.503   0.327  17.032  0.4348 -0.1540  0.6560
  518TIP3    H122969   0.467   0.287  16.953 -0.7408  1.2964  0.4195
  518TIP3    H222970   0.427   0.356  17.082  1.1987  0.6029  1.4363
  519TIP3   OH222971   3.787   3.342  11.709  0.3327 -0.6139 -0.2209
  519TIP3    H122972   3.838   3.298  11.640  0.8491 -0.2651 -0.0680
  519TIP3    H222973   3.699   3.349  11.672  0.5111 -0.7793 -0.6943
  520TIP3   OH222974   3.415   1.782   3.302  0.0336  0.5352 -0.7453
  520TIP3    H122975   3.353   1.733   3.355 -0.9050  0.7665 -1.6031
  520TIP3    H222976   3.494   1.787   3.356 -0.8139  0.5695  0.5294
  521TIP3   OH222977   1.717   3.632  15.361  0.2305  0.4582  0.5664
  521TIP3    H122978   1.629   3.595  15.359  0.1910  0.5366 -1.2879
  521TIP3    H222979   1.704   3.725  15.345  0.7054  0.1545 -2.1574
  522TIP3   OH222980   3.900   6.217  11.758 -0.4963 -0.6397  0.1951
  522TIP3    H122981   3.860   6.298  11.725  0.0741  0.2862  1.6853
  522TIP3    H222982   3.980   6.246  11.802 -0.6871 -1.9288  1.4505
  523TIP3   OH222983   3.864   5.766   5.207 -0.6028 -0.2958  0.3407
  523TIP3    H122984   3.920   5.748   5.132  1.5745  1.4913  1.4209
  523TIP3    H222985   3.915   5.737   5.283  0.0432  3.4247  1.5562
  524TIP3   OH222986   6.354   4.030   0.139  0.3737  0.5876  0.0926
  524TIP3    H122987   6.321   4.118   0.157  0.4746  0.8826 -1.1031
  524TIP3    H222988   6.305   4.000   0.063  1.2386  0.1121 -0.2982
  525TIP3   OH222989   2.302   0.828   6.273 -0.2431 -0.5376 -0.2861
  525TIP3    H122990   2.309   0.922   6.254  0.2815 -0.7935 -1.4216
  525TIP3    H222991   2.346   0.818   6.357 -0.7531  0.3009  0.1035
  526TIP3   OH222992   0.953   4.225   2.385 -0.1700 -0.6785  0.0785
  526TIP3    H122993   1.005   4.252   2.308 -0.1396  0.1026  0.3646
  526TIP3    H222994   0.862   4.233   2.357 -0.1567 -0.6150  0.0542
  527TIP3   OH222995   6.664   2.947  16.768  0.7122 -0.2600  0.5253
  527TIP3    H122996   6.576   2.984  16.769  0.8010 -0.0522  0.9162
  527TIP3    H222997   6.703   2.979  16.687  0.1367 -1.0628 -0.0947
  528TIP3   OH222998   3.189   1.803  14.476  0.5017 -0.6723  0.1654
  528TIP3    H122999   3.203   1.896  14.489  2.2825 -1.1069  1.8725
  528TIP3    H223000   3.112   1.782  14.529  0.5267 -0.2966  0.3497
  529TIP3   OH223001   6.453   4.741  16.907  0.0435 -0.4975  0.4300
  529TIP3    H123002   6.397   4.755  16.831  0.6986  0.2348  0.0747
  529TIP3    H223003   6.443   4.648  16.928  1.4652 -1.2243 -1.8391
  530TIP3   OH223004   0.091   2.887   0.940  0.3783  0.1288  0.1649
  530TIP3    H123005   0.025   2.871   0.872  0.1975 -1.7131  0.7169
  530TIP3    H223006   0.041   2.900   1.020  0.4929  4.0721 -0.2176
  531TIP3   OH223007   4.667   4.332  17.140 -0.1465  0.1429  0.4261
  531TIP3    H123008   4.638   4.369  17.224 -2.3327  0.7032 -0.5196
  531TIP3    H223009   4.640   4.396  17.075  0.9235 -0.6002 -0.8013
  532TIP3   OH223010   1.924   2.956   5.759  0.0881 -0.0113 -0.1105
  532TIP3    H123011   1.884   3.000   5.685  0.6435  1.4348  0.4269
  532TIP3    H223012   1.859   2.963   5.829  1.1777  2.2797  0.7433
  533TIP3   OH223013   3.781   4.121   4.679 -0.6809  0.4411  0.0999
  533TIP3    H123014   3.861   4.164   4.710 -1.9475  1.8784  1.5110
  533TIP3    H223015   3.774   4.042   4.733 -0.9397  1.0468  0.9709
  534TIP3   OH223016   2.102   2.292   2.391  0.3724 -0.1020 -0.2551
  534TIP3    H123017   2.147   2.311   2.309 -3.5347  2.4765 -2.1421
  534TIP3    H223018   2.146   2.347   2.456  0.6696  1.5297 -1.7531
  535TIP3   OH223019   3.375   2.478  11.922  0.2332  0.3561 -0.3915
  535TIP3    H123020   3.313   2.550  11.915  0.4294  0.5177 -0.4617
  535TIP3    H223021   3.339   2.410  11.865 -1.3331 -0.6149  1.6241
  536TIP3   OH223022   3.751   4.797  15.049 -0.3978 -0.3664  0.4698
  536TIP3    H123023   3.794   4.875  15.014 -0.8962  0.5169  1.7674
  536TIP3    H223024   3.794   4.781  15.133 -0.5525 -1.2882  0.3860
  537TIP3   OH223025   4.954   3.931  15.547 -0.5207 -0.5603  0.6428
  537TIP3    H123026   4.968   3.853  15.601 -0.0500  0.1664  1.6121
  537TIP3    H223027   4.876   3.972  15.585 -0.5043 -0.3335  0.4293
  538TIP3   OH223028   0.788   3.061  11.329  0.4356 -0.3174 -0.1712
  538TIP3    H123029   0.804   3.135  11.270  0.4608  0.0076  0.2428
  538TIP3    H223030   0.693   3.061  11.341  0.4497 -0.2636 -0.0579
  539TIP3   OH223031   2.797   1.205   5.171 -0.2549 -0.1076  0.0025
  539TIP3    H123032   2.799   1.114   5.142 -0.9452 -0.2794  0.4637
  539TIP3    H223033   2.753   1.202   5.256  0.0309  0.6158  0.1829
  540TIP3   OH223034   2.369   2.599   0.556  0.0735 -0.4470  0.0819
  540TIP3    H123035   2.368   2.695   0.556 -0.8005 -0.4273 -1.5450
  540TIP3    H223036   2.350   2.575   0.647 -1.7262  0.9267  0.1168
  541TIP3   OH223037   0.471   3.890  12.321 -0.1194  0.0701 -0.3614
  541TIP3    H123038   0.442   3.976  12.293  1.1661 -0.0492 -2.2585
  541TIP3    H223039   0.550   3.906  12.373 -0.6056  0.1038  0.3698
  542TIP3   OH223040   3.238   0.739   1.301 -0.2661  0.1958 -0.0970
  542TIP3    H123041   3.277   0.765   1.385 -0.2813  0.2796 -0.1162
  542TIP3    H223042   3.242   0.643   1.302  1.4551  0.2342 -0.8175
  543TIP3   OH223043   4.363   1.484   0.140 -0.2869 -0.7108  0.2937
  543TIP3    H123044   4.362   1.527   0.225 -1.5074 -1.9275  0.9442
  543TIP3    H223045   4.334   1.552   0.079 -0.2491 -0.0654  0.9768
  544TIP3   OH223046   3.836   1.805  14.266  0.2625  0.0636 -0.7979
  544TIP3    H123047   3.902   1.740  14.289  2.5425  2.5599  0.3771
  544TIP3    H223048   3.791   1.824  14.348 -0.8307 -0.4331 -1.2613
  545TIP3   OH223049   4.669   2.629   4.957 -0.2414  0.1999 -0.0161
  545TIP3    H123050   4.751   2.657   4.999  0.5525 -0.8670 -0.8115
  545TIP3    H223051   4.657   2.539   4.986 -0.2741 -0.1823 -1.1803
  546TIP3   OH223052   2.286   3.250  14.634  0.1800  0.0571 -0.4997
  546TIP3    H123053   2.347   3.230  14.705 -0.3471  0.3473  0.0423
  546TIP3    H223054   2.325   3.209  14.557  0.6893 -0.3822 -0.0180
  547TIP3   OH223055   0.036   0.970   1.258  0.6923 -0.3194  0.1841
  547TIP3    H123056  -0.020   1.034   1.301  0.8457  0.4527 -0.7397
  547TIP3    H223057   0.096   1.022   1.205  1.1775 -1.2019 -0.1487
  548TIP3   OH223058   6.443   4.453  16.253 -0.7047 -0.7277 -0.3574
  548TIP3    H123059   6.534   4.484  16.252 -0.5524 -1.1890 -1.3098
  548TIP3    H223060   6.446   4.373  16.306 -0.6096 -0.6053 -0.1748
  549TIP3   OH223061   4.807   5.027   4.746  0.6121  0.5093 -0.5708
  549TIP3    H123062   4.858   5.076   4.810  1.4656 -1.8833  0.7282
  549TIP3    H223063   4.722   5.070   4.745  0.4177  0.4207  2.5563
  550TIP3   OH223064   4.408   5.320  13.827 -0.0439  0.1307  0.1719
  550TIP3    H123065   4.463   5.256  13.784 -1.2709  0.6347 -2.3731
  550TIP3    H223066   4.403   5.393  13.764 -0.6699  1.6447  1.8896
  551TIP3   OH223067   3.315   3.147  11.631 -0.5223  0.2116  0.2053
  551TIP3    H123068   3.288   3.055  11.631 -1.9954  0.6045 -1.4655
  551TIP3    H223069   3.234   3.196  11.618 -0.0404  1.9041  2.7215
  552TIP3   OH223070   6.540   1.599   2.623  0.1643  0.0854 -0.2804
  552TIP3    H123071   6.579   1.544   2.690 -0.3382 -1.5384 -1.2733
  552TIP3    H223072   6.614   1.633   2.573  0.4082 -1.1903 -0.7984
  553TIP3   OH223073   3.305   6.097   5.969 -0.2081  0.1821 -0.1950
  553TIP3    H123074   3.307   6.090   5.873  0.3105 -0.0951 -0.1693
  553TIP3    H223075   3.389   6.138   5.991 -0.2148  0.0070  0.1592
  554TIP3   OH223076   3.500   4.847   2.719  0.2365  0.0839  1.1333
  554TIP3    H123077   3.462   4.764   2.690 -0.4869  0.1317  1.9058
  554TIP3    H223078   3.540   4.884   2.640 -0.4918 -0.4274  0.5061
  555TIP3   OH223079   1.586   3.578  16.621 -0.2678  0.1296 -0.1168
  555TIP3    H123080   1.550   3.667  16.616  0.6239  0.4112 -3.2955
  555TIP3    H223081   1.560   3.537  16.539  2.8758 -1.1271 -0.5991
  556TIP3   OH223082   5.252   3.137   2.155  0.0383  0.2732 -0.5155
  556TIP3    H123083   5.228   3.070   2.219  0.2889 -0.9783 -1.6743
  556TIP3    H223084   5.346   3.125   2.141  0.1756  1.1757 -0.4101
  557TIP3   OH223085   0.129   3.627  13.447 -0.5130 -0.4911  0.5447
  557TIP3    H123086   0.143   3.643  13.353 -0.8109 -1.7368  0.2662
  557TIP3    H223087   0.188   3.688  13.491 -0.1559 -0.0892 -0.4529
  558TIP3   OH223088   6.449   2.198  14.164  0.1712  0.1371  0.3010
  558TIP3    H123089   6.390   2.124  14.158 -2.6437  2.1729  0.6687
  558TIP3    H223090   6.491   2.188  14.250  0.6993 -1.5312 -0.1145
  559TIP3   OH223091   4.642   5.064  16.912  0.3594  0.0229  0.2698
  559TIP3    H123092   4.550   5.075  16.886  0.0031 -0.2931  1.3511
  559TIP3    H223093   4.688   5.135  16.867 -0.4329  0.2558 -0.1901
  560TIP3   OH223094   3.812   1.244  16.659 -0.1319 -0.4159  0.1279
  560TIP3    H123095   3.824   1.336  16.634 -1.1039 -0.3240 -0.0401
  560TIP3    H223096   3.736   1.215  16.608 -0.3635 -1.0591  0.8154
  561TIP3   OH223097   5.567   4.761   4.108  0.1223 -0.6255 -1.1786
  561TIP3    H123098   5.648   4.810   4.095  0.5203 -1.0402 -0.3830
  561TIP3    H223099   5.585   4.706   4.184 -1.2500 -0.0103 -0.3763
  562TIP3   OH223100   2.872   1.027   2.353 -0.4580 -0.0450 -0.5451
  562TIP3    H123101   2.874   1.045   2.259 -0.2404  0.6535 -0.4127
  562TIP3    H223102   2.947   1.075   2.389 -0.0024 -1.0461 -0.1382
  563TIP3   OH223103   2.063   6.450   0.888 -0.1834 -0.2325 -0.1609
  563TIP3    H123104   2.090   6.358   0.885  0.8415 -0.0678  1.9835
  563TIP3    H223105   2.129   6.496   0.837 -1.2286 -0.7455 -2.0529
  564TIP3   OH223106   4.019   2.602   1.734  0.3310  0.3206  0.6038
  564TIP3    H123107   3.957   2.627   1.803  1.5922  2.4200  1.0683
  564TIP3    H223108   4.105   2.606   1.776  0.9261 -1.0895 -0.3986
  565TIP3   OH223109   4.112   4.912   3.189 -0.2832 -0.0616 -0.3688
  565TIP3    H123110   4.052   4.910   3.115  1.9056 -1.0949 -2.2226
  565TIP3    H223111   4.171   4.985   3.170  0.3390 -0.3626  0.3531
  566TIP3   OH223112   6.383   5.131  11.597 -0.8810  0.6806  0.3853
  566TIP3    H123113   6.323   5.058  11.582  0.8977 -0.7473 -0.0877
  566TIP3    H223114   6.397   5.132  11.692 -1.2485  0.7092  0.4415
  567TIP3   OH223115   5.185   3.548  13.358 -0.0992  0.3650  0.2766
  567TIP3    H123116   5.209   3.630  13.314 -0.0095  0.2403  0.0946
  567TIP3    H223117   5.199   3.480  13.292  0.1252  0.1683  0.5221
  568TIP3   OH223118   4.438   0.693   5.694  0.1365  0.3326  0.0340
  568TIP3    H123119   4.509   0.699   5.758 -0.7354  1.0177  0.9780
  568TIP3    H223120   4.398   0.608   5.711  0.8563 -0.1560 -0.6565
  569TIP3   OH223121   5.628   5.378   2.669 -0.8063  0.2372 -0.1336
  569TIP3    H123122   5.587   5.293   2.653 -0.5763 -0.0668  0.8352
  569TIP3    H223123   5.675   5.398   2.588  0.1723 -1.1519  0.0557
  570TIP3   OH223124   3.795   6.433   1.186 -0.1063 -0.4545 -0.1113
  570TIP3    H123125   3.712   6.401   1.150 -0.5504  0.3225  0.1869
  570TIP3    H223126   3.824   6.499   1.123 -0.4021  0.2288  0.4515
  571TIP3   OH223127   1.591   5.126   6.410 -0.0909  0.3555  0.3585
  571TIP3    H123128   1.555   5.142   6.498 -0.6482 -0.3528  0.2626
  571TIP3    H223129   1.535   5.178   6.352 -0.6807 -0.3852  0.2591
  572TIP3   OH223130   0.805   0.568  12.705 -0.4711  0.0312 -0.5054
  572TIP3    H123131   0.759   0.577  12.788  0.5672 -2.7356  0.5140
  572TIP3    H223132   0.770   0.637  12.649 -2.5254  0.8269  1.6296
  573TIP3   OH223133   5.738   0.952   4.874 -0.3513 -0.2712 -0.4403
  573TIP3    H123134   5.812   0.906   4.913 -0.6193 -0.3575 -0.0297
  573TIP3    H223135   5.767   0.972   4.785  0.6437  0.7869  0.0934
  574TIP3   OH223136   0.748   0.037  11.733  0.1179 -0.3480  0.3639
  574TIP3    H123137   0.773   0.128  11.722 -2.0409  0.1323 -1.2928
  574TIP3    H223138   0.757  -0.002  11.647  0.4193 -1.5657  0.9191
  575TIP3   OH223139   4.866   5.262  14.255 -0.5207 -0.3984 -0.0716
  575TIP3    H123140   4.900   5.240  14.342 -0.0149 -0.0998 -0.1878
  575TIP3    H223141   4.922   5.212  14.195 -0.4574 -0.1075 -0.2546
  576TIP3   OH223142   6.124   2.972   2.488 -0.2227  0.0194  0.4428
  576TIP3    H123143   6.153   3.032   2.557  0.8258 -0.7140  0.6584
  576TIP3    H223144   6.174   2.891   2.504 -1.4435 -0.8461  0.0350
  577TIP3   OH223145   0.329   5.424  16.224  0.1448 -0.2136  0.7300
  577TIP3    H123146   0.331   5.518  16.241  1.2114 -0.2544  0.8433
  577TIP3    H223147   0.237   5.400  16.238  0.2004  0.4711  2.6023
  578TIP3   OH223148   3.358   5.953   1.872 -0.2450  0.6668 -0.4039
  578TIP3    H123149   3.293   5.919   1.933 -0.8967  1.7822 -0.4569
  578TIP3    H223150   3.366   5.886   1.805  0.0833 -0.3361  0.6112
  579TIP3   OH223151   1.759   1.642  14.486 -0.5891 -0.4589 -0.1968
  579TIP3    H123152   1.819   1.652  14.412 -1.2692 -0.8733 -0.8175
  579TIP3    H223153   1.808   1.590  14.549 -0.9325 -2.4439 -1.4867
  580TIP3   OH223154   0.531   3.045  11.441  0.0830 -0.2080 -0.1038
  580TIP3    H123155   0.462   2.991  11.403 -0.6271 -0.4849  1.5088
  580TIP3    H223156   0.547   3.007  11.527 -1.5745  2.9915  1.8204
  581TIP3   OH223157   4.536   5.892   2.965  0.3493 -0.2222  0.2033
  581TIP3    H123158   4.544   5.960   3.031 -0.0206  0.1692 -0.1464
  581TIP3    H223159   4.626   5.871   2.940  0.4664  0.0760  0.3744
  582TIP3   OH223160   0.686   6.716   0.199  0.7353 -0.2083 -0.6121
  582TIP3    H123161   0.671   6.804   0.165  0.1535  0.1240  0.4787
  582TIP3    H223162   0.710   6.729   0.291 -1.5661 -1.2725  0.2070
  583TIP3   OH223163   3.229   3.921   0.857  0.5816 -0.2800 -0.7316
  583TIP3    H123164   3.139   3.945   0.879  0.6132 -1.1622  0.4473
  583TIP3    H223165   3.226   3.902   0.763 -0.7209 -1.4167 -0.4822
  584TIP3   OH223166   2.555   1.021  14.510  0.1313  0.3523 -0.3007
  584TIP3    H123167   2.626   0.967  14.546 -0.9795 -0.7529  0.2925
  584TIP3    H223168   2.552   0.999  14.417  1.2019  1.1590 -0.5493
  585TIP3   OH223169   3.016   2.318  13.014 -0.0285  0.3192  0.4812
  585TIP3    H123170   2.924   2.303  12.997  0.6888 -0.7872 -3.2226
  585TIP3    H223171   3.057   2.233  13.003  1.7839  1.3369 -1.3026
  586TIP3   OH223172   1.577   2.084   5.025 -0.4057  0.1351 -0.3115
  586TIP3    H123173   1.640   2.034   4.974  1.0553  1.5309  0.0586
  586TIP3    H223174   1.579   2.044   5.112  0.5291  0.6376 -0.0974
  587TIP3   OH223175   2.928   0.053   3.683 -0.5277 -0.0763  0.6056
  587TIP3    H123176   2.842   0.020   3.705 -0.4065 -0.8117  0.0225
  587TIP3    H223177   2.913   0.113   3.610 -0.4159 -1.2919 -0.4611
  588TIP3   OH223178   3.586   0.295  12.600  0.1607 -0.1855  0.0691
  588TIP3    H123179   3.521   0.307  12.669  0.8903  0.8035  0.6141
  588TIP3    H223180   3.555   0.348  12.527  1.2164  1.7977  0.9684
  589TIP3   OH223181   5.314   5.565  11.918  0.5885 -0.6221 -0.1556
  589TIP3    H123182   5.235   5.517  11.890 -0.9012  0.8561  1.2984
  589TIP3    H223183   5.312   5.646  11.867  1.3371 -0.6900 -0.3010
  590TIP3   OH223184   5.650   5.533  14.896  0.0944  0.0594  0.0387
  590TIP3    H123185   5.727   5.524  14.951  0.7728  1.2346 -0.6897
  590TIP3    H223186   5.664   5.470  14.825  0.9564  1.0615 -0.7065
  591TIP3   OH223187   2.589   0.991  13.665  0.0218 -0.3854  0.0415
  591TIP3    H123188   2.508   0.976  13.617 -0.1288 -2.6723  0.8882
  591TIP3    H223189   2.589   0.924  13.733  2.5193 -0.2965  0.2162
  592TIP3   OH223190   2.137   4.738   5.280  0.6416 -0.0735 -0.6871
  592TIP3    H123191   2.155   4.680   5.354  0.5017 -0.9668 -1.3479
  592TIP3    H223192   2.182   4.698   5.206  0.3968  0.5670 -1.1889
  593TIP3   OH223193   0.575   0.748   2.249 -0.6825  0.7440 -0.1383
  593TIP3    H123194   0.584   0.825   2.192  0.5061 -0.3932 -1.5684
  593TIP3    H223195   0.655   0.698   2.236 -1.7990 -1.2224  0.0234
  594TIP3   OH223196   5.680   1.934  16.838 -0.6020 -0.5552 -0.4888
  594TIP3    H123197   5.630   1.960  16.760 -1.1841 -0.6214 -0.1456
  594TIP3    H223198   5.769   1.917  16.806 -0.3285  1.3250 -0.8197
  595TIP3   OH223199   0.852   5.503  11.452  0.2052 -0.4570 -0.0074
  595TIP3    H123200   0.774   5.501  11.508 -0.7871  0.8430 -1.2570
  595TIP3    H223201   0.848   5.420  11.403 -1.0694  0.0763 -0.8762
  596TIP3   OH223202   6.698   0.429  14.406 -0.4675 -0.0931  0.2462
  596TIP3    H123203   6.759   0.358  14.424  1.3388  2.0473  3.4542
  596TIP3    H223204   6.618   0.405  14.452  0.0698 -0.1676  1.1568
  597TIP3   OH223205   2.804   0.280  11.361  0.1239  0.1184 -0.6416
  597TIP3    H123206   2.730   0.297  11.303 -0.8267 -1.3410  0.0746
  597TIP3    H223207   2.767   0.286  11.450  0.6547 -1.3807 -0.2905
  598TIP3   OH223208   3.039   3.367  15.699 -0.2889 -0.2324  0.1741
  598TIP3    H123209   3.044   3.275  15.674 -0.2283 -0.6253  1.5593
  598TIP3    H223210   3.073   3.414  15.622  0.4409 -1.4033 -0.2563
  599TIP3   OH223211   5.295   3.126  11.162  0.0631 -0.5685  0.0819
  599TIP3    H123212   5.360   3.197  11.162 -0.2413 -0.1910  2.4903
  599TIP3    H223213   5.250   3.135  11.078  0.3176  1.8590  0.1215
  600TIP3   OH223214   3.584   4.785   5.033 -0.0836  0.3119  0.3903
  600TIP3    H123215   3.572   4.735   5.114 -1.4176 -0.8408 -0.4594
  600TIP3    H223216   3.676   4.776   5.012  0.0154 -0.4477  1.1111
  601TIP3   OH223217   5.464   4.341   2.666 -0.2672 -0.4673 -0.3216
  601TIP3    H123218   5.558   4.337   2.683 -0.1941 -0.1349 -0.6260
  601TIP3    H223219   5.428   4.391   2.740 -0.0306  0.4641 -0.8140
  602TIP3   OH223220   6.720   4.231   2.458 -0.5349  0.2678 -0.2284
  602TIP3    H123221   6.736   4.283   2.379  0.8706 -1.5778 -1.2365
  602TIP3    H223222   6.763   4.279   2.528  0.7494  0.4718 -1.1350
  603TIP3   OH223223   4.963   0.140  16.700  0.1276 -0.2891  0.9538
  603TIP3    H123224   4.912   0.218  16.682 -0.3912 -0.6691  0.7736
  603TIP3    H223225   5.052   0.173  16.716 -0.3257  0.4487  2.0442
  604TIP3   OH223226   1.995   1.442   1.459 -0.2672 -0.0497 -0.0916
  604TIP3    H123227   1.985   1.534   1.482  0.7000 -0.0762  0.4314
  604TIP3    H223228   2.047   1.404   1.529 -0.1695 -0.8715 -0.5928
  605TIP3   OH223229   1.700   4.549   0.779  0.0029  0.9663  0.1000
  605TIP3    H123230   1.687   4.455   0.769  0.0653  1.0890 -1.2803
  605TIP3    H223231   1.675   4.586   0.695 -0.9571  2.2967  0.9283
  606TIP3   OH223232   2.275   0.972   1.597 -0.2618  0.1322 -0.9801
  606TIP3    H123233   2.221   1.039   1.637  1.8242  2.1970 -1.4266
  606TIP3    H223234   2.311   0.923   1.670 -0.7711  0.3235 -0.5931
  607TIP3   OH223235   0.694   2.909   4.351 -0.1540 -0.8733  0.3023
  607TIP3    H123236   0.700   2.821   4.388  0.6704  0.3111  3.2874
  607TIP3    H223237   0.771   2.917   4.295  1.0050 -1.3890  1.7467
  608TIP3   OH223238   2.044   6.739  17.301  0.2632  0.0304  0.0932
  608TIP3    H123239   1.981   6.771  17.366 -1.2688 -2.6292  0.0461
  608TIP3    H223240   2.115   6.701  17.353  0.2156  0.0475  0.1720
  609TIP3   OH223241   4.000   6.128   0.026  0.2407  0.4923 -0.1490
  609TIP3    H123242   3.981   6.169  -0.058 -0.7369  1.7149  0.6453
  609TIP3    H223243   3.922   6.144   0.079  0.7126 -0.5343  0.9010
  610TIP3   OH223244   2.637   1.679  14.833  0.1155 -0.0236 -0.3065
  610TIP3    H123245   2.653   1.632  14.751  0.1668  0.5695 -0.6439
  610TIP3    H223246   2.545   1.662  14.852 -0.3599  1.1833 -1.3825
  611TIP3   OH223247   5.092   4.080   3.604  0.6914  0.3985 -0.1100
  611TIP3    H123248   5.120   4.001   3.649  0.9054  0.9428  0.7211
  611TIP3    H223249   5.147   4.084   3.526  1.8883  0.6393  0.7281
  612TIP3   OH223250   4.428   1.642   3.442 -0.5566  0.1923  0.2641
  612TIP3    H123251   4.455   1.551   3.447 -0.0756  0.2796 -0.6153
  612TIP3    H223252   4.456   1.671   3.356 -1.2532  0.9992  0.2926
  613TIP3   OH223253   6.437   1.187  10.612 -0.2317 -0.1411 -0.4928
  613TIP3    H123254   6.345   1.207  10.630 -0.0945 -1.2294  1.6853
  613TIP3    H223255   6.476   1.271  10.590 -1.0616  0.9564  1.8951
  614TIP3   OH223256   6.067   4.759  17.314 -0.2191 -0.1447  0.2319
  614TIP3    H123257   6.095   4.705  17.240 -0.5435 -0.3911  0.2852
  614TIP3    H223258   6.123   4.836  17.310 -0.4971  0.0233 -0.4946
  615TIP3   OH223259   2.612   2.863  13.727  0.0834 -0.0406 -0.1726
  615TIP3    H123260   2.688   2.883  13.672  1.0489 -0.0154  1.1209
  615TIP3    H223261   2.639   2.786  13.777 -0.2760  0.6712  1.1545
  616TIP3   OH223262   1.655   5.637  15.412 -0.1499  0.1009 -0.1309
  616TIP3    H123263   1.607   5.678  15.484  1.5865 -0.6243  1.5438
  616TIP3    H223264   1.623   5.547  15.411  0.9681 -0.3528  0.9152
  617TIP3   OH223265   1.805   1.652   3.457 -0.1751 -0.5918  0.2703
  617TIP3    H123266   1.712   1.649   3.479 -1.1179 -0.4651 -3.2148
  617TIP3    H223267   1.837   1.731   3.502 -1.4765 -1.0742  2.1769
  618TIP3   OH223268   5.086   5.682   5.367  0.0298  0.0776  0.0968
  618TIP3    H123269   5.087   5.771   5.334 -1.5860  0.7378  1.6362
  618TIP3    H223270   5.025   5.684   5.440 -0.4037 -2.4053 -0.0922
  619TIP3   OH223271   0.433   5.926   5.661 -0.5219  0.5113 -0.2086
  619TIP3    H123272   0.383   5.845   5.653 -0.4913  0.3389  1.0415
  619TIP3    H223273   0.368   5.996   5.649 -0.4702  0.3280 -1.7297
  620TIP3   OH223274   1.366   1.672   5.448 -0.2995 -0.9688 -0.1159
  620TIP3    H123275   1.446   1.620   5.459 -1.0806 -1.9320  1.2922
  620TIP3    H223276   1.370   1.737   5.518 -1.5176 -2.0951  1.0546
  621TIP3   OH223277   0.968   5.251  13.878 -0.2763 -0.1100 -0.2344
  621TIP3    H123278   0.930   5.307  13.946 -1.2553  1.1403 -1.7399
  621TIP3    H223279   0.927   5.281  13.797 -1.3007 -3.3942 -1.0968
  622TIP3   OH223280   1.514   5.323  16.575 -0.5676 -0.7586 -1.3874
  622TIP3    H123281   1.540   5.256  16.638  1.1799 -0.1013 -1.3566
  622TIP3    H223282   1.440   5.284  16.528 -1.1872 -1.7020  0.3013
  623TIP3   OH223283   0.138   1.877  13.866  0.2810  0.0283  0.0703
  623TIP3    H123284   0.117   1.795  13.911  0.2037 -0.1644 -0.3057
  623TIP3    H223285   0.074   1.940  13.900 -0.5022 -0.3887 -0.5600
  624TIP3   OH223286   5.341   1.089  15.800 -0.6027  0.3699 -0.1426
  624TIP3    H123287   5.329   1.175  15.758 -0.0061  0.0195 -1.0600
  624TIP3    H223288   5.377   1.110  15.886 -1.5452  1.0881  0.1020
  625TIP3   OH223289   5.963   2.306  11.245 -0.6519 -0.4637  0.4936
  625TIP3    H123290   6.014   2.290  11.324 -0.5864 -0.7952  0.3839
  625TIP3    H223291   6.025   2.293  11.173 -0.9278 -1.0315  0.3519
  626TIP3   OH223292   5.334   4.305  15.717 -0.1593 -0.0037  0.3041
  626TIP3    H123293   5.301   4.385  15.759 -1.9537 -0.4723 -0.1211
  626TIP3    H223294   5.296   4.234  15.769 -1.0802 -0.5775 -1.1021
  627TIP3   OH223295   1.363   4.140   3.587 -0.5470  0.0431  0.4604
  627TIP3    H123296   1.284   4.104   3.548 -0.1980  0.5349 -0.7613
  627TIP3    H223297   1.339   4.158   3.678 -1.9126  0.3924  0.0566
  628TIP3   OH223298   0.684   6.317   2.489  0.2838 -0.0599  0.1267
  628TIP3    H123299   0.650   6.382   2.428  1.4905  0.5142  0.0375
  628TIP3    H223300   0.609   6.293   2.543 -0.4584  0.5076 -0.6225
  629TIP3   OH223301   3.566   6.104  12.510  0.1033  0.0709  0.4996
  629TIP3    H123302   3.549   6.086  12.417 -1.0737 -1.9644  1.0568
  629TIP3    H223303   3.661   6.113  12.515  0.2530 -0.4698 -0.8044
  630TIP3   OH223304   2.644   4.962  15.980  0.1561  0.3185  0.0701
  630TIP3    H123305   2.574   4.906  16.013  1.4490 -0.7602  1.0973
  630TIP3    H223306   2.724   4.914  15.998  1.1338  1.0717 -1.9862
  631TIP3   OH223307   4.949   5.627   4.916  0.1760 -0.0004 -0.5100
  631TIP3    H123308   4.900   5.573   4.978 -0.8360 -0.2890 -1.5207
  631TIP3    H223309   5.031   5.647   4.961 -1.0154  0.8496  1.4311
  632TIP3   OH223310   5.724   0.526   0.938 -0.0671  0.5044 -0.0573
  632TIP3    H123311   5.755   0.437   0.926  1.1658  0.6416  1.7004
  632TIP3    H223312   5.629   0.520   0.933  0.0247 -0.2188 -3.8220
  633TIP3   OH223313   5.458   3.436   4.709  0.1322 -0.1768  0.1878
  633TIP3    H123314   5.398   3.494   4.662  0.1823 -0.5673 -0.3692
  633TIP3    H223315   5.515   3.400   4.641  0.6070 -0.2780  0.6320
  634TIP3   OH223316   0.711   6.368  14.837  0.3037  0.5865  0.3382
  634TIP3    H123317   0.685   6.378  14.929  1.3282 -1.2757  0.9076
  634TIP3    H223318   0.791   6.315  14.842  0.3980  0.4915 -1.6305
  635TIP3   OH223319   2.909   0.566   3.332 -0.0202  0.1809  0.3741
  635TIP3    H123320   2.886   0.501   3.399  1.4828  0.2994  1.0421
  635TIP3    H223321   2.856   0.542   3.256 -0.5203 -0.9796  1.0687
  636TIP3   OH223322   6.507   0.064   1.999  0.1825  0.3009  0.3059
  636TIP3    H123323   6.455   0.047   1.920 -0.8663 -0.3895  1.1116
  636TIP3    H223324   6.550  -0.020   2.017  0.2463  0.3943  0.5841
  637TIP3   OH223325   6.468   6.719   5.608 -0.1912  0.1681  0.2669
  637TIP3    H123326   6.478   6.715   5.703 -0.2893 -1.0107  0.2341
  637TIP3    H223327   6.538   6.778   5.580 -0.4050  0.8460  1.0983
  638TIP3   OH223328   1.815   0.665  14.027 -0.0019  0.1982 -0.2364
  638TIP3    H123329   1.781   0.688  13.941  2.7870 -0.2995 -1.6034
  638TIP3    H223330   1.758   0.594  14.057 -1.8993  1.3382 -0.9895
  639TIP3   OH223331   5.565   6.532  13.019 -0.3245 -0.1543 -0.2958
  639TIP3    H123332   5.570   6.552  12.925 -0.3414 -0.7366 -0.4212
  639TIP3    H223333   5.524   6.446  13.023  1.5940 -1.1078  0.1344
  640TIP3   OH223334   2.980   3.334  16.724  0.2777  0.1778 -0.5260
  640TIP3    H123335   3.049   3.400  16.718  0.1331  0.4188  0.3045
  640TIP3    H223336   2.922   3.352  16.649  0.3760  0.8322 -0.4461
  641TIP3   OH223337   4.968   6.119   1.633 -0.0883 -0.7095 -0.4572
  641TIP3    H123338   5.006   6.207   1.645  0.5348 -0.9950 -0.2703
  641TIP3    H223339   4.902   6.130   1.566 -0.1467 -0.0533 -0.2989
  642TIP3   OH223340   2.318   0.729   2.234  0.0275  0.3774 -0.3224
  642TIP3    H123341   2.263   0.740   2.157 -1.8390 -2.8102  0.3608
  642TIP3    H223342   2.257   0.727   2.308  1.0218 -2.3782  0.5673
  643TIP3   OH223343   4.243   6.521  12.690 -0.3195  0.3436 -0.6423
  643TIP3    H123344   4.285   6.540  12.774 -0.2206  0.4095 -0.7062
  643TIP3    H223345   4.189   6.598  12.672 -1.6305 -0.3534  0.1522
  644TIP3   OH223346   6.544   2.112  15.128 -0.2127  0.1741 -0.2507
  644TIP3    H123347   6.501   2.066  15.200  0.7561 -0.2189  0.1007
  644TIP3    H223348   6.506   2.200  15.129 -1.1641 -0.2306 -0.1088
  645TIP3   OH223349   3.643   0.582  14.770 -0.3949 -0.2574  0.0627
  645TIP3    H123350   3.568   0.541  14.813 -0.5321 -2.1592 -1.8373
  645TIP3    H223351   3.648   0.669  14.809 -3.0376 -0.3927  0.9047
  646TIP3   OH223352   5.396   5.893   6.252 -0.1997  0.5049 -0.7327
  646TIP3    H123353   5.470   5.837   6.230  1.2028  1.8863  0.2957
  646TIP3    H223354   5.337   5.836   6.302  1.4306  0.0154  0.7363
  647TIP3   OH223355   2.023   5.078  12.383 -0.3525  0.3796  0.6047
  647TIP3    H123356   2.097   5.078  12.321  0.0231  2.4979  0.9778
  647TIP3    H223357   2.046   5.011  12.447  2.2661  2.2380  1.7973
  648TIP3   OH223358   3.338   6.712  17.237 -0.0315 -0.1755  0.1594
  648TIP3    H123359   3.354   6.778  17.169 -1.1752  0.0807  0.1195
  648TIP3    H223360   3.251   6.677  17.216  0.5219 -1.6465  0.2292
  649TIP3   OH223361   2.212   5.846  12.443  0.3057 -0.1049  0.5225
  649TIP3    H123362   2.167   5.774  12.490  0.3960  0.0088  0.7843
  649TIP3    H223363   2.148   5.875  12.378  0.8639 -1.5439 -0.7516
  650TIP3   OH223364   6.640   1.028  16.717 -0.2025 -0.1680  0.0362
  650TIP3    H123365   6.563   0.977  16.691 -1.2486  1.5659 -0.3888
  650TIP3    H223366   6.656   1.087  16.644  1.0288  0.0814  0.4866
  651TIP3   OH223367   0.310   2.391   4.354  0.0175 -0.1397 -0.1738
  651TIP3    H123368   0.248   2.318   4.356 -0.7901  0.4040 -2.3873
  651TIP3    H223369   0.389   2.354   4.312 -0.9273  0.5229 -2.7344
  652TIP3   OH223370   0.907   1.133   5.199  0.1122  0.3161 -0.7571
  652TIP3    H123371   0.846   1.099   5.134  1.3336 -0.7807 -1.3764
  652TIP3    H223372   0.852   1.160   5.272 -1.3848  2.2199 -2.4548
  653TIP3   OH223373   4.680   3.021  13.681 -0.1725  0.5647 -0.4014
  653TIP3    H123374   4.695   2.963  13.756  1.0066  0.1957 -0.9097
  653TIP3    H223375   4.678   2.963  13.605 -1.9479  0.8655 -0.6230
  654TIP3   OH223376   0.046   0.125  11.223 -0.5696  0.1763 -0.2647
  654TIP3    H123377   0.031   0.090  11.135  0.7579 -0.3652 -0.2942
  654TIP3    H223378  -0.042   0.133  11.261 -1.0119 -2.8902 -0.3754
  655TIP3   OH223379   0.687   1.256  16.496 -0.4412 -0.3433  0.4867
  655TIP3    H123380   0.744   1.324  16.533  1.1316 -0.0343 -2.2441
  655TIP3    H223381   0.708   1.177  16.547  1.3383  0.1297  0.5504
  656TIP3   OH223382   5.166   5.478  12.213  0.3040  0.1594 -0.2730
  656TIP3    H123383   5.249   5.525  12.202 -0.2360  0.6001 -3.1124
  656TIP3    H223384   5.106   5.520  12.152 -1.8319 -0.6425  1.1798
  657TIP3   OH223385   4.192   1.983   5.753 -0.2002 -0.2033  0.0345
  657TIP3    H123386   4.169   2.054   5.813  0.5989  0.5007 -0.4606
  657TIP3    H223387   4.118   1.975   5.694 -0.3420  0.1467  0.1641
  658TIP3   OH223388   6.639   2.082  12.416  0.0211 -0.4728 -0.0137
  658TIP3    H123389   6.666   2.167  12.451  0.1419  0.4112 -2.0801
  658TIP3    H223390   6.691   2.073  12.336  0.0303 -2.5392  0.1917
  659TIP3   OH223391   4.358   5.955  15.173 -0.4995 -0.0690 -0.2721
  659TIP3    H123392   4.298   5.881  15.158 -1.0051  0.3397 -0.2760
  659TIP3    H223393   4.311   6.012  15.233  0.1050  0.0055  0.1378
  660TIP3   OH223394   5.401   1.919   5.396  0.7173  0.4055 -0.1101
  660TIP3    H123395   5.333   1.937   5.331  1.6259 -0.2871 -1.2943
  660TIP3    H223396   5.483   1.918   5.346  1.6254  1.3163  1.2995
  661TIP3   OH223397   6.376   6.410  17.306  0.0897 -0.4491  0.3499
  661TIP3    H123398   6.433   6.483  17.283  0.2050 -0.4696  0.5671
  661TIP3    H223399   6.429   6.332  17.291 -0.0195 -0.4878  0.1572
  662TIP3   OH223400   1.365   1.447  12.792  0.5000  0.2220  0.1906
  662TIP3    H123401   1.280   1.477  12.823  0.5349  0.9028 -0.3517
  662TIP3    H223402   1.348   1.406  12.708  0.9446  2.2437 -0.9601
  663TIP3   OH223403   6.130   6.139   6.339  0.0146  0.3097 -0.3923
  663TIP3    H123404   6.163   6.050   6.333  2.0898  1.1161 -2.3068
  663TIP3    H223405   6.178   6.177   6.413 -1.0681 -0.1731  0.5990
  664TIP3   OH223406   1.772   0.266  17.300 -0.0543  0.5223 -0.3138
  664TIP3    H123407   1.806   0.193  17.248 -0.5418  1.6286 -2.2886
  664TIP3    H223408   1.742   0.225  17.381  1.9462 -1.0890 -0.3029
  665TIP3   OH223409   4.791   2.453   1.698 -0.3166  0.1622 -0.0085
  665TIP3    H123410   4.721   2.399   1.733  0.0926  0.0085  0.5873
  665TIP3    H223411   4.865   2.437   1.756  0.2864  0.1345 -0.7638
  666TIP3   OH223412   1.051   1.393  16.321  0.2527 -0.5185  0.3075
  666TIP3    H123413   1.032   1.372  16.230  0.7070 -0.6169  0.2305
  666TIP3    H223414   1.034   1.311  16.369 -0.3511 -0.3593  0.3682
  667TIP3   OH223415   3.578   3.499   5.731  0.1308 -0.1162  0.2461
  667TIP3    H123416   3.578   3.469   5.822 -1.4468 -0.2965  0.2077
  667TIP3    H223417   3.487   3.524   5.713  0.6322  0.9738 -0.9446
  668TIP3   OH223418   2.867   1.224  15.858 -0.0648  0.3549 -0.2966
  668TIP3    H123419   2.928   1.294  15.837  0.5688  1.1301  3.4826
  668TIP3    H223420   2.922   1.145  15.865 -0.2819  0.0889 -1.3591
  669TIP3   OH223421   5.268   5.860   5.079  0.1745 -0.2888  1.0981
  669TIP3    H123422   5.353   5.818   5.061  0.1351  0.4918 -1.2624
  669TIP3    H223423   5.280   5.951   5.052 -1.1108  0.1095  1.7979
  670TIP3   OH223424   4.267   6.352  16.126  0.1272  0.5271 -0.1438
  670TIP3    H123425   4.317   6.273  16.110  0.6619  0.6968  0.6383
  670TIP3    H223426   4.308   6.418  16.070  0.1194  0.4190 -0.2769
  671TIP3   OH223427   2.847   5.061  17.056 -0.2825  0.9362  0.2357
  671TIP3    H123428   2.879   4.976  17.085  1.0543  1.3998  0.2138
  671TIP3    H223429   2.857   5.059  16.961 -2.1302  0.4077  0.0184
  672TIP3   OH223430   6.441   0.240   1.369 -0.2904  0.3536 -0.0088
  672TIP3    H123431   6.400   0.265   1.286  1.6876  0.6798 -0.9238
  672TIP3    H223432   6.528   0.279   1.366  0.6691 -1.5543  1.2324
  673TIP3   OH223433   5.803   3.371   0.445  0.3959  0.1811 -0.1472
  673TIP3    H123434   5.771   3.454   0.482 -0.7418 -0.8312  1.2898
  673TIP3    H223435   5.894   3.366   0.472 -0.1462 -0.0688  1.8359
  674TIP3   OH223436   2.100   5.720   2.929  0.0501  0.9066  0.1670
  674TIP3    H123437   2.104   5.805   2.974 -0.1808  2.0195 -1.7626
  674TIP3    H223438   2.078   5.743   2.839  0.7329 -1.1839 -0.5822
  675TIP3   OH223439   2.987   0.796   4.125 -0.5368  1.1520  0.1185
  675TIP3    H123440   2.945   0.791   4.039 -1.0670  0.3421  0.4139
  675TIP3    H223441   2.980   0.707   4.161 -1.2722  1.7012  1.4347
  676TIP3   OH223442   1.430   3.092   5.608  0.4126 -0.0640  1.1049
  676TIP3    H123443   1.435   3.133   5.522  1.1891 -1.0420  0.6618
  676TIP3    H223444   1.453   3.162   5.669  0.2315  0.5412  0.4925
  677TIP3   OH223445   5.229   1.096   0.494 -0.7642  0.4463 -0.0312
  677TIP3    H123446   5.226   1.188   0.522  1.0864  0.0755  1.5746
  677TIP3    H223447   5.283   1.098   0.415 -0.4892  0.7028  0.1597
  678TIP3   OH223448   4.599   5.110   4.058  0.2273 -0.5644  0.1527
  678TIP3    H123449   4.505   5.125   4.048  0.4135  1.0332  0.5187
  678TIP3    H223450   4.614   5.107   4.152  0.5171 -1.0291  0.0967
  679TIP3   OH223451   0.281   4.086  11.922 -0.1924  0.9693 -0.5909
  679TIP3    H123452   0.225   4.016  11.889 -1.0375  1.4474 -0.2033
  679TIP3    H223453   0.299   4.140  11.845  0.2959  0.4388 -0.8497
  680TIP3   OH223454   5.040   4.904  13.467  0.5765  0.1516  0.0347
  680TIP3    H123455   5.017   4.997  13.461 -1.8713 -0.1966  2.0731
  680TIP3    H223456   5.099   4.898  13.542  1.0711  0.1042 -0.3554
  681TIP3   OH223457   0.911   0.119   1.056 -0.1711  0.4097  0.2086
  681TIP3    H123458   0.818   0.099   1.065 -0.1483  0.7828  1.4710
  681TIP3    H223459   0.937   0.076   0.975 -1.3494 -0.0561  0.0580
  682TIP3   OH223460   1.713   2.477  16.149  0.0444 -0.3832  0.0984
  682TIP3    H123461   1.707   2.381  16.144  0.7937 -0.5234  1.3390
  682TIP3    H223462   1.644   2.508  16.091  1.2483 -1.6483 -2.1404
  683TIP3   OH223463   0.277   2.032   0.485  0.7418 -0.1144 -0.2908
  683TIP3    H123464   0.358   2.056   0.530  0.6928  0.4446 -0.4907
  683TIP3    H223465   0.279   1.937   0.480  1.4164 -0.0957 -0.3546
  684TIP3   OH223466   5.171   5.717  15.194  0.1913 -0.0410  0.1454
  684TIP3    H123467   5.083   5.691  15.165  0.0541 -0.8583  1.2543
  684TIP3    H223468   5.228   5.646  15.166  0.1603 -0.5250  1.2766
  685TIP3   OH223469   4.258   0.756   5.986  0.2022  0.5373  0.3918
  685TIP3    H123470   4.212   0.797   6.059 -0.4630 -1.4266  1.1692
  685TIP3    H223471   4.232   0.806   5.909 -1.7661  0.6635  1.0799
  686TIP3   OH223472   2.740   5.466  15.651  0.2829  0.0401  0.2341
  686TIP3    H123473   2.674   5.446  15.584 -1.5707  1.0645  1.6392
  686TIP3    H223474   2.708   5.546  15.692  0.8896 -0.9452  2.8296
  687TIP3   OH223475   2.076   5.738   4.997  0.4885 -0.1995  0.1388
  687TIP3    H123476   2.065   5.670   4.931 -0.4839 -1.4631  1.5134
  687TIP3    H223477   2.169   5.736   5.018  0.4951 -1.0548  0.0771
  688TIP3   OH223478   0.291   6.045  11.267 -0.5101 -0.3828 -0.3231
  688TIP3    H123479   0.279   5.984  11.195 -1.3376  0.5107 -0.9762
  688TIP3    H223480   0.384   6.067  11.265 -0.1478 -1.7995  0.0934
  689TIP3   OH223481   4.120   0.058   1.485  0.5933 -0.3702  0.6423
  689TIP3    H123482   4.108   0.139   1.436 -0.4235  1.1443  3.1794
  689TIP3    H223483   4.094  -0.011   1.424  0.1693  1.2922 -1.1627
  690TIP3   OH223484   1.135   1.626  15.596 -0.1720 -0.2729  0.0180
  690TIP3    H123485   1.065   1.672  15.549  0.6001 -0.5320 -1.4812
  690TIP3    H223486   1.209   1.629  15.535  0.9940 -0.3599  1.3917
  691TIP3   OH223487   3.902   0.685   1.008  0.3379 -0.2637 -0.1118
  691TIP3    H123488   3.991   0.694   0.974  0.5657 -1.5800  0.0789
  691TIP3    H223489   3.863   0.616   0.954 -0.0759 -0.7091  0.7390
  692TIP3   OH223490   4.582   0.304  16.096  0.2630  0.2016  0.0018
  692TIP3    H123491   4.672   0.318  16.125 -0.0777  0.5595  0.9274
  692TIP3    H223492   4.586   0.311  16.001  1.2396  0.0302  0.0205
  693TIP3   OH223493   0.742   3.519  16.946  0.0058  0.5105  0.4250
  693TIP3    H123494   0.802   3.469  16.890  0.2914  0.8805  0.3959
  693TIP3    H223495   0.769   3.497  17.035 -0.7374 -0.4263  0.4278
  694TIP3   OH223496   3.235   2.686   4.152  0.3880 -0.0997  0.2998
  694TIP3    H123497   3.263   2.751   4.216  0.9144  1.0359 -1.0272
  694TIP3    H223498   3.276   2.713   4.070  0.1334 -1.7760 -0.4408
  695TIP3   OH223499   4.889   1.951  12.403 -0.3078  0.1353 -0.0366
  695TIP3    H123500   4.848   1.998  12.476  1.8337  1.0673  0.6694
  695TIP3    H223501   4.879   1.859  12.426  0.8138  0.4097  1.8204
  696TIP3   OH223502   1.242   2.226  11.712 -0.1432  0.0243 -0.1579
  696TIP3    H123503   1.284   2.310  11.695  1.3249 -0.3770  1.2517
  696TIP3    H223504   1.166   2.247  11.767  0.9277  0.3330  1.2345
  697TIP3   OH223505   4.352   4.285   3.401 -0.4714 -0.7732 -0.0410
  697TIP3    H123506   4.293   4.290   3.325 -1.9569 -0.3072  1.0934
  697TIP3    H223507   4.437   4.311   3.366 -1.3795  0.7305 -1.2804
  698TIP3   OH223508   1.057   0.283  15.563  0.2338 -0.5047  0.0026
  698TIP3    H123509   0.965   0.274  15.538 -0.3821  0.9319  1.5593
  698TIP3    H223510   1.088   0.194  15.575 -1.0264 -0.9942 -0.2889
  699TIP3   OH223511   0.794   4.403   1.859  0.2459  0.1570  0.7167
  699TIP3    H123512   0.733   4.462   1.902  1.5272  1.6621  0.5328
  699TIP3    H223513   0.881   4.430   1.889  0.8732 -1.7843  0.7985
  700TIP3   OH223514   6.232   5.717   5.562 -0.3568 -0.1406 -0.4298
  700TIP3    H123515   6.192   5.759   5.486 -0.2835  1.2138  0.2610
  700TIP3    H223516   6.157   5.694   5.617 -0.3913 -0.8699 -0.7668
  701TIP3   OH223517   2.530   0.691   5.657  0.1789 -0.7197 -0.2488
  701TIP3    H123518   2.496   0.709   5.569  2.0738 -1.2955 -1.1398
  701TIP3    H223519   2.623   0.713   5.652  0.7009 -2.3935  1.1018
  702TIP3   OH223520   4.061   5.965   4.382  0.1601 -0.7187  0.4362
  702TIP3    H123521   4.070   6.060   4.387 -3.6313 -0.2536  1.7202
  702TIP3    H223522   4.078   5.934   4.471  3.6847 -1.6951 -0.4167
  703TIP3   OH223523   3.987   0.030   0.583  0.0028 -0.5384  0.0214
  703TIP3    H123524   4.081   0.015   0.581 -0.1013 -1.3947  0.6724
  703TIP3    H223525   3.969   0.056   0.674 -0.1764  1.2265 -0.4920
  704TIP3   OH223526   0.103   3.376   1.357  0.4300  0.1796  0.2372
  704TIP3    H123527   0.053   3.334   1.287  0.8324  0.1584 -0.0442
  704TIP3    H223528   0.189   3.392   1.318  0.0433  2.0421  0.0524
  705TIP3   OH223529   3.537   5.545   4.837 -0.4864  0.0041 -0.3345
  705TIP3    H123530   3.470   5.575   4.899 -1.1893  1.5609 -1.7822
  705TIP3    H223531   3.619   5.547   4.887 -1.4314 -1.8032  1.4345
  706TIP3   OH223532   1.892   0.700  14.999 -0.0903  0.3420 -0.2673
  706TIP3    H123533   1.883   0.622  14.945 -0.8916  0.8884 -0.9519
  706TIP3    H223534   1.907   0.667  15.087  1.2110 -0.5712 -0.8007
  707TIP3   OH223535   1.209   3.230   0.118  0.2396 -0.4027  0.2510
  707TIP3    H123536   1.305   3.224   0.114  0.4064  1.3917  0.6665
  707TIP3    H223537   1.189   3.314   0.079 -1.1669 -0.6472  0.3996
  708TIP3   OH223538   2.581   3.776  16.811  0.0498  0.5582 -0.0411
  708TIP3    H123539   2.542   3.739  16.732  0.7700 -2.3546  0.8790
  708TIP3    H223540   2.534   3.859  16.824 -4.5888 -1.8038  0.0000
  709TIP3   OH223541   0.343   4.334  12.619 -0.0059 -0.2129 -0.0853
  709TIP3    H123542   0.395   4.263  12.580 -1.0789 -0.7865 -0.5151
  709TIP3    H223543   0.334   4.398  12.549  0.5476  0.1317  0.1513
  710TIP3   OH223544   2.592   1.014  16.480 -0.1146 -0.1337  0.3045
  710TIP3    H123545   2.664   0.976  16.532  0.3958 -0.2453 -0.4723
  710TIP3    H223546   2.570   1.095  16.526 -0.9181 -1.1126  1.7384
  711TIP3   OH223547   5.532   2.231  15.585  0.1312  0.4501  0.0567
  711TIP3    H123548   5.461   2.231  15.521  0.0139  0.8053  0.1832
  711TIP3    H223549   5.580   2.149  15.569 -0.2397  0.2636 -0.1020
  712TIP3   OH223550   0.584   0.706   6.298  0.1221 -0.3557 -0.9326
  712TIP3    H123551   0.607   0.625   6.342  0.0980  0.0157 -0.2196
  712TIP3    H223552   0.600   0.774   6.363 -0.5172  0.1483 -1.2903
  713TIP3   OH223553   3.114   5.051   3.960 -0.6533 -0.2530 -0.4098
  713TIP3    H123554   3.205   5.040   3.930 -0.3574  1.1418 -0.0850
  713TIP3    H223555   3.103   4.985   4.028 -0.5760 -1.8573 -1.8695
  714TIP3   OH223556   3.959   0.750  14.156 -0.3258 -0.2430  0.7440
  714TIP3    H123557   3.934   0.812  14.224 -0.7926  1.8812 -1.2285
  714TIP3    H223558   4.053   0.736  14.169 -0.3290  0.4610  1.5631
  715TIP3   OH223559   4.340   4.819  16.361  0.2691  0.6806 -0.0154
  715TIP3    H123560   4.318   4.911  16.350  0.5929  0.9015  1.0683
  715TIP3    H223561   4.280   4.787  16.428  0.3825  0.1935 -0.1381
  716TIP3   OH223562   2.798   0.169   5.354  0.5808 -0.8751 -0.1895
  716TIP3    H123563   2.796   0.129   5.440 -0.6820  0.6950  0.5756
  716TIP3    H223564   2.748   0.251   5.364  2.5410  0.6358 -1.7584
  717TIP3   OH223565   5.755   3.781  16.723 -0.0561 -0.0284 -0.3147
  717TIP3    H123566   5.836   3.791  16.673 -0.7741  1.1472 -1.2995
  717TIP3    H223567   5.740   3.866  16.763 -0.5965 -0.3527  0.1874
  718TIP3   OH223568   3.803   3.573  10.896 -0.0877 -0.2705 -0.4801
  718TIP3    H123569   3.731   3.582  10.833 -0.6576 -1.7747 -0.1053
  718TIP3    H223570   3.815   3.661  10.932 -2.4354 -0.1335  0.1522
  719TIP3   OH223571   2.532   0.638   1.269  1.1190  0.1230  0.3037
  719TIP3    H123572   2.565   0.650   1.358  2.0059 -2.6235  0.4367
  719TIP3    H223573   2.475   0.562   1.274 -0.9021  1.4420 -1.0469
  720TIP3   OH223574   2.504   4.796  10.391 -0.4905 -0.6356  0.0968
  720TIP3    H123575   2.425   4.803  10.444 -0.7393 -1.7144 -0.1234
  720TIP3    H223576   2.571   4.763  10.451 -0.9053 -2.3870 -0.3450
  721TIP3   OH223577   5.390   3.198  16.884 -0.2045  0.1599 -0.2545
  721TIP3    H123578   5.447   3.276  16.882 -0.8610  0.6761 -2.5305
  721TIP3    H223579   5.405   3.156  16.799 -0.7951 -1.5309  0.4440
  722TIP3   OH223580   4.507   1.205   4.319  0.6549 -0.7521  0.1743
  722TIP3    H123581   4.564   1.193   4.244 -0.5273  0.0685 -0.9025
  722TIP3    H223582   4.438   1.139   4.308  0.0811 -0.1576  0.1306
  723TIP3   OH223583   3.835   1.172  14.980  0.0494 -0.3157  0.2397
  723TIP3    H123584   3.776   1.198  14.909  1.2607 -1.6482 -1.3175
  723TIP3    H223585   3.901   1.241  14.983  0.4373 -0.6398 -0.4920
  724TIP3   OH223586   0.495   6.263  13.203  0.2941  0.1340 -0.0762
  724TIP3    H123587   0.507   6.223  13.289  0.4370  2.6657  1.1884
  724TIP3    H223588   0.415   6.224  13.169 -0.7574  0.3261  2.0087
  725TIP3   OH223589   0.037   2.227  10.961 -0.2066  0.2785  0.0831
  725TIP3    H123590  -0.005   2.141  10.965 -0.5999  0.4685  0.1175
  725TIP3    H223591   0.020   2.258  10.872 -1.1289  0.8435  0.4455
  726TIP3   OH223592   1.389   2.080  15.919  0.1694  0.3834 -0.3317
  726TIP3    H123593   1.308   2.121  15.888  0.8099  1.7860 -0.2005
  726TIP3    H223594   1.457   2.145  15.902  1.0562 -0.1811  0.9230
  727TIP3   OH223595   0.734   4.405   4.913  0.0924 -0.3684 -0.0214
  727TIP3    H123596   0.655   4.456   4.895  0.0836  0.7213  2.6324
  727TIP3    H223597   0.709   4.315   4.892 -1.1290  0.2080 -1.2368
  728TIP3   OH223598   0.426   6.152  12.000  0.4036  0.0499 -0.0617
  728TIP3    H123599   0.414   6.193  12.085 -0.4259  0.1866 -0.2344
  728TIP3    H223600   0.520   6.158  11.983  0.8084 -1.3690  1.5240
  729TIP3   OH223601   5.192   1.359  14.239 -0.1561 -0.2031  0.2279
  729TIP3    H123602   5.105   1.348  14.278 -0.0021 -0.7986  0.4264
  729TIP3    H223603   5.177   1.356  14.145 -0.4464  0.5091  0.2516
  730TIP3   OH223604   4.223   0.737   2.363 -0.3791  0.0823 -1.0049
  730TIP3    H123605   4.303   0.740   2.310 -1.2958 -1.3346 -2.5533
  730TIP3    H223606   4.253   0.710   2.450  1.1106  2.0603 -0.8294
  731TIP3   OH223607   4.996   4.302  14.794  0.0904  0.3334  0.1152
  731TIP3    H123608   5.000   4.396  14.782  1.4874  0.0733 -2.0705
  731TIP3    H223609   5.084   4.271  14.772 -0.9352 -1.6714 -1.5699
  732TIP3   OH223610   5.591   1.213  11.555  0.2745  0.3466  0.1132
  732TIP3    H123611   5.591   1.276  11.483  1.2679  1.2968  0.9061
  732TIP3    H223612   5.603   1.128  11.513  2.0872  1.0026 -0.7806
  733TIP3   OH223613   6.102   3.399   3.199 -0.4587  0.0492 -0.6815
  733TIP3    H123614   6.179   3.358   3.239  0.0977  2.0155  0.3924
  733TIP3    H223615   6.135   3.439   3.119 -0.1906  1.4566  0.1134
  734TIP3   OH223616   1.947   3.664  11.598  0.1279  0.5072  0.3940
  734TIP3    H123617   1.882   3.593  11.601  1.4202 -0.7020  1.1321
  734TIP3    H223618   2.026   3.622  11.565  0.2783  2.1978 -1.5775
  735TIP3   OH223619   1.595   0.654   6.795 -0.9423 -0.3991 -0.2750
  735TIP3    H123620   1.669   0.711   6.775 -1.9556  0.1215 -3.0309
  735TIP3    H223621   1.633   0.567   6.804  0.0108 -0.2834 -2.4504
  736TIP3   OH223622   0.549   2.087  16.246 -0.6395  0.3122  0.2000
  736TIP3    H123623   0.578   2.103  16.156  2.0810 -1.3010  0.6671
  736TIP3    H223624   0.502   2.166  16.271  0.2043  1.5898 -1.9944
  737TIP3   OH223625   5.686   2.724  13.222  0.2330  0.0583 -0.0873
  737TIP3    H123626   5.618   2.752  13.283  0.6434  0.0280  0.3976
  737TIP3    H223627   5.764   2.712  13.277  0.2031 -1.5372 -0.3465
  738TIP3   OH223628   2.459   6.217   5.779 -0.3909 -0.2038 -0.0900
  738TIP3    H123629   2.526   6.248   5.840 -0.8880 -0.0475  0.3810
  738TIP3    H223630   2.484   6.127   5.760 -0.8242 -0.6092  1.1924
  739TIP3   OH223631   2.329   6.696  15.646  0.3120 -0.1143  0.2132
  739TIP3    H123632   2.396   6.644  15.601 -0.0959 -0.4732  0.0106
  739TIP3    H223633   2.247   6.670  15.604  0.1167  0.8052  0.0163
  740TIP3   OH223634   5.470   1.393   5.880 -0.1816  0.1123 -0.2477
  740TIP3    H123635   5.532   1.441   5.935  1.7068 -1.2579 -1.0816
  740TIP3    H223636   5.413   1.347   5.942  1.1713 -0.4985  0.5756
  741TIP3   OH223637   6.108   0.246  16.143  0.5473  0.1595  0.3114
  741TIP3    H123638   6.139   0.217  16.228  2.3074 -0.9225 -0.6336
  741TIP3    H223639   6.015   0.265  16.156  0.5294 -0.9918  2.2210
  742TIP3   OH223640   0.100   4.063   5.492 -1.0620  0.0433 -0.0131
  742TIP3    H123641   0.015   4.018   5.494 -1.8084  1.4185  0.4294
  742TIP3    H223642   0.082   4.148   5.452  0.2737  0.0483 -0.6412
  743TIP3   OH223643   0.356   2.029  15.025  0.7103  0.9536 -0.1844
  743TIP3    H123644   0.294   1.969  14.983  0.7579  0.7338  0.0553
  743TIP3    H223645   0.322   2.041  15.114  1.0971  0.6971  0.0054
  744TIP3   OH223646   4.891   0.293  13.510 -0.1387 -0.5273 -0.2198
  744TIP3    H123647   4.964   0.252  13.557  1.0254  0.3485 -1.1674
  744TIP3    H223648   4.914   0.283  13.417 -2.1095 -1.7493 -0.6180
  745TIP3   OH223649   6.164   3.732  13.217 -0.6486  0.1354  0.6560
  745TIP3    H123650   6.235   3.721  13.280  0.5247  0.7186 -0.5199
  745TIP3    H223651   6.088   3.695  13.261  0.3048 -0.2477  2.0727
  746TIP3   OH223652   2.808   5.474  16.422  0.3153 -0.2910  0.2227
  746TIP3    H123653   2.847   5.482  16.509  0.0686 -1.1001  0.4174
  746TIP3    H223654   2.805   5.564  16.389 -0.9680  0.2380  1.6521
  747TIP3   OH223655   3.569   0.496  15.638  0.2286  0.1264  0.5518
  747TIP3    H123656   3.563   0.511  15.543 -1.7969  2.7569  0.9486
  747TIP3    H223657   3.654   0.532  15.663  0.9791 -0.9980 -0.2744
  748TIP3   OH223658   3.257   1.840  16.852 -0.6564 -0.6402  0.1091
  748TIP3    H123659   3.256   1.762  16.797 -1.5339 -1.8588  1.7824
  748TIP3    H223660   3.182   1.830  16.910  0.2398  0.5739  1.5588
  749TIP3   OH223661   2.181   5.456   4.358 -0.0802 -0.0772 -0.3237
  749TIP3    H123662   2.111   5.516   4.383  0.0078  0.0597 -0.4078
  749TIP3    H223663   2.262   5.500   4.385 -0.0885 -0.8771  1.1290
  750TIP3   OH223664   4.238   1.698   1.030  0.4466 -0.6662 -0.8120
  750TIP3    H123665   4.151   1.656   1.033  1.4182 -2.7662 -0.1336
  750TIP3    H223666   4.277   1.665   0.949  1.3015 -1.2738 -0.1731
  751TIP3   OH223667   2.447   4.059   5.903 -0.7352 -0.4082  0.3522
  751TIP3    H123668   2.412   3.987   5.851 -1.8312  0.7674 -0.5843
  751TIP3    H223669   2.418   4.040   5.993  0.9345 -2.2986  0.5717
  752TIP3   OH223670   2.715   1.873   3.731  0.4995  0.0623  0.7654
  752TIP3    H123671   2.707   1.781   3.707  1.3927  0.5098 -1.5164
  752TIP3    H223672   2.767   1.912   3.660 -0.9843  2.6067  0.9428
  753TIP3   OH223673   2.961   4.940  11.251  0.5333  0.1893  0.0440
  753TIP3    H123674   2.973   4.850  11.281  1.0252  0.6640  1.3691
  753TIP3    H223675   3.050   4.970  11.229  0.4517  0.5057  0.1346
  754TIP3   OH223676   6.242   4.442  11.839 -0.4603  0.5331 -0.1853
  754TIP3    H123677   6.193   4.517  11.806  0.0633  1.2885  0.6820
  754TIP3    H223678   6.330   4.453  11.802 -0.6406 -0.2081 -0.8524
  755TIP3   OH223679   1.425   2.535  12.644  0.4492 -0.2501 -0.0849
  755TIP3    H123680   1.380   2.468  12.592  0.3291  0.2209 -0.5958
  755TIP3    H223681   1.461   2.595  12.579  1.2566 -0.2627  0.3434
  756TIP3   OH223682   2.300   1.901   0.616 -0.1865  0.2741 -0.5761
  756TIP3    H123683   2.382   1.852   0.621  0.7155  1.8580  1.3831
  756TIP3    H223684   2.289   1.921   0.523 -0.0829 -2.6886 -1.3022
  757TIP3   OH223685   4.171   0.800  11.352 -1.1106 -0.0748 -0.7119
  757TIP3    H123686   4.137   0.711  11.340 -0.4066 -0.0271 -3.9530
  757TIP3    H223687   4.266   0.790  11.351 -0.9864  0.5366  1.1707
  758TIP3   OH223688   2.793   0.826   3.910  0.9564 -0.4186 -0.0962
  758TIP3    H123689   2.823   0.903   3.860 -0.9758  1.1575  1.0106
  758TIP3    H223690   2.738   0.778   3.848  1.0520 -0.1500 -0.3967
  759TIP3   OH223691   5.101   3.309  14.148  0.6129  0.1801 -0.2972
  759TIP3    H123692   5.082   3.290  14.240  1.2997  1.5389  0.1536
  759TIP3    H223693   5.182   3.262  14.129  1.1371  0.8819  0.1677
  760TIP3   OH223694   3.022   3.674  17.192  0.9006 -0.1794  0.4377
  760TIP3    H123695   2.972   3.598  17.221  0.3515 -1.3209 -3.0141
  760TIP3    H223696   2.957   3.745  17.187  0.8388 -0.1836  1.1472
  761TIP3   OH223697   4.686   1.306   5.368  0.1739 -0.2367 -0.2016
  761TIP3    H123698   4.763   1.313   5.424 -1.5357 -1.0714  2.4099
  761TIP3    H223699   4.618   1.270   5.424 -2.4812  1.4755 -2.0747
  762TIP3   OH223700   1.499   4.582   2.720 -0.0995 -0.5393  0.0963
  762TIP3    H123701   1.511   4.622   2.807  0.9189  1.7071 -0.9899
  762TIP3    H223702   1.417   4.619   2.688 -1.2191 -2.4450  0.5736
  763TIP3   OH223703   6.743   3.281   0.505  0.1314 -0.1553 -0.4813
  763TIP3    H123704   6.697   3.365   0.504 -0.7171 -0.5403  1.4354
  763TIP3    H223705   6.836   3.304   0.514 -0.1889  0.6122  1.2563
  764TIP3   OH223706   0.268   0.790   2.652  0.0900 -0.1775 -0.2414
  764TIP3    H123707   0.351   0.779   2.607 -0.4989  0.2501 -1.4730
  764TIP3    H223708   0.214   0.842   2.592  0.3659  3.4166  2.3110
  765TIP3   OH223709   4.749   0.883   2.155  0.2740 -0.5496  0.6574
  765TIP3    H123710   4.667   0.906   2.199  1.4027 -1.4021  3.4166
  765TIP3    H223711   4.803   0.961   2.163 -0.8640  0.8578 -3.1601
  766TIP3   OH223712   6.471   0.327  14.520 -0.2845  0.2027 -0.4836
  766TIP3    H123713   6.449   0.269  14.447  0.5385  0.8851 -1.2984
  766TIP3    H223714   6.388   0.340  14.566 -0.1370 -3.3325  1.0531
  767TIP3   OH223715   3.875   4.358  13.695 -0.3109 -0.1606 -0.2897
  767TIP3    H123716   3.913   4.446  13.704  0.4992 -0.6909  1.9964
  767TIP3    H223717   3.950   4.300  13.693 -0.8597 -0.8746 -1.5455
  768TIP3   OH223718   4.269   2.199  13.384  0.3526  0.1295  0.6511
  768TIP3    H123719   4.361   2.213  13.359  0.2193 -0.3938 -0.1703
  768TIP3    H223720   4.224   2.187  13.301 -0.8353  2.4428  0.8676
  769TIP3   OH223721   1.889   4.301   3.378 -0.2307  0.0629 -0.2493
  769TIP3    H123722   1.855   4.212   3.385 -0.0848 -0.2075 -2.3471
  769TIP3    H223723   1.846   4.349   3.449  0.8003 -1.9536  1.8761
  770TIP3   OH223724   2.657   1.975  13.667  0.0717 -0.0162 -0.1280
  770TIP3    H123725   2.595   2.008  13.731  0.6663  2.6490 -0.8048
  770TIP3    H223726   2.743   1.994  13.704  0.4505 -0.3095 -0.8266
  771TIP3   OH223727   4.342   1.312  16.542  0.1896  0.2239  0.2724
  771TIP3    H123728   4.409   1.338  16.605 -0.3616  1.4483  0.3700
  771TIP3    H223729   4.268   1.285  16.596 -0.3934  1.5673  0.1608
  772TIP3   OH223730   6.183   6.186  14.357 -0.0776 -0.0324  0.0323
  772TIP3    H123731   6.221   6.185  14.445 -0.6234 -0.9759  0.2653
  772TIP3    H223732   6.091   6.166  14.371 -0.1726 -0.1465 -0.7547
  773TIP3   OH223733   5.024   3.545  16.263  0.2288 -0.3759  0.4607
  773TIP3    H123734   5.077   3.465  16.268  0.7496 -0.0960 -0.3435
  773TIP3    H223735   4.936   3.517  16.289  0.7294 -0.8785  1.6844
  774TIP3   OH223736   4.813   2.064  12.673 -0.6031  0.3129 -0.7975
  774TIP3    H123737   4.758   2.142  12.681 -1.2832 -0.2135 -0.1749
  774TIP3    H223738   4.754   1.991  12.691  0.4563 -0.2304  0.7431
  775TIP3   OH223739   3.870   4.123  10.808  0.4742  0.1472 -0.3459
  775TIP3    H123740   3.874   4.047  10.750  0.9020  0.7401 -1.0936
  775TIP3    H223741   3.959   4.133  10.841  0.3651  0.1843 -0.0582
  776TIP3   OH223742   3.950   4.617  16.308  1.0662  0.0328 -0.2469
  776TIP3    H123743   3.954   4.569  16.225  1.6627 -0.4101  0.0320
  776TIP3    H223744   3.859   4.645  16.315  1.1984  0.8204 -1.4722
  777TIP3   OH223745   2.187   6.677   0.771 -0.0517  0.2439 -0.0777
  777TIP3    H123746   2.101   6.650   0.740 -0.3959  0.9228  0.2859
  777TIP3    H223747   2.194   6.769   0.747  1.2054 -0.1651 -1.5095
  778TIP3   OH223748   3.662   5.477   2.910 -0.3962 -0.6558  0.0522
  778TIP3    H123749   3.684   5.394   2.868  3.0586  0.0382  0.1450
  778TIP3    H223750   3.686   5.544   2.846  0.6941  0.3160  1.4154
  779TIP3   OH223751   3.727   5.969  16.855  0.2803  0.1516 -0.6857
  779TIP3    H123752   3.728   6.056  16.895 -0.0531 -0.5753  0.9577
  779TIP3    H223753   3.646   5.966  16.805 -0.4915  0.2388  0.5336
  780TIP3   OH223754   0.484   6.486  14.488 -0.0679 -0.4896  0.5631
  780TIP3    H123755   0.451   6.573  14.513 -1.0169 -1.3050  2.3674
  780TIP3    H223756   0.408   6.429  14.495  0.5648 -1.5008 -0.5249
  781TIP3   OH223757   0.197   6.674  16.738  0.0672 -0.0951  0.7213
  781TIP3    H123758   0.292   6.671  16.751  0.1800 -0.6496 -0.1341
  781TIP3    H223759   0.166   6.591  16.773 -0.1257  0.1730  1.1820
  782TIP3   OH223760   1.471   4.031  10.896 -0.1070  0.2066  0.0196
  782TIP3    H123761   1.389   3.983  10.904  0.2787 -0.6903 -1.1433
  782TIP3    H223762   1.539   3.965  10.914  0.3618  1.1040  1.7251
  783TIP3   OH223763   3.867   3.867  15.210  0.3961  0.6924  0.2705
  783TIP3    H123764   3.882   3.785  15.161  1.5833 -0.0379  1.7764
  783TIP3    H223765   3.827   3.926  15.146  1.7712 -0.2498 -1.5501
  784TIP3   OH223766   3.536   3.202   0.450  0.0507  0.0943  0.0970
  784TIP3    H123767   3.464   3.218   0.389 -0.2072  0.8146  0.5843
  784TIP3    H223768   3.594   3.277   0.439 -0.8886  1.1459  2.0054
  785TIP3   OH223769   1.737   6.126   1.126  0.1099 -0.2183  0.4247
  785TIP3    H123770   1.829   6.103   1.108  0.4225  2.1922 -1.6474
  785TIP3    H223771   1.694   6.117   1.041 -1.6077 -1.2646  1.3672
  786TIP3   OH223772   1.366   3.923   3.222 -0.0037 -0.2742 -0.7669
  786TIP3    H123773   1.345   3.830   3.227 -0.9575 -0.3119 -3.5590
  786TIP3    H223774   1.293   3.967   3.265  1.2541 -0.7676  2.0816
  787TIP3   OH223775   6.622   1.363  15.931  0.2112 -0.6814  0.4915
  787TIP3    H123776   6.625   1.284  15.985 -1.1695 -0.8255  0.3781
  787TIP3    H223777   6.571   1.338  15.855  1.0434 -0.0974 -0.2795
  788TIP3   OH223778   0.895   5.204  16.191 -0.0529  0.0398 -1.0046
  788TIP3    H123779   0.903   5.278  16.131 -1.4065 -0.2870 -1.6291
  788TIP3    H223780   0.801   5.192  16.202  0.1409 -1.4839 -0.7844
  789TIP3   OH223781   3.404   1.386  12.652 -0.2821 -0.0477 -0.0277
  789TIP3    H123782   3.409   1.456  12.587 -5.3522 -1.1943 -2.1595
  789TIP3    H223783   3.408   1.430  12.736  2.5238  1.9624 -1.0744
  790TIP3   OH223784   1.004   6.340  16.799  0.2294  0.3609 -0.9292
  790TIP3    H123785   1.089   6.363  16.762  0.6589  0.1968 -0.0826
  790TIP3    H223786   1.010   6.246  16.818 -0.4081  0.1869 -1.5275
  791TIP3   OH223787   5.477   0.996   5.793  0.1966 -0.5192 -0.2868
  791TIP3    H123788   5.548   0.999   5.857  0.4961  0.7542 -0.6707
  791TIP3    H223789   5.476   0.905   5.763  0.0904 -1.1371  1.4657
  792TIP3   OH223790   4.457   0.243   0.396 -0.4461  0.3371 -0.1583
  792TIP3    H123791   4.390   0.175   0.385 -1.1272  0.9166  0.3330
  792TIP3    H223792   4.419   0.320   0.354  1.0311  0.0195 -2.2513
  793TIP3   OH223793   4.661   1.080   2.452 -0.3369  0.4328  0.2077
  793TIP3    H123794   4.648   1.018   2.523  0.0439  0.5683  0.3983
  793TIP3    H223795   4.575   1.088   2.411 -0.3737 -0.2770  0.1305
  794TIP3   OH223796   3.999   1.099  15.596  0.2574  0.6769  0.2298
  794TIP3    H123797   3.995   1.096  15.501 -3.3277  0.5997  0.2545
  794TIP3    H223798   3.993   1.007  15.623  1.5775  0.6684  0.6051
  795TIP3   OH223799   2.143   5.917   1.656 -0.0694  0.1032  0.2439
  795TIP3    H123800   2.198   5.993   1.641  1.7293 -0.9781  1.0073
  795TIP3    H223801   2.088   5.911   1.578  0.0712  1.8857 -0.0218
  796TIP3   OH223802   1.876   4.102   5.328 -0.0940  0.6874  0.2461
  796TIP3    H123803   1.906   4.029   5.274 -1.5620  0.2057  0.0384
  796TIP3    H223804   1.937   4.173   5.308 -0.5902  0.5404 -2.0836
  797TIP3   OH223805   4.825   0.799  12.884 -0.3106 -0.0285  0.0751
  797TIP3    H123806   4.813   0.891  12.860 -3.1064 -0.0242  1.0759
  797TIP3    H223807   4.899   0.799  12.943  0.6656  1.3336 -1.0717
  798TIP3   OH223808   2.744   6.006  13.355 -0.5545  0.1944 -0.0001
  798TIP3    H123809   2.762   5.975  13.443  0.8625 -1.1595 -0.7342
  798TIP3    H223810   2.828   6.005  13.310 -1.4665 -0.6523 -1.8298
  799TIP3   OH223811   5.554   2.404  11.076  0.2521 -0.0799  0.2621
  799TIP3    H123812   5.567   2.445  11.162  0.3214  0.1577  0.1383
  799TIP3    H223813   5.583   2.470  11.013 -0.1892 -0.1002  0.0383
  800TIP3   OH223814   4.280   6.405  15.457 -0.0064 -0.2245 -0.1035
  800TIP3    H123815   4.211   6.387  15.520 -0.6361  0.5645 -0.5424
  800TIP3    H223816   4.264   6.343  15.386 -0.9791  0.6908 -0.7210
  801TIP3   OH223817   5.644   1.756   4.339  0.5461  0.1041 -0.6647
  801TIP3    H123818   5.612   1.842   4.366 -0.7725 -0.3983 -0.5174
  801TIP3    H223819   5.632   1.755   4.244 -2.5263 -1.0195 -0.3816
  802TIP3   OH223820   6.706   1.250   3.652  0.0257 -0.3396 -0.0113
  802TIP3    H123821   6.780   1.297   3.612  0.3192 -1.5039 -0.9020
  802TIP3    H223822   6.659   1.316   3.702  2.6658  0.1001  2.0609
  803TIP3   OH223823   2.335   5.195  12.266 -0.2191  0.5235  0.0434
  803TIP3    H123824   2.261   5.255  12.258  0.4239  1.3229 -0.0392
  803TIP3    H223825   2.412   5.252  12.275  0.1349 -0.2338  2.7894
  804TIP3   OH223826   1.597   4.054   5.809  0.2713 -0.0255 -0.3090
  804TIP3    H123827   1.637   4.035   5.724 -0.3583  0.4532 -0.7188
  804TIP3    H223828   1.543   3.977   5.827 -0.3165  0.2687 -0.7843
  805TIP3   OH223829   6.451   2.863  17.325  0.1967  0.2330  0.3576
  805TIP3    H123830   6.543   2.885  17.340 -0.3133  1.8415  1.3463
  805TIP3    H223831   6.427   2.806  17.398  0.0609  0.9136  0.8507
  806TIP3   OH223832   3.982   0.309  13.192 -0.2709 -0.4727  0.3543
  806TIP3    H123833   4.005   0.367  13.265  0.8226 -0.4125 -0.0195
  806TIP3    H223834   3.903   0.264  13.221 -0.0165 -0.2337  1.4620
  807TIP3   OH223835   0.020   4.582   1.556 -0.1470 -0.1600 -0.7472
  807TIP3    H123836  -0.057   4.525   1.555 -1.5498  1.5761  0.6914
  807TIP3    H223837   0.094   4.522   1.565 -1.3162 -1.8758 -1.8992
  808TIP3   OH223838   3.273   0.591   3.183  0.0026 -0.3564  0.5005
  808TIP3    H123839   3.235   0.646   3.115  3.6163  2.3937  0.3763
  808TIP3    H223840   3.208   0.592   3.254 -2.3191 -0.3901 -1.5013
  809TIP3   OH223841   0.260   1.777   3.322  0.3442 -0.0607 -0.2150
  809TIP3    H123842   0.255   1.684   3.302  2.9679 -0.4158  0.3936
  809TIP3    H223843   0.195   1.790   3.392  0.4686 -1.5920  0.2164
  810TIP3   OH223844   1.229   5.354   2.367  0.2913  0.0515  0.2302
  810TIP3    H123845   1.218   5.410   2.444 -0.4638 -0.4606  0.5097
  810TIP3    H223846   1.306   5.389   2.323 -0.0745  1.2136  0.4772
  811TIP3   OH223847   0.431   2.212   3.496  0.1725 -0.4849 -0.2205
  811TIP3    H123848   0.338   2.233   3.481  0.6748  2.1001 -0.2540
  811TIP3    H223849   0.429   2.135   3.553 -1.9835 -0.7821 -0.5976
  812TIP3   OH223850   4.322   0.131  15.634 -0.0849 -0.2085  0.5282
  812TIP3    H123851   4.355   0.218  15.614  0.2718  0.0963  2.3550
  812TIP3    H223852   4.398   0.083  15.666 -0.1891 -1.3532 -0.8103
  813TIP3   OH223853   6.718   3.776   4.192 -0.2616 -0.0353 -0.3929
  813TIP3    H123854   6.721   3.853   4.134 -0.9190  1.2795  1.2404
  813TIP3    H223855   6.677   3.708   4.139  3.1902 -0.3548 -3.0226
  814TIP3   OH223856   0.480   4.522   1.361 -0.1779 -0.1236 -0.0752
  814TIP3    H123857   0.505   4.546   1.272 -0.0425  0.0441  0.0072
  814TIP3    H223858   0.547   4.461   1.389 -0.6600 -0.7995 -0.3752
  815TIP3   OH223859   2.596   5.667  14.368 -0.5021  0.5393  0.3396
  815TIP3    H123860   2.612   5.661  14.274  1.3487 -1.7893  0.7067
  815TIP3    H223861   2.504   5.640  14.379 -1.2109  2.2626 -0.8397
  816TIP3   OH223862   0.101   4.735   6.215  0.3963 -0.0039 -0.3301
  816TIP3    H123863   0.139   4.692   6.292  0.1877 -1.5531 -1.0382
  816TIP3    H223864   0.144   4.820   6.210  0.6473 -0.0193  1.3038
  817TIP3   OH223865   5.370   5.003   1.334 -0.5288  0.2131 -0.6895
  817TIP3    H123866   5.301   5.009   1.399  1.4562  3.4025  1.4048
  817TIP3    H223867   5.332   5.041   1.255 -1.0232  3.0284  0.7565
  818TIP3   OH223868   4.208   6.336   1.253  0.4494  0.1866 -0.5065
  818TIP3    H123869   4.254   6.419   1.265  0.0855  0.4602 -1.0136
  818TIP3    H223870   4.262   6.273   1.301 -0.4108  1.0598  1.6961
  819TIP3   OH223871   1.730   3.094   0.988 -0.3418  0.0539 -0.0695
  819TIP3    H123872   1.754   3.097   1.081  0.0660 -0.5691 -0.1457
  819TIP3    H223873   1.646   3.048   0.986 -0.8260  0.9151  0.0682
  820TIP3   OH223874   2.245   1.877  14.074 -0.2763 -0.5429  0.4115
  820TIP3    H123875   2.150   1.863  14.071 -0.2251 -0.8822 -2.3392
  820TIP3    H223876   2.271   1.843  14.160 -2.5413 -1.0789  0.9679
  821TIP3   OH223877   6.296   0.612  15.955  0.4168  0.6329  0.2855
  821TIP3    H123878   6.373   0.637  15.903  1.6215 -0.8394  1.2665
  821TIP3    H223879   6.332   0.569  16.032 -1.3956 -1.0932  0.2595
  822TIP3   OH223880   1.001   0.629   2.745 -0.0829 -0.1557  0.3996
  822TIP3    H123881   1.020   0.537   2.761 -0.8954 -0.5275 -0.6582
  822TIP3    H223882   1.081   0.664   2.706 -0.8024 -1.2654 -2.3446
  823TIP3   OH223883   5.736   3.034  13.496  0.0733 -0.4158 -0.0969
  823TIP3    H123884   5.806   2.984  13.538 -0.9776 -2.0387 -0.1542
  823TIP3    H223885   5.763   3.044  13.405  0.1844 -1.1487 -0.1475
  824TIP3   OH223886   1.557   6.745   0.589 -0.1492 -0.2299 -0.5197
  824TIP3    H123887   1.530   6.660   0.624  2.1574  0.0428  2.3263
  824TIP3    H223888   1.527   6.809   0.654 -0.2884  0.9697 -1.7098
  825TIP3   OH223889   0.049   5.578   3.098  0.0334 -0.0385 -0.4456
  825TIP3    H123890   0.030   5.617   3.013  0.5792 -1.0216 -1.0371
  825TIP3    H223891  -0.028   5.524   3.118  0.0424 -0.0608 -0.4706
  826TIP3   OH223892   2.033   0.245   1.087  0.1687  0.8459  0.7506
  826TIP3    H123893   1.951   0.219   1.046  0.5149  1.7197 -0.5684
  826TIP3    H223894   2.082   0.289   1.017  2.0732 -0.3021  1.3002
  827TIP3   OH223895   4.531   1.380   3.431  0.2853 -0.5025 -0.7348
  827TIP3    H123896   4.539   1.302   3.376 -2.4721 -0.3026 -1.5656
  827TIP3    H223897   4.468   1.355   3.499  0.1411  0.6759 -0.4102
  828TIP3   OH223898   1.173   1.652  15.252 -0.2768  0.2982 -0.2768
  828TIP3    H123899   1.114   1.593  15.205 -1.5129  1.2022  0.0977
  828TIP3    H223900   1.231   1.593  15.302  0.1791 -0.6421 -1.8291
  829TIP3   OH223901   5.858   3.749   2.092 -0.5932  0.1687 -0.0849
  829TIP3    H123902   5.808   3.828   2.112  2.0281  2.2410 -0.9920
  829TIP3    H223903   5.831   3.725   2.003 -1.2941  0.1262  0.1377
  830TIP3   OH223904   3.378   1.410   3.909  0.2952 -0.3820  0.4679
  830TIP3    H123905   3.442   1.374   3.849  1.4787  2.5750 -0.2430
  830TIP3    H223906   3.428   1.427   3.989 -0.6709 -1.9235  1.4516
  831TIP3   OH223907   2.645   6.670  13.589 -0.3496 -0.7278 -0.2912
  831TIP3    H123908   2.702   6.691  13.663 -2.5071 -0.2153  1.3216
  831TIP3    H223909   2.666   6.737  13.524  0.4306 -0.1508  0.5196
  832TIP3   OH223910   2.694   1.954   5.232 -0.1751 -0.5235 -0.3317
  832TIP3    H123911   2.655   1.870   5.212  0.3440 -0.7981 -0.2197
  832TIP3    H223912   2.728   1.986   5.148 -0.8954 -0.1438 -0.4861
  833TIP3   OH223913   2.482   1.727  15.096 -0.4544  0.0020 -0.1953
  833TIP3    H123914   2.433   1.722  15.014  0.6750 -2.4734 -0.7930
  833TIP3    H223915   2.491   1.636  15.125  0.5707  0.6799  1.8522
  834TIP3   OH223916   1.874   4.633   0.244  0.2469 -0.1106  0.1776
  834TIP3    H123917   1.798   4.675   0.285  0.3303  0.9246 -0.6977
  834TIP3    H223918   1.949   4.671   0.290  0.3453  1.1260 -0.9540
  835TIP3   OH223919   0.586   6.593   1.182  0.1127  0.6175  0.0783
  835TIP3    H123920   0.507   6.539   1.182  1.0115 -0.8020  1.2514
  835TIP3    H223921   0.656   6.532   1.206  1.3261  2.1578  0.6436
  836TIP3   OH223922   3.502   4.945  15.129  0.2347 -0.7738 -0.0539
  836TIP3    H123923   3.575   4.883  15.124  1.5019  0.7659 -1.3237
  836TIP3    H223924   3.516   4.991  15.212  2.5512  1.5919 -1.6057
  837TIP3   OH223925   0.613   5.884  12.533  0.2838 -0.6812  0.5911
  837TIP3    H123926   0.608   5.790  12.554  0.1131 -0.6127  0.8556
  837TIP3    H223927   0.648   5.886  12.444 -2.2458 -1.1231 -0.4999
  838TIP3   OH223928   4.270   5.399  11.898 -0.4645  0.6136  0.0937
  838TIP3    H123929   4.204   5.418  11.831 -0.9154 -2.3314 -0.4228
  838TIP3    H223930   4.315   5.321  11.866  1.5968  1.0571  1.6750
  839TIP3   OH223931   5.761   0.180   5.393 -0.3718  0.2415  0.2330
  839TIP3    H123932   5.837   0.201   5.339 -1.1877 -0.6110 -1.3170
  839TIP3    H223933   5.734   0.094   5.363 -3.0051  1.2461 -0.5153
  840TIP3   OH223934   2.372   3.446   4.107  0.2655  0.5715  0.0931
  840TIP3    H123935   2.446   3.498   4.077  0.8884 -0.1603  0.3226
  840TIP3    H223936   2.395   3.420   4.196  0.2945 -0.6701 -0.2559
  841TIP3   OH223937   2.083   5.560   3.416  0.0962 -0.5319  0.4300
  841TIP3    H123938   2.037   5.511   3.348 -0.8543  0.7244  0.1299
  841TIP3    H223939   2.107   5.642   3.374 -0.2278  0.1327  1.5225
  842TIP3   OH223940   5.978   0.761   3.320 -0.4054  0.0972 -0.1226
  842TIP3    H123941   5.967   0.678   3.367 -0.1661  0.6501  0.9374
  842TIP3    H223942   6.038   0.740   3.248 -0.1395 -0.5912  0.2903
  843TIP3   OH223943   0.120   5.126   0.325 -0.1541 -0.5556 -0.0861
  843TIP3    H123944   0.080   5.056   0.376 -0.6493  0.9623  1.7068
  843TIP3    H223945   0.140   5.086   0.240  0.6339 -3.1434  1.2489
  844TIP3   OH223946   0.198   3.107   2.257 -0.3295 -0.5969 -0.0434
  844TIP3    H123947   0.143   3.158   2.315  1.8953  1.9688  0.0065
  844TIP3    H223948   0.138   3.048   2.211 -2.8125  0.8988  1.1403
  845TIP3   OH223949   6.345   3.722   4.477  0.0119 -0.1352 -0.3828
  845TIP3    H123950   6.399   3.796   4.505  0.2529  0.1783 -1.5987
  845TIP3    H223951   6.259   3.761   4.459  0.4638  0.1158 -2.1947
  846TIP3   OH223952   5.294   3.093  13.215  0.0985 -0.6304 -0.1506
  846TIP3    H123953   5.352   3.102  13.291  0.8721 -1.8626 -0.5628
  846TIP3    H223954   5.315   3.007  13.179 -1.1212 -0.5710 -1.0560
  847TIP3   OH223955   1.730   1.340   4.633 -0.2750  0.4000  0.2381
  847TIP3    H123956   1.815   1.323   4.674 -1.0550 -1.6092  1.1199
  847TIP3    H223957   1.708   1.259   4.588 -2.2205  0.4846  0.9555
  848TIP3   OH223958   2.582   1.420  11.623  0.1020  0.0893 -0.7437
  848TIP3    H123959   2.504   1.371  11.648 -0.0571  0.0308 -1.3499
  848TIP3    H223960   2.563   1.511  11.648  0.8657 -0.2912  1.4979
  849TIP3   OH223961   3.254   4.384   3.683  0.3310  0.4963 -0.2364
  849TIP3    H123962   3.159   4.384   3.666  0.4280 -1.9234 -1.2841
  849TIP3    H223963   3.263   4.347   3.770  0.3221 -1.9320 -1.1818
  850TIP3   OH223964   4.193   3.236  11.979 -0.0093  0.0917  0.5032
  850TIP3    H123965   4.192   3.202  11.890 -0.5050 -0.8380  0.8517
  850TIP3    H223966   4.177   3.329  11.970 -0.6570 -0.0974 -0.3378
  851TIP3   OH223967   0.013   1.100   0.027  0.4674  0.3732 -0.6798
  851TIP3    H123968   0.026   1.112   0.121 -2.2481  0.2511 -0.1927
  851TIP3    H223969  -0.051   1.168   0.003 -0.2308 -0.7050 -2.0314
  852TIP3   OH223970   6.731   4.231  13.971  0.2006 -0.8301  0.2792
  852TIP3    H123971   6.651   4.272  14.002 -1.1365 -2.6795 -0.5360
  852TIP3    H223972   6.779   4.206  14.050 -0.3569 -0.3369  0.7769
  853TIP3   OH223973   3.392   1.628  12.540  0.3077  0.5276 -0.1321
  853TIP3    H123974   3.436   1.689  12.599  1.0014 -0.3676  0.3054
  853TIP3    H223975   3.299   1.652  12.544 -0.1891 -1.2535  3.5978
  854TIP3   OH223976   3.547   2.545   3.536 -0.2068 -0.0370 -0.0641
  854TIP3    H123977   3.586   2.477   3.592 -1.2736 -1.1067 -0.5830
  854TIP3    H223978   3.551   2.625   3.589  1.1078 -0.4785  0.5475
  855TIP3   OH223979   4.967   4.025  16.423  0.2409  0.6016  0.1803
  855TIP3    H123980   4.922   4.045  16.505  1.6039  1.0450  0.8654
  855TIP3    H223981   5.028   3.955  16.445  0.2065  0.3202 -0.5970
  856TIP3   OH223982   0.003   1.457  12.132  0.3387 -0.2323  0.6482
  856TIP3    H123983   0.012   1.510  12.212  0.2542 -0.9186  1.1245
  856TIP3    H223984   0.069   1.389  12.142 -0.0328 -0.6339  0.3863
  857TIP3   OH223985   5.065   3.421  14.957  0.1231 -0.0290  0.2874
  857TIP3    H123986   5.107   3.477  15.022  2.2909 -1.4978  0.2843
  857TIP3    H223987   5.081   3.464  14.873 -2.6006  1.8231  0.6020
  858TIP3   OH223988   2.458   1.326   5.253 -0.5764  0.4752  0.1174
  858TIP3    H123989   2.380   1.377   5.271 -0.8271 -0.3421  1.4333
  858TIP3    H223990   2.504   1.376   5.185 -2.4817  0.6840 -1.0651
  859TIP3   OH223991   2.867   1.582   6.099  0.4979 -0.4889  0.2125
  859TIP3    H123992   2.774   1.592   6.077  0.3673 -0.7474  0.6387
  859TIP3    H223993   2.908   1.662   6.066  0.4961 -1.3346 -1.9483
  860TIP3   OH223994   5.504   4.464   4.097  0.5557  0.0094  0.2637
  860TIP3    H123995   5.450   4.388   4.074  2.3417 -0.9891 -0.8519
  860TIP3    H223996   5.478   4.531   4.035  0.3457 -0.3561 -0.0502
  861TIP3   OH223997   5.045   3.607   3.324  0.1620  0.0932 -0.8921
  861TIP3    H123998   4.986   3.635   3.254 -1.5360  0.4264  0.6049
  861TIP3    H223999   5.072   3.689   3.367 -0.7000 -0.1970  0.2701
  862TIP3   OH224000   3.594   5.149  14.896 -0.0248 -0.0021  0.1066
  862TIP3    H124001   3.671   5.094  14.903  0.9463  1.0978 -1.1418
  862TIP3    H224002   3.521   5.088  14.885  0.5226 -1.0867  2.0669
  863TIP3   OH224003   3.039   5.588   3.309  0.4636 -0.4876 -0.6213
  863TIP3    H124004   3.119   5.591   3.362 -0.1413  1.1596  0.2729
  863TIP3    H224005   2.968   5.587   3.373 -0.2624 -1.7616 -1.4062
  864TIP3   OH224006   4.328   6.141   0.982  0.2025 -0.5229  0.1139
  864TIP3    H124007   4.392   6.195   1.028 -0.7772 -0.1547  1.0845
  864TIP3    H224008   4.371   6.056   0.971  0.5974 -0.5129  1.4133
  865TIP3   OH224009   4.526   2.130  11.207 -0.0386 -0.9350 -0.0965
  865TIP3    H124010   4.556   2.218  11.227 -0.0599 -0.6120 -1.4101
  865TIP3    H224011   4.463   2.109  11.276 -2.1262  1.1558 -1.2528
  866TIP3   OH224012   2.461   0.866  13.944  0.5592 -0.0810 -0.0117
  866TIP3    H124013   2.374   0.900  13.922  0.4049 -0.2378  0.3576
  866TIP3    H224014   2.509   0.943  13.976 -0.0565 -0.3396  1.6385
  867TIP3   OH224015   4.642   6.528   5.426  0.1696 -0.4349  0.4666
  867TIP3    H124016   4.598   6.612   5.430  0.3340 -0.3755  1.0420
  867TIP3    H224017   4.623   6.495   5.338  1.4340  0.9313 -0.3777
  868TIP3   OH224018   6.693   2.040  16.271 -0.1691  0.0463 -0.8704
  868TIP3    H124019   6.637   1.990  16.330  1.7239 -1.5567 -0.3146
  868TIP3    H224020   6.661   2.020  16.184 -0.7262 -0.4827 -0.5453
  869TIP3   OH224021   1.629   2.664   2.335  0.9226  0.2631 -0.1323
  869TIP3    H124022   1.670   2.618   2.262  1.9444  0.6101  0.2101
  869TIP3    H224023   1.583   2.595   2.383  3.1656 -0.6466  0.8845
  870TIP3   OH224024   6.245   3.483  15.430 -0.1598  0.5867 -0.0460
  870TIP3    H124025   6.284   3.461  15.515  0.2241  0.6842 -0.1936
  870TIP3    H224026   6.251   3.578  15.425  0.2246  0.5504 -0.3678
  871TIP3   OH224027   3.010   3.947  13.224 -0.4556 -0.4653  0.4514
  871TIP3    H124028   2.945   3.996  13.274 -1.8589 -1.1959 -0.5905
  871TIP3    H224029   3.093   3.991  13.243 -1.4584  1.4564  0.6216
  872TIP3   OH224030   2.216   4.435  11.312 -0.0046 -0.0292 -0.8602
  872TIP3    H124031   2.287   4.472  11.259  0.9256  0.3233  0.5774
  872TIP3    H224032   2.260   4.393  11.386 -1.1762 -2.0976 -1.2730
  873TIP3   OH224033   5.706   0.084  14.809 -0.1175 -0.1835  0.5568
  873TIP3    H124034   5.681   0.051  14.723  0.2713  0.6580  0.1095
  873TIP3    H224035   5.794   0.049  14.823 -0.0751 -0.1024  0.4930
  874TIP3   OH224036   4.796   1.914   5.518  0.6268  0.3211 -0.5781
  874TIP3    H124037   4.729   1.968   5.560 -0.6054  0.0891 -2.1645
  874TIP3    H224038   4.863   1.977   5.490 -0.2257  0.9090 -1.3590
  875TIP3   OH224039   4.879   0.313  14.683  0.7513  0.8130 -0.3023
  875TIP3    H124040   4.927   0.252  14.739 -0.2394  0.9655  0.7420
  875TIP3    H224041   4.907   0.400  14.713  1.9330  0.9087 -1.5878
  876TIP3   OH224042   3.196   2.312   6.478  0.1273  0.1594 -0.5683
  876TIP3    H124043   3.185   2.391   6.426  0.4891  0.5282 -0.0972
  876TIP3    H224044   3.170   2.241   6.420  0.4086  0.5732 -1.2119
  877TIP3   OH224045   2.195   4.772   3.005 -0.1927  0.0276  0.2503
  877TIP3    H124046   2.139   4.695   3.017 -1.4070  0.9162  0.5246
  877TIP3    H224047   2.209   4.806   3.094  1.1507 -0.4200  0.2242
  878TIP3   OH224048   2.113   1.470   0.600  0.2852 -0.0723  1.0053
  878TIP3    H124049   2.037   1.527   0.609  0.6156  0.3419  1.1711
  878TIP3    H224050   2.161   1.479   0.683  0.3834 -0.5275  1.0051
  879TIP3   OH224051   1.581   5.386   3.058  0.1564 -0.3237 -0.1596
  879TIP3    H124052   1.534   5.362   2.978  0.5801 -0.7782 -0.2798
  879TIP3    H224053   1.514   5.388   3.126  0.0923 -1.8697 -0.1436
  880TIP3   OH224054   2.915   1.391   0.683  0.9885 -0.0554  0.4786
  880TIP3    H124055   2.863   1.358   0.756 -0.0688 -1.2008 -0.7404
  880TIP3    H224056   2.947   1.313   0.638  1.7952  0.6235 -0.1629
  881TIP3   OH224057   0.979   0.966  12.534  0.3646  0.3283 -0.0081
  881TIP3    H124058   1.054   0.950  12.477 -0.7415  0.7397 -1.6607
  881TIP3    H224059   0.978   1.060  12.548  0.3415  0.2861  0.2822
  882TIP3   OH224060   5.382   6.595   5.403  0.1054 -0.5089 -0.0079
  882TIP3    H124061   5.383   6.524   5.467  1.1185 -0.0986  0.4432
  882TIP3    H224062   5.439   6.662   5.440 -1.6441  1.0092  0.0896
  883TIP3   OH224063   6.175   2.866   2.983  0.9366  0.9824  0.8959
  883TIP3    H124064   6.208   2.781   3.011  0.4686  0.8032  0.9209
  883TIP3    H224065   6.209   2.928   3.047  0.5224  0.6828  1.4089
  884TIP3   OH224066   2.470   3.388  15.255  0.2411  0.5335 -0.6358
  884TIP3    H124067   2.504   3.424  15.336  0.3875  0.3213 -0.6042
  884TIP3    H224068   2.381   3.359  15.277 -0.0239  1.2303 -0.7564
  885TIP3   OH224069   2.759   1.132  11.647 -0.3800  0.1333  0.4381
  885TIP3    H124070   2.783   1.072  11.576 -1.6437  0.5365 -0.3663
  885TIP3    H224071   2.752   1.217  11.604 -0.5792  0.4938  1.1743
  886TIP3   OH224072   3.067   0.636  11.257 -0.0507 -0.2184 -0.3012
  886TIP3    H124073   3.161   0.646  11.268 -0.1719 -0.1708  0.7915
  886TIP3    H224074   3.052   0.648  11.163  0.8822  1.0719 -0.3061
  887TIP3   OH224075   1.161   0.314  13.932  0.1764  0.4242 -0.1413
  887TIP3    H124076   1.102   0.372  13.884 -0.6051  1.6231  2.0999
  887TIP3    H224077   1.111   0.287  14.009  2.4715  1.4787  1.8672
  888TIP3   OH224078   4.412   5.889  14.269  0.1352 -0.7384  0.3455
  888TIP3    H124079   4.435   5.947  14.341  0.1571 -1.2377  0.7500
  888TIP3    H224080   4.316   5.886  14.270  0.0916  0.1190 -0.3519
  889TIP3   OH224081   5.728   2.864   4.932 -0.2720  0.0790 -0.6473
  889TIP3    H124082   5.766   2.828   4.852  1.9769  1.4002 -0.2754
  889TIP3    H224083   5.760   2.954   4.934 -2.8859  1.0716  0.1701
  890TIP3   OH224084   0.360   2.352   1.424 -0.5340  0.2483 -0.2405
  890TIP3    H124085   0.294   2.311   1.480 -0.5756  1.0063  0.2746
  890TIP3    H224086   0.319   2.432   1.392  0.4178  1.1677  0.7640
  891TIP3   OH224087   0.633   1.638  14.789  0.7309 -0.0530 -0.1746
  891TIP3    H124088   0.683   1.682  14.858  2.0810  1.8230 -2.2283
  891TIP3    H224089   0.560   1.696  14.770  0.5961 -0.3510 -0.5959
  892TIP3   OH224090   2.844   3.408  16.495  0.1055  0.6571 -0.0363
  892TIP3    H124091   2.773   3.365  16.447  0.5586 -0.6166  0.3816
  892TIP3    H224092   2.837   3.500  16.471 -0.6382  0.2922 -1.3110
  893TIP3   OH224093   3.209   5.226   2.591 -0.3973 -0.1499  0.0980
  893TIP3    H124094   3.136   5.172   2.560 -1.1665  0.4925  0.7567
  893TIP3    H224095   3.171   5.283   2.657  0.3472  1.3444 -0.7029
  894TIP3   OH224096   4.246   6.004   2.296  0.4621 -0.2566  0.2928
  894TIP3    H124097   4.166   5.963   2.328  0.1128  0.0955 -0.1306
  894TIP3    H224098   4.278   5.945   2.228  0.0415  0.0898 -0.2101
  895TIP3   OH224099   5.214   2.897   5.497  0.1943 -0.5793  0.2549
  895TIP3    H124100   5.294   2.866   5.538 -0.1512  0.1061  1.4873
  895TIP3    H224101   5.144   2.873   5.558 -0.3528  0.2706 -0.0160
  896TIP3   OH224102   3.448   0.131   5.391 -0.6647 -0.4736 -0.2644
  896TIP3    H124103   3.359   0.156   5.364 -0.3171  0.2206 -0.7971
  896TIP3    H224104   3.450   0.036   5.381 -1.7343 -0.6489  0.9499
  897TIP3   OH224105   3.304   6.675  16.490  0.7258  0.2139 -0.2721
  897TIP3    H124106   3.326   6.636  16.405 -0.3209 -0.7760 -0.1218
  897TIP3    H224107   3.372   6.739  16.505  1.5700 -0.3867 -1.3422
  898TIP3   OH224108   5.607   1.162   0.500  0.2704  0.0573 -0.4198
  898TIP3    H124109   5.653   1.098   0.554  2.4341 -0.1459 -2.3525
  898TIP3    H224110   5.600   1.240   0.555  0.5354 -0.7812  0.8374
  899TIP3   OH224111   5.477   6.494  13.319  0.7028  0.5209  0.3072
  899TIP3    H124112   5.570   6.487  13.343  0.9683 -1.6004 -1.0856
  899TIP3    H224113   5.458   6.412  13.274 -1.9088  0.8520  0.6585
  900TIP3   OH224114   4.525   0.678   0.202  0.4884 -0.1023  0.1927
  900TIP3    H124115   4.518   0.590   0.239 -1.9874  0.3196  0.8664
  900TIP3    H224116   4.437   0.715   0.209  0.8500  1.5274 -2.3834
  901TIP3   OH224117   1.513   4.006   5.128 -0.0466 -0.5512  0.1759
  901TIP3    H124118   1.596   4.033   5.088  0.1321 -0.5201  0.5600
  901TIP3    H224119   1.505   4.062   5.206  0.5023 -1.8356  1.1931
  902TIP3   OH224120   1.029   0.091   2.378  0.0387 -0.3389  0.1359
  902TIP3    H124121   1.123   0.099   2.389 -0.0889  2.6655 -0.1260
  902TIP3    H224122   1.015   0.089   2.283 -0.2412  2.8360  0.0135
  903TIP3   OH224123   6.522   6.327   2.050 -0.2381 -0.0959  0.1737
  903TIP3    H124124   6.554   6.410   2.016 -0.2122 -0.3795 -0.5069
  903TIP3    H224125   6.564   6.260   1.996 -2.1517 -0.4729 -0.9447
  904TIP3   OH224126   2.596   5.978  15.656  0.7391 -0.2054 -0.4297
  904TIP3    H124127   2.567   6.016  15.739 -1.7550  1.1608 -1.7994
  904TIP3    H224128   2.655   6.044  15.620  1.0146 -0.3288 -0.2089
  905TIP3   OH224129   3.966   1.011   0.157  0.7857  0.1855 -0.6204
  905TIP3    H124130   3.939   0.988   0.246 -1.6572 -0.8305 -1.5178
  905TIP3    H224131   3.953   1.106   0.152 -0.7202  0.0183 -0.3587
  906TIP3   OH224132   5.084   1.562  12.401  0.0397 -0.4297  0.0701
  906TIP3    H124133   5.115   1.564  12.311  0.0478 -1.7156  0.0239
  906TIP3    H224134   5.013   1.497  12.401 -1.4638  1.1458  0.5443
  907TIP3   OH224135   0.613   1.092   3.498 -0.0590  0.0385 -0.3688
  907TIP3    H124136   0.613   1.178   3.455  0.8943 -0.5751 -1.6956
  907TIP3    H224137   0.657   1.107   3.582 -1.5731  1.1835  0.2724
  908TIP3   OH224138   2.877   6.002   2.058 -0.3476  0.3875  0.0290
  908TIP3    H124139   2.876   6.096   2.074 -1.2404  0.8464 -2.2967
  908TIP3    H224140   2.795   5.984   2.012  1.0277 -0.9816 -2.1003
  909TIP3   OH224141   5.052   1.258   5.234  0.3416  0.2901 -0.2762
  909TIP3    H124142   5.008   1.172   5.233 -0.9619  0.9084 -1.9640
  909TIP3    H224143   5.044   1.289   5.144  1.2868  1.9661  0.1844
  910TIP3   OH224144   4.397   3.034   2.748 -0.4640 -0.2145  0.3457
  910TIP3    H124145   4.480   3.067   2.782 -0.1927 -0.4092 -0.1162
  910TIP3    H224146   4.421   2.957   2.697 -0.8112  0.3252 -0.6547
  911TIP3   OH224147   6.083   1.661   0.922  0.0118  0.5329 -0.4015
  911TIP3    H124148   6.035   1.671   0.840 -0.7908 -1.4374 -0.2122
  911TIP3    H224149   6.017   1.670   0.990  0.2029 -0.4007 -0.0767
  912TIP3   OH224150   3.350   6.597  13.561 -0.2124  0.4055  0.6301
  912TIP3    H124151   3.408   6.548  13.503 -0.6984 -0.7874  1.1322
  912TIP3    H224152   3.410   6.643  13.620  0.2507  0.6665 -0.0173
  913TIP3   OH224153   1.564   6.275  15.054 -0.1787  0.0554 -0.0209
  913TIP3    H124154   1.650   6.238  15.033 -0.3883 -0.1390 -0.5495
  913TIP3    H224155   1.532   6.224  15.128  0.7570  1.0225  1.0963
  914TIP3   OH224156   2.078   3.275  13.479 -0.0785 -0.1106 -0.1770
  914TIP3    H124157   2.089   3.358  13.526  1.1664 -0.2806 -0.1421
  914TIP3    H224158   2.014   3.295  13.411  1.5974  1.4280 -1.3990
  915TIP3   OH224159   6.373   5.355  16.986  0.4668  0.1837  0.2318
  915TIP3    H124160   6.300   5.308  17.025 -1.4581  1.5473 -1.4881
  915TIP3    H224161   6.450   5.302  17.007 -1.0846 -1.7388  1.4425
  916TIP3   OH224162   0.582   5.341  13.285  0.5145  0.2183 -0.1902
  916TIP3    H124163   0.586   5.353  13.190  0.6309 -0.8577 -0.3431
  916TIP3    H224164   0.633   5.261  13.301 -1.9001 -1.3045  0.4203
  917TIP3   OH224165   4.668   4.408   5.070  0.2141 -0.2750 -0.2803
  917TIP3    H124166   4.664   4.393   4.975  1.5318 -0.7120 -0.2909
  917TIP3    H224167   4.717   4.333   5.104  0.1092  0.0856  0.6976
  918TIP3   OH224168   4.053   1.938  13.565  0.1919  1.2257  0.4007
  918TIP3    H124169   4.060   2.027  13.531 -1.0568  0.8184 -1.0357
  918TIP3    H224170   3.964   1.910  13.543  1.4591 -1.4596 -2.1030
  919TIP3   OH224171   2.726   1.793  10.774 -0.3361  0.2569 -0.5201
  919TIP3    H124172   2.813   1.772  10.741  0.5631 -0.0710  1.8616
  919TIP3    H224173   2.685   1.707  10.788 -0.3431  0.3468  0.0448
  920TIP3   OH224174   3.690   1.793  10.756  0.3743  0.0017 -0.0127
  920TIP3    H124175   3.600   1.809  10.727 -0.5937 -0.2777  2.5966
  920TIP3    H224176   3.744   1.836  10.689 -1.5746 -1.2079 -2.5430
  921TIP3   OH224177   4.813   2.267  17.172  0.0055  0.2769  0.1089
  921TIP3    H124178   4.905   2.288  17.156  0.4015  0.8881  2.7549
  921TIP3    H224179   4.781   2.339  17.226 -1.5170 -0.8473  0.7798
  922TIP3   OH224180   0.340   2.734  15.296  0.5833  0.1918  0.3202
  922TIP3    H124181   0.285   2.662  15.266  0.1727 -0.6229  2.8433
  922TIP3    H224182   0.349   2.790  15.218 -3.5556  0.2453 -0.3906
  923TIP3   OH224183   5.813   2.828   3.273 -0.4401  0.1803  0.2121
  923TIP3    H124184   5.756   2.881   3.329  1.0986  0.7357  1.3497
  923TIP3    H224185   5.806   2.868   3.186  2.5940  4.1684  1.4474
  924TIP3   OH224186   6.286   0.721   3.930 -0.4422  0.2912 -0.2033
  924TIP3    H124187   6.341   0.676   3.866 -0.6717  2.0701 -1.7183
  924TIP3    H224188   6.200   0.726   3.888 -1.3139 -0.7530  1.3442
  925TIP3   OH224189   1.612   4.554  14.130 -0.1898  0.0596 -0.2529
  925TIP3    H124190   1.652   4.639  14.150  0.7910  0.1861 -2.5021
  925TIP3    H224191   1.540   4.546  14.193  0.6967  1.7992  1.0716
  926TIP3   OH224192   4.686   2.620   3.425 -0.1071 -0.0016 -0.5578
  926TIP3    H124193   4.656   2.679   3.494 -0.0792  0.8312 -1.2375
  926TIP3    H224194   4.650   2.535   3.448 -0.6917  0.4172  0.1006
  927TIP3   OH224195   5.001   6.746   3.059 -0.0842 -0.2792  0.2922
  927TIP3    H124196   5.065   6.772   2.993 -0.0865 -2.0982 -0.4946
  927TIP3    H224197   5.053   6.700   3.125 -0.2305  0.5970  1.0300
  928TIP3   OH224198   2.346   1.829  12.526  0.5016  0.1505  0.1217
  928TIP3    H124199   2.280   1.897  12.517 -0.9228 -1.0405  1.0425
  928TIP3    H224200   2.407   1.862  12.592 -0.1977  0.5272  0.5913
  929TIP3   OH224201   4.659   0.030  14.510  0.2336 -0.6141 -0.4717
  929TIP3    H124202   4.598  -0.044  14.507 -2.0510  1.1108  0.7361
  929TIP3    H224203   4.672   0.054  14.419 -0.6678 -1.2167 -0.7763
  930TIP3   OH224204   4.160   0.552   5.574 -0.2287 -0.7007  0.3874
  930TIP3    H124205   4.185   0.544   5.481  1.0414 -0.5739  0.6920
  930TIP3    H224206   4.077   0.506   5.581 -0.0031 -1.3049 -0.6861
  931TIP3   OH224207   1.598   4.255   1.851  0.2835 -0.1424 -0.1333
  931TIP3    H124208   1.571   4.238   1.941 -1.0886  0.7420 -0.3398
  931TIP3    H224209   1.572   4.177   1.803  0.3769 -0.3295  0.1197
  932TIP3   OH224210   1.916   4.162   4.287 -0.1820  0.0834  0.4263
  932TIP3    H124211   1.903   4.238   4.229  0.1784  1.3953  1.9772
  932TIP3    H224212   1.985   4.111   4.244 -0.6106  0.4952 -0.7844
  933TIP3   OH224213   6.665   5.646   1.201 -0.0428 -0.0909  0.0028
  933TIP3    H124214   6.668   5.550   1.192 -0.3384 -0.0554 -0.4829
  933TIP3    H224215   6.756   5.673   1.185 -0.2758 -0.1499 -1.6258
  934TIP3   OH224216   1.266   6.040  11.543 -0.0477 -0.6082 -0.4264
  934TIP3    H124217   1.282   6.090  11.623  0.6689  1.4389 -1.7565
  934TIP3    H224218   1.352   6.008  11.517 -0.0274 -0.0028 -1.1367
  935TIP3   OH224219   0.217   4.950   2.343 -0.4170  0.9339 -0.8474
  935TIP3    H124220   0.287   4.907   2.295  2.1109  3.7960 -0.0464
  935TIP3    H224221   0.177   4.881   2.395  1.2339 -0.9819 -1.9905
  936TIP3   OH224222   5.313   5.124  13.073  0.5364  0.5316 -0.2507
  936TIP3    H124223   5.369   5.051  13.049  0.4910  1.5652 -4.0873
  936TIP3    H224224   5.374   5.192  13.103  0.8116 -0.0382  0.5189
  937TIP3   OH224225   6.414   1.986  15.316  0.1919 -0.1728 -0.3685
  937TIP3    H124226   6.361   2.015  15.391  0.3080 -0.2513 -0.2562
  937TIP3    H224227   6.487   1.938  15.355 -0.0053 -0.6273 -0.5528
  938TIP3   OH224228   1.771   1.329   0.722  0.6841  0.2235  0.5479
  938TIP3    H124229   1.823   1.334   0.802  0.2816 -1.7895  0.9720
  938TIP3    H224230   1.828   1.286   0.658 -0.1232 -1.2477  0.7758
  939TIP3   OH224231   4.501   5.307   1.875  0.3823  0.1345 -0.0919
  939TIP3    H124232   4.587   5.281   1.909  0.2365 -1.1349 -0.6335
  939TIP3    H224233   4.451   5.225   1.871 -0.8721  0.8622  0.2488
  940TIP3   OH224234   6.406   3.187  16.320 -0.3884  0.2594  0.4735
  940TIP3    H124235   6.356   3.188  16.238 -0.6908  0.4197  0.6589
  940TIP3    H224236   6.466   3.113  16.310 -0.2973  0.3864  0.0328
  941TIP3   OH224237   1.355   1.065  12.966 -0.0487 -0.0769 -0.4000
  941TIP3    H124238   1.306   0.997  13.012 -0.9558  1.4977  1.0548
  941TIP3    H224239   1.354   1.140  13.024  1.1642  1.1333 -1.8369
  942TIP3   OH224240   5.259   1.839  16.223 -0.0104 -0.2966  0.0216
  942TIP3    H124241   5.325   1.816  16.157 -1.2095  0.3237 -1.4572
  942TIP3    H224242   5.258   1.935  16.222 -0.7503 -0.3042  0.2205
  943TIP3   OH224243   5.182   6.356  13.430 -0.1948  0.0720 -0.1658
  943TIP3    H124244   5.196   6.265  13.455  0.1145  0.2642  0.3925
  943TIP3    H224245   5.146   6.352  13.341 -0.6120 -0.6045  0.0280
  944TIP3   OH224246   2.094   4.994   5.826  0.0904  0.1070 -0.1793
  944TIP3    H124247   2.151   4.942   5.768  0.8647 -0.5975  1.1748
  944TIP3    H224248   2.005   4.970   5.799  0.3770  1.2977 -2.3930
  945TIP3   OH224249   4.659   3.521  12.980  0.6170  0.6775  0.3320
  945TIP3    H124250   4.648   3.572  12.900 -2.6025 -0.5563 -0.1607
  945TIP3    H224251   4.653   3.430  12.951  1.0444  0.1569  1.7977
  946TIP3   OH224252   1.893   2.001  13.879  0.0795 -0.2418  0.5422
  946TIP3    H124253   1.923   1.950  13.954  0.0527 -0.1322  0.6281
  946TIP3    H224254   1.801   1.976  13.869  0.3450 -1.0057 -0.0771
  947TIP3   OH224255   1.581   0.706   1.807 -0.1472 -0.8341  0.1447
  947TIP3    H124256   1.531   0.773   1.761 -0.0767 -1.5160 -0.9909
  947TIP3    H224257   1.648   0.680   1.744  1.5231 -0.0989  1.5470
  948TIP3   OH224258   2.329   5.274   3.816 -0.6236  0.5290 -0.5373
  948TIP3    H124259   2.256   5.278   3.754 -0.2712 -0.1950 -0.9966
  948TIP3    H224260   2.296   5.321   3.893 -1.1910  1.1219 -1.1287
  949TIP3   OH224261   5.666   1.363   6.118 -0.8308  0.2587 -0.6637
  949TIP3    H124262   5.735   1.310   6.080 -2.0498  0.3236 -3.2179
  949TIP3    H224263   5.593   1.302   6.130 -0.1134 -0.0825  3.1100
  950TIP3   OH224264   6.714   2.146  13.380 -0.2006  0.1652  0.4375
  950TIP3    H124265   6.808   2.135  13.368 -0.1371  1.2308 -0.1748
  950TIP3    H224266   6.682   2.059  13.400  0.7551 -0.4286 -0.5159
  951TIP3   OH224267   1.736   6.319   2.421  0.0212  0.1375 -0.1405
  951TIP3    H124268   1.710   6.321   2.513  2.0244  1.2569  0.4626
  951TIP3    H224269   1.796   6.245   2.415 -2.8098 -2.2294 -1.4380
  952TIP3   OH224270   2.981   2.649   3.301 -0.3612 -0.2002 -0.0405
  952TIP3    H124271   2.951   2.727   3.349  0.0651 -0.0632  0.0102
  952TIP3    H224272   3.077   2.655   3.304 -0.3252 -0.2360 -0.8363
  953TIP3   OH224273   4.782   2.992  11.633 -0.5259 -0.2802  0.2981
  953TIP3    H124274   4.801   2.942  11.553 -0.5593 -0.9659  0.7054
  953TIP3    H224275   4.711   2.943  11.675  0.8025 -1.0589  1.7299
  954TIP3   OH224276   3.800   2.508   1.040  0.0201 -0.1432  0.4561
  954TIP3    H124277   3.877   2.478   1.089  0.6602 -1.7324 -1.3883
  954TIP3    H224278   3.759   2.428   1.007 -0.8459  0.7995 -0.8731
  955TIP3   OH224279   5.840   2.902   3.570 -0.0972  0.0137  0.1819
  955TIP3    H124280   5.867   2.810   3.570 -2.2374 -0.6651 -0.3823
  955TIP3    H224281   5.810   2.918   3.659 -0.3033 -0.0107  0.1161
  956TIP3   OH224282   4.400   3.196  14.504 -0.4893 -0.1821 -0.3707
  956TIP3    H124283   4.308   3.219  14.517 -0.6913 -1.1902  0.1282
  956TIP3    H224284   4.428   3.163  14.590  0.5419  0.7594 -0.3183
  957TIP3   OH224285   1.171   5.868  12.427 -0.0562 -0.0733 -0.6940
  957TIP3    H124286   1.097   5.830  12.475  0.2652 -0.3305 -0.3999
  957TIP3    H224287   1.142   5.957  12.405  0.6903  0.9483  2.0768
  958TIP3   OH224288   4.360   1.746   0.258 -0.0466 -0.3257 -0.6089
  958TIP3    H124289   4.374   1.838   0.237  0.1230 -0.1730  0.1672
  958TIP3    H224290   4.264   1.737   0.262 -0.0656  0.3744  1.6579
  959TIP3   OH224291   5.600   4.467   1.712  0.0068  0.0107 -0.4753
  959TIP3    H124292   5.553   4.390   1.745  0.8131  0.1080  0.9645
  959TIP3    H224293   5.624   4.516   1.790 -0.2537  1.6113 -1.3646
  960TIP3   OH224294   4.946   1.554   2.976 -0.3002  0.5172 -0.1099
  960TIP3    H124295   4.980   1.486   2.918 -0.6221  0.3607 -0.1188
  960TIP3    H224296   4.893   1.507   3.040 -1.8174  0.8745 -1.0436
  961TIP3   OH224297   0.442   1.581  14.148  0.2531  0.3524  0.6333
  961TIP3    H124298   0.444   1.608  14.057  0.4859 -2.0385 -0.1336
  961TIP3    H224299   0.472   1.491  14.147  1.6915  0.7011  3.2729
  962TIP3   OH224300   5.522   2.289  14.400  0.3141 -0.0915  0.0869
  962TIP3    H124301   5.488   2.317  14.315  0.2899 -1.8536 -0.5094
  962TIP3    H224302   5.587   2.222  14.380  1.0032  0.1349  1.4259
  963TIP3   OH224303   5.802   5.086   5.189  0.3198  0.2172  0.4437
  963TIP3    H124304   5.892   5.099   5.162  0.2877  0.2250  0.3376
  963TIP3    H224305   5.805   5.014   5.252  0.2595 -0.6108 -0.4640
  964TIP3   OH224306   0.624   5.506   3.535 -0.3647 -0.9918  0.3492
  964TIP3    H124307   0.689   5.445   3.570  0.4534  0.8729  2.2850
  964TIP3    H224308   0.664   5.592   3.545 -2.9360  0.1957  1.1663
  965TIP3   OH224309   0.237   0.418   1.390  0.4319  0.1629 -0.1210
  965TIP3    H124310   0.191   0.461   1.462 -1.3033 -0.2212 -0.9494
  965TIP3    H224311   0.295   0.354   1.433 -0.0807  0.3912  0.9413
  966TIP3   OH224312   0.449   6.200   0.686  0.2529 -0.1851 -0.8543
  966TIP3    H124313   0.367   6.156   0.708 -0.3869  1.9557  1.4633
  966TIP3    H224314   0.517   6.139   0.712 -0.5991 -0.1541  1.6402
  967TIP3   OH224315   2.628   5.500   2.164 -0.2805  0.1962  0.2835
  967TIP3    H124316   2.643   5.485   2.071  3.1728  1.4925  0.4898
  967TIP3    H224317   2.698   5.451   2.207  0.2627  2.3257  1.9562
  968TIP3   OH224318   4.135   4.348   6.408 -0.2760  0.5226  0.7300
  968TIP3    H124319   4.156   4.440   6.391 -0.4758  0.4187 -0.1736
  968TIP3    H224320   4.122   4.342   6.502 -0.3346  1.4390  0.7831
  969TIP3   OH224321   2.691   2.955   2.286  0.1824 -0.4460 -0.0341
  969TIP3    H124322   2.759   3.022   2.290  0.7484 -1.0520  1.0071
  969TIP3    H224323   2.611   3.001   2.313  0.4812 -0.0871  0.2543
  970TIP3   OH224324   1.725   3.132   5.148 -0.1014  0.1954  0.0186
  970TIP3    H124325   1.730   3.227   5.161  1.2097  0.0818  0.5210
  970TIP3    H224326   1.808   3.109   5.108 -1.0887 -0.5419 -1.7080
  971TIP3   OH224327   5.910   3.992   2.331 -0.3414 -0.4276  0.1872
  971TIP3    H124328   5.836   3.970   2.275 -0.4643  0.4840 -0.0173
  971TIP3    H224329   5.872   4.040   2.404  0.0690  0.2623 -0.0453
  972TIP3   OH224330   5.758   0.713   0.592  0.6225  0.1856 -0.0505
  972TIP3    H124331   5.748   0.725   0.497  0.4141 -0.7342 -0.1543
  972TIP3    H224332   5.686   0.656   0.616  1.5725 -0.8471  0.4017
  973TIP3   OH224333   6.495   2.082  15.894  0.1765 -0.3716 -0.5613
  973TIP3    H124334   6.569   2.089  15.834  0.4765  1.1787 -0.0506
  973TIP3    H224335   6.524   2.018  15.960  0.8118 -0.2522 -0.7175
  974TIP3   OH224336   1.793   0.465  13.678  0.7285 -0.2987  0.9872
  974TIP3    H124337   1.728   0.428  13.618  0.3248  1.8016  0.0550
  974TIP3    H224338   1.865   0.401  13.678 -0.4437 -1.6565  0.4337
  975TIP3   OH224339   5.701   4.450  15.967 -0.0424  0.2221 -0.1458
  975TIP3    H124340   5.655   4.366  15.974  0.0999 -0.0693 -2.1662
  975TIP3    H224341   5.636   4.515  15.992 -0.9535 -0.3270 -1.0087
  976TIP3   OH224342   3.318   1.086  11.752  0.5341 -0.6590  0.6165
  976TIP3    H124343   3.337   1.095  11.846  2.3718 -0.2374  0.2404
  976TIP3    H224344   3.227   1.116  11.744  0.8079  0.7513  2.0650
  977TIP3   OH224345   1.266   5.268  13.431 -0.1886 -0.0686 -0.2558
  977TIP3    H124346   1.229   5.300  13.513 -1.0015 -0.5403 -0.4261
  977TIP3    H224347   1.359   5.259  13.449 -0.3481 -0.1051  0.6000
  978TIP3   OH224348   0.517   0.725   4.944  0.0639  0.3317  0.1206
  978TIP3    H124349   0.501   0.633   4.965 -0.2115  0.0686 -1.1527
  978TIP3    H224350   0.560   0.760   5.022  1.8878 -1.3361 -0.0335
  979TIP3   OH224351   3.876   3.380   5.626  0.4430 -0.1683  0.7535
  979TIP3    H124352   3.827   3.455   5.591  0.1678 -0.0949  1.2829
  979TIP3    H224353   3.872   3.315   5.556  2.5950  1.0913 -0.6331
  980TIP3   OH224354   4.009   1.437  11.707 -0.6112 -0.1099  0.2078
  980TIP3    H124355   3.965   1.353  11.719 -1.1953 -0.0088 -1.0995
  980TIP3    H224356   3.948   1.488  11.653  0.6163  0.4381 -0.6997
  981TIP3   OH224357   4.412   5.968   4.694 -0.4820  0.6086 -0.0592
  981TIP3    H124358   4.348   5.908   4.656 -0.0114 -1.2230  1.9053
  981TIP3    H224359   4.493   5.950   4.646 -0.4594  0.0024  0.2020
  982TIP3   OH224360   5.355   0.174  11.488 -0.5097  0.2122 -0.1984
  982TIP3    H124361   5.415   0.248  11.486 -0.0125 -0.1727  0.0384
  982TIP3    H224362   5.336   0.155  11.396 -0.5680  0.5785 -0.2609
  983TIP3   OH224363   4.500   5.607   1.935  0.5489 -0.2292 -0.0033
  983TIP3    H124364   4.589   5.618   1.903  1.3368 -1.6285  1.5549
  983TIP3    H224365   4.486   5.513   1.936 -0.9905 -0.0240 -0.3038
  984TIP3   OH224366   2.624   1.136  10.726  0.2452 -0.7588  0.1748
  984TIP3    H124367   2.646   1.196  10.796  0.6943  0.7559 -1.1986
  984TIP3    H224368   2.566   1.186  10.669 -0.8433 -2.2416 -0.1022
  985TIP3   OH224369   0.551   0.843  12.733 -0.0295 -0.3506  0.4631
  985TIP3    H124370   0.514   0.774  12.788  1.0187 -1.6834 -0.4698
  985TIP3    H224371   0.544   0.922  12.787 -4.4085 -0.3982  0.3078
  986TIP3   OH224372   5.093   0.591   4.948 -0.7255 -0.1540 -0.0910
  986TIP3    H124373   5.143   0.668   4.977 -2.0218  0.1160  1.6152
  986TIP3    H224374   5.121   0.577   4.858  1.6447  0.5892  0.4384
  987TIP3   OH224375   2.094   1.747   5.861 -0.2886  0.5387 -0.1626
  987TIP3    H124376   2.115   1.809   5.791 -1.1651 -0.3453 -1.2519
  987TIP3    H224377   2.028   1.792   5.914 -0.3498  0.8360 -0.4907
  988TIP3   OH224378   5.073   0.894   4.151  0.3721  0.5224  0.1235
  988TIP3    H124379   5.129   0.866   4.079  0.2698 -0.7477  0.5146
  988TIP3    H224380   5.102   0.983   4.170  1.0987  0.5007 -0.8018
  989TIP3   OH224381   1.282   5.285   0.943  0.0202 -0.1090  0.2103
  989TIP3    H124382   1.331   5.220   0.994  0.8961  0.1875 -0.2240
  989TIP3    H224383   1.241   5.234   0.873 -2.1658 -0.6961  1.8506
  990TIP3   OH224384   3.773   4.290   0.106 -0.4484  0.0175  0.6053
  990TIP3    H124385   3.807   4.373   0.073  0.9338 -0.5672  0.4852
  990TIP3    H224386   3.703   4.315   0.166  0.5407  1.3361  1.2782
  991TIP3   OH224387   5.731   3.970   0.785 -0.6131  0.3433 -0.2131
  991TIP3    H124388   5.730   3.917   0.705  2.7633 -2.3004  1.2114
  991TIP3    H224389   5.820   4.007   0.788 -0.9182  1.0575  1.8783
  992TIP3   OH224390   1.775   2.313   5.597 -0.5570  0.3966  0.3322
  992TIP3    H124391   1.702   2.253   5.579  1.3305 -1.9677  0.1023
  992TIP3    H224392   1.800   2.294   5.687  1.1076 -0.3740 -0.2648
  993TIP3   OH224393   0.801   5.618  13.309  0.1072 -0.2879 -0.0953
  993TIP3    H124394   0.768   5.638  13.396 -0.3071 -0.0633 -0.3002
  993TIP3    H224395   0.723   5.599  13.257  0.2725  0.3958 -0.6207
  994TIP3   OH224396   5.996   5.013  11.224  0.0311 -0.2036  0.1479
  994TIP3    H124397   6.043   4.933  11.244 -0.6898 -0.8415 -0.6589
  994TIP3    H224398   6.010   5.027  11.131  0.2108  0.6612  0.2900
  995TIP3   OH224399   5.316   6.662  16.450  0.2167 -0.6269 -0.0106
  995TIP3    H124400   5.328   6.638  16.542  0.2264 -0.0696  0.1344
  995TIP3    H224401   5.405   6.678  16.418  0.3118 -1.8288 -0.4017
  996TIP3   OH224402   6.295   5.842   4.699  0.0986 -0.2712 -0.0762
  996TIP3    H124403   6.222   5.877   4.751  0.4858 -2.5349  2.1836
  996TIP3    H224404   6.253   5.808   4.619 -0.7666  1.6699 -0.4967
  997TIP3   OH224405   3.995   1.448  10.347  0.2021 -0.4763  0.6331
  997TIP3    H124406   3.920   1.484  10.394 -1.0117  0.0248 -1.5934
  997TIP3    H224407   4.069   1.501  10.376 -0.7973  0.9136  0.7149
  998TIP3   OH224408   0.798   0.607  15.110 -0.4053 -0.3774 -0.7842
  998TIP3    H124409   0.751   0.544  15.055 -0.3600 -2.0326  0.9821
  998TIP3    H224410   0.831   0.556  15.183  0.3273  1.5825  0.3419
  999TIP3   OH224411   1.045   1.182   2.020  0.0210  0.2073  0.1316
  999TIP3    H124412   1.055   1.159   1.928 -1.1334  0.5574 -0.0942
  999TIP3    H224413   1.128   1.157   2.060 -0.1645 -1.8141 -0.6109
 1000TIP3   OH224414   0.091   5.056  15.021  0.1878 -0.7137 -0.6300
 1000TIP3    H124415   0.034   4.993  15.065 -0.5198  0.1607 -0.2579
 1000TIP3    H224416   0.060   5.058  14.931 -0.4732 -0.1588 -0.4031
 1001TIP3   OH224417   2.304   2.967  14.773  0.0263  0.2366 -0.0053
 1001TIP3    H124418   2.357   2.890  14.794 -1.0976 -1.2117 -2.1496
 1001TIP3    H224419   2.259   2.945  14.692 -2.6768  2.0009  0.8480
 1002TIP3   OH224420   1.943   1.114   5.654 -0.3317  0.4668  0.3909
 1002TIP3    H124421   1.917   1.201   5.624 -1.7726 -0.1981 -0.3693
 1002TIP3    H224422   2.038   1.121   5.665 -0.1989  1.7101 -1.1063
 1003TIP3   OH224423   1.570   6.093   5.608 -0.5326 -0.3438  0.6375
 1003TIP3    H124424   1.591   6.098   5.515 -1.5250 -0.3916  0.4061
 1003TIP3    H224425   1.612   6.171   5.645 -0.2737 -0.2307  0.1209
 1004TIP3   OH224426   3.238   0.010  11.699 -0.6311 -0.3597  0.3410
 1004TIP3    H124427   3.247   0.105  11.699 -0.7858 -0.3192 -1.0466
 1004TIP3    H224428   3.328  -0.023  11.693 -0.5497 -0.3230  1.2532
 1005TIP3   OH224429   2.830   2.399   4.914 -0.3372  0.0672  0.6739
 1005TIP3    H124430   2.755   2.415   4.858 -0.5208 -1.6204  0.3826
 1005TIP3    H224431   2.902   2.380   4.853 -0.6279 -2.1550  0.9275
 1006TIP3   OH224432   3.212   6.230   0.322  0.2085 -0.5347 -0.2624
 1006TIP3    H124433   3.287   6.231   0.382  0.8272 -0.8362 -1.0138
 1006TIP3    H224434   3.142   6.274   0.371  0.7140 -0.7106  0.6508
 1007TIP3   OH224435   5.519   1.874   2.390 -0.1301 -0.3662 -0.1147
 1007TIP3    H124436   5.440   1.882   2.443 -0.2730 -2.7179  0.1319
 1007TIP3    H224437   5.587   1.844   2.451 -0.1428 -2.4924 -1.0578
 1008TIP3   OH224438   3.299   1.178  12.784  0.0002  0.0020  0.1458
 1008TIP3    H124439   3.365   1.238  12.750  0.0085  0.4030  0.8502
 1008TIP3    H224440   3.231   1.176  12.717  0.4095  0.1082 -0.2772
 1009TIP3   OH224441   4.741   2.348  11.523 -0.0658  0.4052  0.1337
 1009TIP3    H124442   4.678   2.337  11.452 -0.0494 -0.3509  0.2264
 1009TIP3    H224443   4.798   2.418  11.494  1.3837 -1.4018 -1.6699
 1010TIP3   OH224444   3.192   4.667   2.931 -0.0595  0.1104  0.0561
 1010TIP3    H124445   3.258   4.730   2.959  1.1181 -0.3640 -1.4723
 1010TIP3    H224446   3.142   4.714   2.864  0.6019 -0.4183 -0.8393
 1011TIP3   OH224447   0.831   4.950  15.712 -0.2418  0.3081 -0.1838
 1011TIP3    H124448   0.748   4.904  15.698  0.1848 -0.2922 -0.8109
 1011TIP3    H224449   0.873   4.902  15.784  0.7820 -1.1526 -1.6765
 1012TIP3   OH224450   6.373   1.047   3.697  0.1360 -0.5096 -0.2020
 1012TIP3    H124451   6.416   1.132   3.707 -0.7144  0.0998 -1.3566
 1012TIP3    H224452   6.358   1.040   3.602 -0.9149 -1.3780  0.0102
 1013TIP3   OH224453   3.334   1.169   4.952  0.6022 -0.2846 -0.0607
 1013TIP3    H124454   3.289   1.104   4.898  0.6933 -0.2523 -0.1785
 1013TIP3    H224455   3.426   1.161   4.926  0.6295 -0.1888  0.0074
 1014TIP3   OH224456   6.022   4.783  16.377  0.1965 -1.0934  0.0036
 1014TIP3    H124457   5.961   4.821  16.314 -0.8756 -0.6474  1.2557
 1014TIP3    H224458   6.013   4.688  16.366 -0.8758 -1.0316  0.3030
 1015TIP3   OH224459   2.479   0.934   4.030 -0.1768  0.0862  0.2327
 1015TIP3    H124460   2.420   1.010   4.032 -0.1040  0.2282 -1.4678
 1015TIP3    H224461   2.422   0.859   4.045 -0.5631  0.3365  0.0343
 1016TIP3   OH224462   6.755   2.847  12.318  0.1004 -0.1935 -0.2772
 1016TIP3    H124463   6.828   2.898  12.352 -0.5310  0.3936  0.2137
 1016TIP3    H224464   6.759   2.860  12.223  0.1933  0.4341 -0.1914
 1017TIP3   OH224465   3.962   0.186   0.351  0.0629  0.0065  0.7365
 1017TIP3    H124466   3.882   0.150   0.315 -0.6602  1.3692  0.9415
 1017TIP3    H224467   3.964   0.154   0.442 -0.0847 -0.2702  0.6419
 1018TIP3   OH224468   6.593   2.577  14.967 -0.0429 -0.2033  0.3716
 1018TIP3    H124469   6.679   2.580  14.927 -0.6442 -0.3058 -0.9563
 1018TIP3    H224470   6.556   2.664  14.952 -0.0355 -0.0298  1.2776
 1019TIP3   OH224471   1.982   6.020  13.173  0.5496  0.3358 -0.6176
 1019TIP3    H124472   1.960   6.103  13.130  0.1726  1.0530  0.8876
 1019TIP3    H224473   2.067   6.036  13.214  1.0881 -0.4655 -1.3734
 1020TIP3   OH224474   4.062   5.355   2.283  0.3005  0.4689 -0.0758
 1020TIP3    H124475   4.019   5.379   2.201 -0.1915 -0.0261  0.0341
 1020TIP3    H224476   4.014   5.402   2.351  0.2332  0.2890  0.0024
 1021TIP3   OH224477   4.345   1.108  14.801 -0.3115 -0.0898  0.2730
 1021TIP3    H124478   4.335   1.176  14.868 -2.9735  0.8636 -0.9248
 1021TIP3    H224479   4.350   1.026  14.850  2.7581  0.8337  1.7455
 1022TIP3   OH224480   1.210   4.007  16.418  0.5201 -0.2453 -0.2710
 1022TIP3    H124481   1.166   3.972  16.340 -1.4304 -0.5864  0.9138
 1022TIP3    H224482   1.157   4.082  16.444  2.4612  1.2842 -0.5395
 1023TIP3   OH224483   1.125   4.697  12.093 -0.6914 -0.3438 -0.2725
 1023TIP3    H124484   1.187   4.672  12.161 -1.5035  1.1929  1.1053
 1023TIP3    H224485   1.180   4.712  12.016  0.7862  1.4776  1.0397
 1024TIP3   OH224486   1.682   4.114   4.025 -0.3810 -0.1404  0.1370
 1024TIP3    H124487   1.638   4.166   3.957  0.6285 -1.2313 -1.4289
 1024TIP3    H224488   1.772   4.146   4.024  0.2100 -1.7327 -0.7316
 1025TIP3   OH224489   4.993   0.058  13.800  0.2466  0.6706 -0.1413
 1025TIP3    H124490   4.976   0.147  13.829 -0.5392  0.3940  0.2768
 1025TIP3    H224491   5.068   0.030  13.854  0.9794  1.3190 -0.7998
 1026TIP3   OH224492   5.163   4.756  11.495 -0.5528 -0.5002 -0.3801
 1026TIP3    H124493   5.113   4.814  11.438 -0.3365  0.7624  0.6728
 1026TIP3    H224494   5.100   4.689  11.522 -1.4468  0.5285  0.1775
 1027TIP3   OH224495   0.848   5.056  12.506  0.2782  0.3903 -0.2539
 1027TIP3    H124496   0.882   5.049  12.417  1.3689  3.0529 -0.1261
 1027TIP3    H224497   0.769   5.001  12.506  0.4558  0.0319 -2.7314
 1028TIP3   OH224498   5.221   3.716  12.737  0.4796  0.1013 -0.1131
 1028TIP3    H124499   5.205   3.680  12.825  0.0671  0.0870 -0.1943
 1028TIP3    H224500   5.275   3.794  12.753  2.7174 -1.3706 -0.0407
 1029TIP3   OH224501   3.293   3.890  11.354  0.0607  0.0826  0.3428
 1029TIP3    H124502   3.212   3.850  11.323 -0.2787 -0.2118  1.5594
 1029TIP3    H224503   3.300   3.863  11.445  0.8240  1.2254  0.6468
 1030TIP3   OH224504   1.948   0.762  17.279 -0.0009 -0.3018 -0.2309
 1030TIP3    H124505   1.871   0.749  17.335  1.7639 -3.2161  1.7811
 1030TIP3    H224506   1.988   0.842  17.312 -0.1317 -0.8505  1.3497
 1031TIP3   OH224507   3.058   0.011   5.595  0.1648  0.1136  0.1630
 1031TIP3    H124508   3.054   0.063   5.515  1.3188  0.7495  0.4957
 1031TIP3    H224509   3.025   0.069   5.664  0.0876 -0.0984  0.3067
 1032TIP3   OH224510   2.091   3.454   5.423 -0.3705  0.1508 -0.1392
 1032TIP3    H124511   2.167   3.510   5.405 -0.0986 -0.4635 -0.9637
 1032TIP3    H224512   2.122   3.393   5.490 -0.3907  0.4163  0.1133
 1033TIP3   OH224513   5.047   4.984  12.385 -0.1140  0.1361  0.1737
 1033TIP3    H124514   4.984   5.053  12.362 -1.3201 -0.6947  0.8844
 1033TIP3    H224515   5.081   4.954  12.301 -0.2314  0.9745 -0.1896
 1034TIP3   OH224516   2.968   0.486  11.697  0.0560  0.0668 -0.0419
 1034TIP3    H124517   3.049   0.535  11.683  0.1649  0.2400  1.1487
 1034TIP3    H224518   2.909   0.547  11.742 -0.7430 -0.0660 -0.8676
 1035TIP3   OH224519   0.788   2.073   2.284 -0.3485 -0.1791 -0.7651
 1035TIP3    H124520   0.807   2.137   2.216 -1.5326  0.9084 -0.1101
 1035TIP3    H224521   0.869   2.066   2.335  0.6417 -1.2185 -2.4069
 1036TIP3   OH224522   2.749   3.969   6.089  0.5780  0.2625  0.7436
 1036TIP3    H124523   2.679   3.911   6.060  1.2220 -0.2357  0.1551
 1036TIP3    H224524   2.703   4.042   6.132 -0.2999 -0.0318  0.3360
 1037TIP3   OH224525   5.787   6.199   3.392 -0.0890 -0.4200  0.4574
 1037TIP3    H124526   5.769   6.293   3.385  2.1011  0.1618  1.5004
 1037TIP3    H224527   5.791   6.169   3.301  1.4440  1.0603 -0.0385
 1038TIP3   OH224528   2.879   4.784   5.254 -0.0431 -0.2138  0.5252
 1038TIP3    H124529   2.815   4.714   5.253 -0.7832  0.4550  0.2455
 1038TIP3    H224530   2.964   4.740   5.246 -0.4133 -1.1534  1.5415
 1039TIP3   OH224531   1.498   3.343  17.194 -0.2793  0.5645  0.3158
 1039TIP3    H124532   1.479   3.372  17.284  1.8084  1.6735  0.4548
 1039TIP3    H224533   1.510   3.425  17.145  1.5257 -0.0140 -0.2734
 1040TIP3   OH224534   4.458   6.085  11.547  0.5675 -0.5821  0.5849
 1040TIP3    H124535   4.428   6.047  11.465  0.9305  1.2161 -0.4304
 1040TIP3    H224536   4.547   6.115  11.530  0.0116  1.5006  0.9893
 1041TIP3   OH224537   6.015   4.608  12.106 -0.5716 -0.0456 -0.0702
 1041TIP3    H124538   6.099   4.570  12.134 -1.2220 -3.9218 -2.7386
 1041TIP3    H224539   5.955   4.590  12.179  0.0007 -0.9082  0.1988
 1042TIP3   OH224540   5.205   6.421   2.145 -0.1999 -0.3816  0.5193
 1042TIP3    H124541   5.157   6.496   2.178 -0.5138 -0.4506  0.2193
 1042TIP3    H224542   5.148   6.382   2.079  0.5678 -0.0352 -0.3687
 1043TIP3   OH224543   1.146   0.670  15.944  0.3418  0.1440  0.5091
 1043TIP3    H124544   1.112   0.584  15.924  1.8226 -0.5931  0.9677
 1043TIP3    H224545   1.087   0.705  16.012 -0.7329 -0.1406 -0.2584
 1044TIP3   OH224546   2.879   2.534   4.082  0.5758  0.0819 -0.0376
 1044TIP3    H124547   2.791   2.545   4.047  0.6021 -2.3106 -1.1179
 1044TIP3    H224548   2.935   2.529   4.004  1.3172 -0.7090  0.5230
 1045TIP3   OH224549   5.222   2.062   5.574 -0.0241  0.3298 -0.0032
 1045TIP3    H124550   5.221   2.151   5.540 -0.4915 -0.7730 -3.2227
 1045TIP3    H224551   5.293   2.018   5.526  0.6764 -0.9117  2.0090
 1046TIP3   OH224552   4.738   3.061  17.252 -0.0885  0.0380 -0.3123
 1046TIP3    H124553   4.723   3.042  17.345  2.1735  0.5748  0.2243
 1046TIP3    H224554   4.730   3.157  17.246 -0.6748 -0.0331 -0.7845
 1047TIP3   OH224555   4.226   4.585   2.535  0.2460 -0.3588  0.5531
 1047TIP3    H124556   4.183   4.500   2.529 -1.1331  0.3665 -0.8457
 1047TIP3    H224557   4.286   4.587   2.460 -1.0873  0.5414 -0.5607
 1048TIP3   OH224558   1.360   4.377  15.480  0.3173  0.0108  0.0876
 1048TIP3    H124559   1.362   4.355  15.387 -0.7045 -0.4356  0.1550
 1048TIP3    H224560   1.383   4.295  15.524 -0.3350 -0.0838  0.2554
 1049TIP3   OH224561   2.229   6.204   2.399 -0.6738 -0.7160  0.1478
 1049TIP3    H124562   2.181   6.247   2.470 -1.0278 -3.3956  1.6901
 1049TIP3    H224563   2.313   6.250   2.395 -1.5226  0.9548  0.7086
 1050TIP3   OH224564   2.265   0.425   3.083 -0.0905  0.6056 -0.5870
 1050TIP3    H124565   2.232   0.462   3.002 -0.0958  1.2697 -0.2899
 1050TIP3    H224566   2.193   0.372   3.117  0.0909 -0.1046 -1.2678
 1051TIP3   OH224567   1.900   6.352  16.845 -0.3108  0.4883 -0.2727
 1051TIP3    H124568   1.996   6.348  16.841 -0.3166  0.5160 -0.4368
 1051TIP3    H224569   1.880   6.445  16.840 -0.2950  0.5805  0.9442
 1052TIP3   OH224570   3.357   1.981   0.620  0.2830  0.0700  0.0303
 1052TIP3    H124571   3.320   1.900   0.654 -0.7442  1.2959  2.0332
 1052TIP3    H224572   3.283   2.028   0.582  0.8980  0.0270 -1.2691
 1053TIP3   OH224573   5.267   1.561   4.031  0.2661  0.2920 -0.3059
 1053TIP3    H124574   5.280   1.511   3.951  1.7007 -0.7529  0.5248
 1053TIP3    H224575   5.181   1.533   4.062  0.1608 -0.0949 -0.9284
 1054TIP3   OH224576   0.147   3.962  11.173 -0.0027 -0.1478  0.1430
 1054TIP3    H124577   0.190   4.046  11.188  0.3777 -0.6002  1.6977
 1054TIP3    H224578   0.061   3.986  11.137 -0.7250  1.0432  2.4815
 1055TIP3   OH224579   6.045   1.178   6.643 -0.1303 -0.6109  0.0605
 1055TIP3    H124580   6.014   1.201   6.555 -1.5954 -1.5953  0.2982
 1055TIP3    H224581   6.002   1.095   6.663  0.2537 -0.4463  1.6822
 1056TIP3   OH224582   4.100   0.394  12.805  0.1932 -0.1312 -0.1412
 1056TIP3    H124583   4.014   0.380  12.766 -0.0541 -0.5664  0.5450
 1056TIP3    H224584   4.101   0.338  12.883  1.9910 -2.0462 -1.4209
 1057TIP3   OH224585   6.072   6.619   2.956 -0.0170  0.2018  0.4310
 1057TIP3    H124586   5.980   6.595   2.970 -0.8596  0.0348 -3.9018
 1057TIP3    H224587   6.072   6.715   2.955 -0.8250  0.2557 -2.1712
 1058TIP3   OH224588   1.535   4.995  15.868 -0.1195  0.5929  0.8765
 1058TIP3    H124589   1.628   4.990  15.843 -0.6413  0.9780 -1.3699
 1058TIP3    H224590   1.520   4.916  15.919  1.2726  0.1503  0.6567
 1059TIP3   OH224591   3.953   3.518   4.046  0.4383 -0.6468 -0.3447
 1059TIP3    H124592   3.931   3.516   3.953  1.4031 -0.4517 -0.5959
 1059TIP3    H224593   3.897   3.586   4.083  2.6856  2.0750 -1.5578
 1060TIP3   OH224594   0.358   0.991  11.564  0.0366 -0.0994  0.0556
 1060TIP3    H124595   0.283   0.962  11.617  0.4129 -0.2950  0.4933
 1060TIP3    H224596   0.434   0.951  11.607  0.4966  0.9396  0.2309
 1061TIP3   OH224597   6.193   5.293   5.763  0.1848  0.5229  0.0577
 1061TIP3    H124598   6.149   5.209   5.777  0.7131  0.0215 -1.1502
 1061TIP3    H224599   6.270   5.290   5.819  0.2026  0.1964  0.0164
 1062TIP3   OH224600   0.745   4.691  11.760 -0.3070  0.2451  0.0331
 1062TIP3    H124601   0.674   4.743  11.723  0.8656  0.9549 -1.3141
 1062TIP3    H224602   0.791   4.751  11.819  0.1226  0.2630 -0.3211
 1063TIP3   OH224603   2.556   4.876  16.884 -0.1514 -0.0705  0.0696
 1063TIP3    H124604   2.602   4.830  16.814  1.1350 -0.8863  1.3972
 1063TIP3    H224605   2.483   4.920  16.840 -0.8383 -2.5301 -1.4266
 1064TIP3   OH224606   4.090   5.449  14.186 -0.6223  0.1189  0.6131
 1064TIP3    H124607   4.129   5.362  14.199  0.4009  0.2562 -1.2116
 1064TIP3    H224608   4.138   5.505  14.247 -0.3995 -0.3662  0.8939
 1065TIP3   OH224609   4.316   0.317   6.126  0.2267  0.0741 -0.6085
 1065TIP3    H124610   4.326   0.371   6.048  0.6986  2.2996  0.9192
 1065TIP3    H224611   4.245   0.256   6.104 -0.8849  1.8341 -2.1343
 1066TIP3   OH224612   3.815   6.522   5.027  0.2386 -0.0489  0.0384
 1066TIP3    H124613   3.876   6.464   5.073  1.5682 -0.1765 -1.7497
 1066TIP3    H224614   3.800   6.477   4.943 -0.3635  1.1893 -0.5320
 1067TIP3   OH224615   3.406   1.952   0.104 -0.5679 -0.0455  0.1491
 1067TIP3    H124616   3.333   1.977   0.047 -0.6126  1.4756  0.7936
 1067TIP3    H224617   3.397   2.010   0.180  0.8147 -0.4324  0.6439
 1068TIP3   OH224618   4.738   2.463  11.195 -0.7932 -0.7380 -0.3658
 1068TIP3    H124619   4.787   2.401  11.249 -0.2735 -1.5888 -1.7678
 1068TIP3    H224620   4.732   2.421  11.110 -2.4297  0.1478 -0.7258
 1069TIP3   OH224621   4.501   1.956  17.223  0.1087  0.3209  0.0976
 1069TIP3    H124622   4.426   1.990  17.272  0.5547  3.8103 -1.3085
 1069TIP3    H224623   4.577   1.974  17.278  0.2722  0.7560 -0.2645
 1070TIP3   OH224624   3.816   2.680   1.924 -0.4172 -0.4652 -0.2124
 1070TIP3    H124625   3.755   2.748   1.897  0.0160  0.2235  0.5053
 1070TIP3    H224626   3.762   2.615   1.969 -0.7390 -0.3056 -0.3646
 1071TIP3   OH224627   2.294   0.499  13.939 -0.5679  0.7639 -0.2315
 1071TIP3    H124628   2.378   0.540  13.959 -0.4370  0.5353 -0.2995
 1071TIP3    H224629   2.229   0.549  13.989 -0.3814  0.8960 -0.1229
 1072TIP3   OH224630   6.005   2.900  14.324 -0.4733 -0.0153  0.0569
 1072TIP3    H124631   5.934   2.842  14.300 -0.9422  1.0134 -1.1730
 1072TIP3    H224632   5.986   2.925  14.415 -0.4366 -1.4847  0.4836
 1073TIP3   OH224633   1.197   3.076   0.601 -0.4720 -0.0398 -0.2899
 1073TIP3    H124634   1.230   2.996   0.642 -0.5150 -0.3090 -0.7727
 1073TIP3    H224635   1.154   3.046   0.521 -2.1168  0.2855  0.4409
 1074TIP3   OH224636   6.066   5.632  14.927 -0.4167  0.6112  0.6540
 1074TIP3    H124637   5.989   5.578  14.945 -0.5886  0.6011 -0.0547
 1074TIP3    H224638   6.116   5.632  15.008  0.4720 -2.0315  0.1749
 1075TIP3   OH224639   4.778   3.892   4.188  0.2428 -0.4444  0.2849
 1075TIP3    H124640   4.781   3.801   4.218 -1.8146 -0.8900 -0.7186
 1075TIP3    H224641   4.698   3.898   4.137  1.0763  1.5812 -0.9053
 1076TIP3   OH224642   6.245   5.134   1.170  0.2155  0.1068 -0.6067
 1076TIP3    H124643   6.188   5.119   1.095 -1.1694  0.2117  0.3963
 1076TIP3    H224644   6.292   5.052   1.182 -1.5119 -0.8247  0.0189
 1077TIP3   OH224645   2.578   3.988   0.471  0.5593  0.4128 -0.3537
 1077TIP3    H124646   2.613   4.015   0.385  0.9571 -0.3877 -0.4489
 1077TIP3    H224647   2.508   3.927   0.450  0.6340  0.2420 -0.1078
 1078TIP3   OH224648   6.029   1.656   1.956 -0.4272 -0.0237  0.2060
 1078TIP3    H124649   5.976   1.627   2.029  0.4660 -0.1184  0.8335
 1078TIP3    H224650   6.109   1.605   1.962 -0.6187 -0.5499 -1.2708
 1079TIP3   OH224651   5.391   2.682   6.107 -0.0755  0.6911 -0.0123
 1079TIP3    H124652   5.450   2.673   6.182 -0.7466 -2.6789  0.2707
 1079TIP3    H224653   5.309   2.643   6.136 -1.9506  3.5126 -1.0468
 1080TIP3   OH224654   4.349   0.326   3.454  0.1667 -0.3827 -0.3430
 1080TIP3    H124655   4.362   0.319   3.359 -0.2892 -0.5420 -0.3947
 1080TIP3    H224656   4.435   0.309   3.491  0.5539  0.5912 -0.7691
 1081TIP3   OH224657   6.342   6.426   4.225  0.4126  0.4458  0.0055
 1081TIP3    H124658   6.288   6.506   4.224  1.3605  1.1024 -0.2422
 1081TIP3    H224659   6.431   6.458   4.211  0.7374 -0.7228 -0.7162
 1082TIP3   OH224660   4.201   5.770  15.014  0.3954 -0.2923 -0.7473
 1082TIP3    H124661   4.143   5.707  15.057 -2.0725  1.1346 -1.7421
 1082TIP3    H224662   4.202   5.742  14.922  0.4750  0.2656 -0.9165
 1083TIP3   OH224663   2.250   5.016   2.106 -0.4503 -0.1815 -0.3194
 1083TIP3    H124664   2.179   4.953   2.092 -2.2786  1.7341 -0.2196
 1083TIP3    H224665   2.296   4.983   2.184 -1.8024 -1.0138  0.1684
 1084TIP3   OH224666   4.888   3.023  16.981  0.8065 -0.4812 -0.1095
 1084TIP3    H124667   4.891   2.928  16.983 -0.1056 -0.5214  2.2572
 1084TIP3    H224668   4.851   3.048  17.065  1.0879  1.9874 -0.6355
 1085TIP3   OH224669   6.502   5.784  14.996  0.0675 -0.1379  0.1787
 1085TIP3    H124670   6.577   5.840  15.015 -0.0986  0.5070 -1.0009
 1085TIP3    H224671   6.499   5.778  14.901 -0.8728 -0.8582  0.2354
 1086TIP3   OH224672   2.797   3.658  16.702  0.3077  0.7414  0.6542
 1086TIP3    H124673   2.737   3.700  16.764 -0.7814 -2.3543  1.9404
 1086TIP3    H224674   2.882   3.660  16.746  0.2429  1.4046  0.7626
 1087TIP3   OH224675   0.341   2.499   4.019 -0.2079 -0.4052  0.1849
 1087TIP3    H124676   0.252   2.524   3.996  0.3516  1.1452 -0.4898
 1087TIP3    H224677   0.344   2.404   4.007 -1.3485 -0.2950 -1.2694
 1088TIP3   OH224678   6.159   4.515  12.382 -0.2471 -0.0657 -0.4345
 1088TIP3    H124679   6.122   4.447  12.438 -0.3394 -0.3239 -0.8050
 1088TIP3    H224680   6.159   4.476  12.294 -0.9475  0.6577 -0.7693
 1089TIP3   OH224681   1.146   0.991  11.915 -0.5608 -0.3154  0.2044
 1089TIP3    H124682   1.183   1.013  11.830 -2.1026  0.4129 -0.3234
 1089TIP3    H224683   1.199   0.918  11.947  0.3462 -0.2793 -1.1508
 1090TIP3   OH224684   4.462   2.151  10.809 -0.7683  0.3697 -0.4351
 1090TIP3    H124685   4.390   2.214  10.817 -0.5849  0.4204  1.3042
 1090TIP3    H224686   4.495   2.164  10.720 -1.7521  1.6125 -0.6572
 1091TIP3   OH224687   2.748   4.964   2.931  0.5850  0.3767  0.3925
 1091TIP3    H124688   2.837   4.993   2.910  0.7132  0.3572  0.9109
 1091TIP3    H224689   2.742   4.970   3.026  0.3264 -0.4698  0.4394
 1092TIP3   OH224690   5.991   4.580   2.629 -0.7019 -0.1512  0.6427
 1092TIP3    H124691   5.994   4.659   2.683  1.4447 -0.2941  0.8076
 1092TIP3    H224692   5.992   4.508   2.692 -0.8851 -0.3085  0.4644
 1093TIP3   OH224693   0.883   0.682  13.272 -0.5782 -0.1649  0.2665
 1093TIP3    H124694   0.920   0.702  13.358  0.0817 -0.5930  0.0919
 1093TIP3    H224695   0.832   0.602  13.285 -1.3455  0.3452  0.4760
 1094TIP3   OH224696   0.407   6.707   0.899 -0.2355 -0.3629 -0.0666
 1094TIP3    H124697   0.348   6.712   0.975 -0.5933  1.1496 -0.4134
 1094TIP3    H224698   0.384   6.625   0.856 -2.1379  0.2011 -0.2110
 1095TIP3   OH224699   1.872   3.282  11.189  0.1685 -0.0844  0.8256
 1095TIP3    H124700   1.780   3.257  11.202 -0.3040  1.6525  1.0940
 1095TIP3    H224701   1.877   3.301  11.095  1.2178 -3.5752  0.0156
 1096TIP3   OH224702   4.162   5.795   3.499 -0.0342 -0.6991  0.1972
 1096TIP3    H124703   4.186   5.767   3.410  2.8945 -2.2494  1.3197
 1096TIP3    H224704   4.069   5.777   3.506 -0.3302 -0.5877 -2.5270
 1097TIP3   OH224705   1.477   0.608  16.346  0.6334 -0.7343  0.0306
 1097TIP3    H124706   1.420   0.593  16.271 -0.1414  0.1117  0.4358
 1097TIP3    H224707   1.564   0.621  16.308  0.1334  0.3784 -0.7862
 1098TIP3   OH224708   6.719   3.679   1.510  0.4406 -0.3497 -0.7279
 1098TIP3    H124709   6.634   3.712   1.480  1.2658  1.3119 -1.4056
 1098TIP3    H224710   6.767   3.662   1.429  1.5362  0.9770 -0.4007
 1099TIP3   OH224711   2.539   6.075  15.304 -0.7223  0.2107  0.2816
 1099TIP3    H124712   2.550   5.980  15.315 -0.0951  0.2666  0.1214
 1099TIP3    H224713   2.521   6.107  15.393 -3.0741 -0.3255  0.0662
 1100TIP3   OH224714   3.210   4.875  15.477  1.2003  0.4069  0.5508
 1100TIP3    H124715   3.129   4.889  15.526  0.8072 -1.2733  0.4488
 1100TIP3    H224716   3.205   4.936  15.403  0.6954  1.2941  1.3038
 1101TIP3   OH224717   0.407   2.505  14.781  0.1442  0.2968 -0.2612
 1101TIP3    H124718   0.398   2.439  14.849 -4.1380  0.1313 -0.6860
 1101TIP3    H224719   0.385   2.588  14.825 -3.4752  0.0924 -1.3152
 1102TIP3   OH224720   2.929   3.481   0.049  0.3260 -0.0291  0.4740
 1102TIP3    H124721   2.997   3.512   0.110  0.4421 -0.8339  0.7619
 1102TIP3    H224722   2.923   3.387   0.065 -0.3956 -0.0762 -0.0213
 1103TIP3   OH224723   2.748   6.657  17.287  0.5356  0.1495 -0.4224
 1103TIP3    H124724   2.724   6.728  17.346  0.4492 -0.3784  0.1964
 1103TIP3    H224725   2.734   6.692  17.199 -2.8184 -0.1591 -0.1511
 1104TIP3   OH224726   0.037   6.249  14.588  0.4431 -0.1757 -0.2551
 1104TIP3    H124727  -0.052   6.283  14.592  0.9988  1.2011  1.6768
 1104TIP3    H224728   0.060   6.230  14.679  3.5752  3.6373  0.0439
 1105TIP3   OH224729   4.945   6.073   1.901  0.1440 -0.4607 -0.0564
 1105TIP3    H124730   4.962   6.087   1.808  0.8072 -1.2449 -0.0604
 1105TIP3    H224731   4.955   5.978   1.913  1.5297 -0.2015  1.0903
 1106TIP3   OH224732   2.286   1.470   5.585 -0.0824 -0.3958  0.4551
 1106TIP3    H124733   2.213   1.463   5.646 -0.6737  0.2178 -0.1757
 1106TIP3    H224734   2.348   1.402   5.614 -1.4951 -1.8737  0.1878
 1107TIP3   OH224735   1.884   3.210  13.302  0.0543 -0.4624 -0.2423
 1107TIP3    H124736   1.813   3.268  13.329 -0.0304 -0.4108 -0.5629
 1107TIP3    H224737   1.861   3.185  13.212  0.3724 -0.5515 -0.3009
 1108TIP3   OH224738   2.969   1.694   5.254  0.5163  0.4771  0.3041
 1108TIP3    H124739   3.005   1.761   5.311  0.3089  2.5314 -1.8579
 1108TIP3    H224740   2.883   1.673   5.293 -0.0476  2.5262  0.2468
 1109TIP3   OH224741   2.649   6.137   0.647 -0.5519  0.4683  0.4996
 1109TIP3    H124742   2.661   6.226   0.680  0.3262 -0.1354  1.9245
 1109TIP3    H224743   2.611   6.089   0.721 -0.5566 -0.4555 -0.0805
 1110TIP3   OH224744   5.299   1.971  11.652  0.1135 -0.2127 -0.1486
 1110TIP3    H124745   5.374   1.943  11.705 -0.4037  0.8377  1.2041
 1110TIP3    H224746   5.326   2.055  11.614 -0.4430  0.3054  0.5613
 1111TIP3   OH224747   5.113   4.856   3.952 -0.5875  0.2658  0.2533
 1111TIP3    H124748   5.114   4.761   3.937  0.9360  0.5485 -2.0222
 1111TIP3    H224749   5.205   4.881   3.957 -0.9679  1.5497  1.7178
 1112TIP3   OH224750   2.734   0.152   6.600 -0.2001 -0.2995  0.3923
 1112TIP3    H124751   2.694   0.199   6.527 -1.0552 -1.8098 -0.1437
 1112TIP3    H224752   2.669   0.087   6.625  1.2431 -1.7121  0.5926
 1113TIP3   OH224753   4.853   2.560  14.645  0.3009  0.1082  0.4168
 1113TIP3    H124754   4.763   2.593  14.650  0.5684  0.9077  0.0841
 1113TIP3    H224755   4.904   2.635  14.615  1.0420 -0.4148  0.3570
 1114TIP3   OH224756   3.258   4.175   3.347  0.3021  0.2384  0.2334
 1114TIP3    H124757   3.343   4.134   3.368  0.6337  0.3538 -0.8497
 1114TIP3    H224758   3.279   4.244   3.285 -0.3017  1.8920  1.7917
 1115TIP3   OH224759   0.769   4.947   4.379  0.4714  0.0626 -0.2474
 1115TIP3    H124760   0.798   4.869   4.332  2.7555  1.0115 -0.5369
 1115TIP3    H224761   0.717   4.995   4.314 -1.2929 -1.3188  0.0503
 1116TIP3   OH224762   0.488   4.761   2.657  0.5430 -0.0684 -0.3400
 1116TIP3    H124763   0.438   4.691   2.613  1.5815  0.5189 -2.6418
 1116TIP3    H224764   0.497   4.828   2.589  1.2645  1.4427  1.2112
 1117TIP3   OH224765   1.167   0.768  13.674 -0.1776  0.7342  0.1573
 1117TIP3    H124766   1.252   0.742  13.711 -1.1209  1.1492  2.8567
 1117TIP3    H224767   1.139   0.692  13.623  0.8454 -0.2640  1.0148
 1118TIP3   OH224768   0.128   0.345   0.974  0.1665 -0.6238  0.4266
 1118TIP3    H124769   0.181   0.309   1.045  0.7436 -0.7596 -0.0607
 1118TIP3    H224770   0.157   0.436   0.966  0.5413 -0.7752 -0.0251
 1119TIP3   OH224771   0.450   5.371  11.364  0.0970  0.3776 -0.0639
 1119TIP3    H124772   0.460   5.278  11.343  1.5618  1.1501 -3.4526
 1119TIP3    H224773   0.359   5.391  11.343  0.2800  0.0699 -1.2088
 1120TIP3   OH224774   0.653   1.725   1.728  0.5528 -0.0917  0.7517
 1120TIP3    H124775   0.578   1.711   1.671  1.8330  0.1165 -1.0952
 1120TIP3    H224776   0.616   1.750   1.812 -1.4616 -1.4813  0.3496
 1121TIP3   OH224777   6.453   1.591   4.035  0.2579  0.3410 -0.1921
 1121TIP3    H124778   6.398   1.669   4.025  0.2419  0.3642  0.0871
 1121TIP3    H224779   6.412   1.541   4.105  0.4448  0.2290 -0.1619
 1122TIP3   OH224780   2.532   0.527   3.481  0.7281  0.1910  0.7106
 1122TIP3    H124781   2.480   0.459   3.525  0.8871 -1.8052 -1.9124
 1122TIP3    H224782   2.482   0.607   3.494 -1.9241 -1.2438  0.1657
 1123TIP3   OH224783   5.899   1.718  13.778  0.1472 -0.4591  0.2337
 1123TIP3    H124784   5.843   1.794  13.761  0.9846  0.4738  1.4669
 1123TIP3    H224785   5.838   1.650  13.807 -0.4360  0.3883  1.0974
 1124TIP3   OH224786   5.125   5.256  12.738 -0.1254 -0.0162 -0.0322
 1124TIP3    H124787   5.205   5.234  12.691  0.0046 -1.1808  0.6967
 1124TIP3    H224788   5.054   5.222  12.683 -0.2056  1.9256 -1.1828
 1125TIP3   OH224789   1.703   3.420   5.941 -0.1661 -0.4437  0.1441
 1125TIP3    H124790   1.676   3.431   6.032 -0.4730  2.4903 -0.1910
 1125TIP3    H224791   1.721   3.509   5.911  2.9623 -1.5425 -1.7829
 1126TIP3   OH224792   3.554   5.113   1.503 -0.2314 -0.5878 -0.0999
 1126TIP3    H124793   3.591   5.087   1.587 -0.5255 -1.1312 -0.1318
 1126TIP3    H224794   3.514   5.033   1.469 -3.1191  0.3113  0.8181
 1127TIP3   OH224795   2.531   0.883  12.295  0.1063  0.1907 -0.2119
 1127TIP3    H124796   2.469   0.814  12.320 -1.0197  1.3933  0.3945
 1127TIP3    H224797   2.476   0.951  12.256  1.0732  1.2330  0.2273
 1128TIP3   OH224798   6.747   4.753  14.776  0.4151  0.0537 -0.3657
 1128TIP3    H124799   6.684   4.685  14.800 -0.8740  0.7764 -1.5487
 1128TIP3    H224800   6.781   4.726  14.691 -0.6085  1.1609 -1.1709
 1129TIP3   OH224801   4.814   5.538   3.580  0.1442  0.1453  0.0717
 1129TIP3    H124802   4.846   5.518   3.668  0.4131  0.8402  0.1431
 1129TIP3    H224803   4.727   5.498   3.576  1.4468 -2.9281 -0.5809
 1130TIP3   OH224804   5.183   2.550   5.195  0.0493  0.2815 -0.4928
 1130TIP3    H124805   5.202   2.641   5.220  1.4290  0.7357 -2.8589
 1130TIP3    H224806   5.244   2.498   5.246 -1.4365  0.5209  1.6492
 1131TIP3   OH224807   5.709   3.599  11.895  0.0022  0.6367  0.2173
 1131TIP3    H124808   5.617   3.623  11.908 -0.1400 -1.1894  3.6917
 1131TIP3    H224809   5.710   3.504  11.898  2.1201  0.6279  2.0709
 1132TIP3   OH224810   4.549   4.315   1.342  0.1694  1.1038  0.6261
 1132TIP3    H124811   4.505   4.321   1.257 -1.1529  0.3491  1.2299
 1132TIP3    H224812   4.516   4.388   1.392 -0.2765  0.6360  1.0240
 1133TIP3   OH224813   5.411   4.175  12.461  0.5868 -0.0760 -0.5510
 1133TIP3    H124814   5.323   4.152  12.432 -0.5923  1.3320  1.6265
 1133TIP3    H224815   5.452   4.091  12.482 -1.3836 -0.6826  1.2992
 1134TIP3   OH224816   4.204   1.825   5.430  0.4915  0.3481 -0.1754
 1134TIP3    H124817   4.217   1.915   5.401 -0.0133 -0.1665 -2.1504
 1134TIP3    H224818   4.288   1.799   5.466  0.4178  1.8394  1.1584
 1135TIP3   OH224819   2.838   5.861  16.106  0.3778 -0.2276  0.0826
 1135TIP3    H124820   2.773   5.807  16.151  0.3496  2.0684  3.1107
 1135TIP3    H224821   2.793   5.893  16.028 -0.8435 -1.4946  0.2243
 1136TIP3   OH224822   5.726   5.256   3.738  0.2957 -1.1090 -0.0707
 1136TIP3    H124823   5.696   5.205   3.663 -1.8682 -0.7627  0.4914
 1136TIP3    H224824   5.721   5.195   3.812  2.2945 -1.4120 -0.1197
 1137TIP3   OH224825   4.669   6.363  15.211  0.3283  0.2119  0.6547
 1137TIP3    H124826   4.738   6.314  15.257 -1.2015 -2.5384  0.2669
 1137TIP3    H224827   4.619   6.405  15.281  0.7449 -0.0995  1.1525
 1138TIP3   OH224828   3.101   2.653   1.279  0.0589  0.0179  0.2311
 1138TIP3    H124829   3.107   2.599   1.358  2.1757 -0.4883 -0.2319
 1138TIP3    H224830   3.190   2.683   1.263 -0.3014  0.0589 -2.0240
 1139TIP3   OH224831   2.419   5.414   0.951  0.5066 -0.5000  0.1562
 1139TIP3    H124832   2.491   5.441   0.894  1.0922  0.4626  1.3152
 1139TIP3    H224833   2.456   5.342   1.003  0.8539  0.3842  1.1682
 1140TIP3   OH224834   0.272   1.549   6.258  0.3228  0.1004 -0.0033
 1140TIP3    H124835   0.179   1.568   6.248 -0.1305 -1.0962  1.6416
 1140TIP3    H224836   0.316   1.633   6.240 -1.0988  0.8205 -0.2040
 1141TIP3   OH224837   3.405   4.150   0.830 -0.4548 -0.4672  0.6680
 1141TIP3    H124838   3.349   4.076   0.853 -1.7503 -0.4099 -1.9133
 1141TIP3    H224839   3.345   4.224   0.822  0.5868  0.5040  1.5955
 1142TIP3   OH224840   0.956   4.225   3.421  0.4426 -0.1522  1.0219
 1142TIP3    H124841   0.888   4.260   3.479  1.4254  0.3175  1.9163
 1142TIP3    H224842   0.926   4.247   3.333 -1.4563 -1.5199  1.2584
 1143TIP3   OH224843   3.078   5.770  13.926  0.0415  0.3070 -0.1681
 1143TIP3    H124844   3.093   5.716  14.004 -0.7054  1.0893  0.5411
 1143TIP3    H224845   2.989   5.747  13.898  0.7965 -1.0232 -1.6839
 1144TIP3   OH224846   0.711   5.761  11.856  0.4922  0.1554  0.7420
 1144TIP3    H124847   0.785   5.703  11.874 -2.1860 -3.3583  1.6117
 1144TIP3    H224848   0.646   5.738  11.922 -2.2864  1.2727 -1.4002
 1145TIP3   OH224849   2.355   1.674   4.290 -0.1600  0.3405 -0.3343
 1145TIP3    H124850   2.380   1.604   4.350 -0.7627  0.4215  0.0115
 1145TIP3    H224851   2.338   1.749   4.346 -1.2653  0.2632 -0.5554
 1146TIP3   OH224852   5.411   6.667  15.336  0.3556  0.4353  0.1109
 1146TIP3    H124853   5.347   6.684  15.405  0.5376  1.2839  0.0773
 1146TIP3    H224854   5.492   6.649  15.382  0.0489 -0.9806  0.1668
 1147TIP3   OH224855   6.480   0.955  13.420 -0.0588  0.0568 -0.0417
 1147TIP3    H124856   6.511   0.865  13.428  1.0361  0.4735  0.5431
 1147TIP3    H224857   6.463   0.983  13.510 -2.0795 -0.1094 -0.3143
 1148TIP3   OH224858   4.565   5.809  13.721  0.9097 -0.4688 -0.1630
 1148TIP3    H124859   4.574   5.750  13.647 -0.5772 -1.6312  0.5017
 1148TIP3    H224860   4.651   5.811  13.762  1.0723 -1.9864 -0.3807
 1149TIP3   OH224861   0.140   0.602  12.452 -0.0971  0.1229  0.4515
 1149TIP3    H124862   0.102   0.641  12.373 -0.7390 -2.2676 -0.5243
 1149TIP3    H224863   0.065   0.578  12.506  0.0612 -2.1222 -0.2248
 1150TIP3   OH224864   6.534   3.164  15.188 -0.3359 -1.0245 -0.0036
 1150TIP3    H124865   6.500   3.219  15.258  0.4641 -0.8164  0.2273
 1150TIP3    H224866   6.620   3.201  15.167 -0.8215 -0.6890 -1.5339
 1151TIP3   OH224867   4.849   5.881   4.832  0.2006 -0.2817  0.3056
 1151TIP3    H124868   4.877   5.792   4.851 -0.8235 -0.8111 -0.5219
 1151TIP3    H224869   4.797   5.907   4.908  0.4806 -0.3952  0.5362
 1152TIP3   OH224870   3.991   5.912   5.573 -0.4536 -0.3281  0.1191
 1152TIP3    H124871   3.912   5.958   5.546 -1.4366 -0.9374  1.7801
 1152TIP3    H224872   3.965   5.820   5.576  0.9943 -0.8444 -1.4966
 1153TIP3   OH224873   1.774   2.415  16.698 -0.0272  0.7896  0.3195
 1153TIP3    H124874   1.849   2.475  16.697 -0.6411  1.5675 -0.0783
 1153TIP3    H224875   1.716   2.451  16.764  0.0443  0.0622  0.7805
 1154TIP3   OH224876   5.453   4.668  12.790  0.0438  0.9003  0.5793
 1154TIP3    H124877   5.431   4.607  12.718  2.6955  0.5138 -0.0259
 1154TIP3    H224878   5.485   4.746  12.745  2.0105  0.5452  1.2768
 1155TIP3   OH224879   2.231   4.453   2.388  0.0333 -0.6856 -0.3092
 1155TIP3    H124880   2.149   4.405   2.374  0.3896 -1.8849  1.4000
 1155TIP3    H224881   2.299   4.387   2.377  0.8058  0.2937 -1.6616
 1156TIP3   OH224882   4.314   3.376   2.516  0.2896  0.0683  0.1820
 1156TIP3    H124883   4.275   3.455   2.478  1.8385  0.5968 -0.3666
 1156TIP3    H224884   4.247   3.308   2.502 -0.2438  0.8219 -1.1786
 1157TIP3   OH224885   2.465   0.246  14.878  0.2291 -0.4950 -0.6080
 1157TIP3    H124886   2.544   0.221  14.829  0.0175 -1.0290 -0.6835
 1157TIP3    H224887   2.429   0.163  14.909  0.7673 -0.1387  1.1035
 1158TIP3   OH224888   5.876   3.683   5.882 -0.2884 -0.0938 -0.0563
 1158TIP3    H124889   5.863   3.596   5.843  4.1052 -0.3790 -1.3597
 1158TIP3    H224890   5.920   3.666   5.965 -1.9239  0.8938  1.0702
 1159TIP3   OH224891   0.032   5.093   2.152  0.0867 -0.2529  0.2765
 1159TIP3    H124892   0.024   5.185   2.125 -0.7735 -0.6878 -1.0910
 1159TIP3    H224893   0.114   5.089   2.201 -0.2936  1.4158  1.1240
 1160TIP3   OH224894   1.802   3.820   0.516 -0.3192  0.5625  0.2662
 1160TIP3    H124895   1.838   3.884   0.455  0.8135  0.1888  0.5100
 1160TIP3    H224896   1.821   3.735   0.476  0.5774  0.3099  1.1727
 1161TIP3   OH224897   5.497   5.626  16.518 -0.4281  0.0169 -0.0221
 1161TIP3    H124898   5.408   5.632  16.483  0.0075 -0.1307 -1.2285
 1161TIP3    H224899   5.487   5.585  16.604 -1.4791 -0.4526 -0.3499
 1162TIP3   OH224900   2.756   6.702  16.640 -0.1437 -0.2060 -0.1547
 1162TIP3    H124901   2.800   6.622  16.670 -1.0806 -1.3422 -1.6416
 1162TIP3    H224902   2.760   6.761  16.715  2.5265 -0.7965  0.2698
 1163TIP3   OH224903   0.481   5.557  13.898  0.2029 -0.7178  0.1898
 1163TIP3    H124904   0.427   5.516  13.965 -0.9117  2.1265  1.2071
 1163TIP3    H224905   0.569   5.559  13.936  0.3840 -2.4196 -0.0711
 1164TIP3   OH224906   0.370   0.790  10.411 -0.0498 -0.4675  0.0663
 1164TIP3    H124907   0.356   0.710  10.460  0.7041 -1.4175 -1.2164
 1164TIP3    H224908   0.291   0.799  10.356 -1.1788  0.9213  1.7937
 1165TIP3   OH224909   4.920   6.219  13.090 -0.5855  0.6150 -0.6258
 1165TIP3    H124910   4.865   6.275  13.145 -1.3397 -0.9904  0.3046
 1165TIP3    H224911   4.868   6.204  13.011 -1.8152 -1.3012  0.4514
 1166TIP3   OH224912   0.157   2.499  15.618 -0.1919 -0.6263  0.0974
 1166TIP3    H124913   0.153   2.593  15.599 -0.6241 -0.7698 -0.5542
 1166TIP3    H224914   0.110   2.489  15.701  0.1684 -0.2187  0.3498
 1167TIP3   OH224915   0.477   6.269  16.451  0.8675 -0.4380  0.2965
 1167TIP3    H124916   0.523   6.342  16.408 -0.1770  0.3959  0.5397
 1167TIP3    H224917   0.538   6.196  16.445  0.4144 -0.7040 -3.5285
 1168TIP3   OH224918   0.623   2.851  14.411  0.1239 -0.0279  0.4413
 1168TIP3    H124919   0.709   2.886  14.385 -0.0682  0.2249  0.1356
 1168TIP3    H224920   0.644   2.779  14.469  0.5946 -0.8846 -0.7426
 1169TIP3   OH224921   0.307   3.173  16.426  0.7461 -0.5043 -0.0947
 1169TIP3    H124922   0.324   3.112  16.499  0.4847  0.7633  1.0611
 1169TIP3    H224923   0.295   3.258  16.468 -1.5574 -0.0944 -1.4156
 1170TIP3   OH224924   1.057   1.348  13.047 -0.5548 -0.1813 -0.1352
 1170TIP3    H124925   1.025   1.320  12.961  0.6100  0.2674 -0.7457
 1170TIP3    H224926   1.075   1.442  13.037  1.8334 -0.5713 -0.1802
 1171TIP3   OH224927   2.175   2.722   1.091 -0.3490 -0.1299 -0.0186
 1171TIP3    H124928   2.138   2.801   1.051 -0.4772  1.1162  2.3557
 1171TIP3    H224929   2.264   2.717   1.057 -1.2208 -0.6533 -2.4101
 1172TIP3   OH224930   1.542   5.736  12.049 -0.1303  0.0402  1.0395
 1172TIP3    H124931   1.546   5.751  12.143 -0.4999  0.3420  1.0083
 1172TIP3    H224932   1.457   5.694  12.034  0.4902 -1.2564  1.0059
 1173TIP3   OH224933   0.497   4.553   4.872  0.9428  0.2986 -0.2624
 1173TIP3    H124934   0.448   4.562   4.953  0.0507  0.7293 -0.8321
 1173TIP3    H224935   0.518   4.643   4.847  0.1239  0.2646 -1.1398
 1174TIP3   OH224936   3.068   2.372   0.822 -0.8610  0.1508 -0.1776
 1174TIP3    H124937   3.121   2.294   0.840 -1.2706  0.2018  1.3649
 1174TIP3    H224938   3.109   2.411   0.745 -0.7341 -1.6661 -1.1052
 1175TIP3   OH224939   5.409   3.520  16.200  0.8358 -0.4754  0.3047
 1175TIP3    H124940   5.324   3.478  16.213  0.8075 -0.3165  0.6506
 1175TIP3    H224941   5.389   3.607  16.166  0.9315 -1.1015 -1.4497
 1176TIP3   OH224942   3.915   4.282   0.697 -0.5603  0.6830 -0.0356
 1176TIP3    H124943   3.954   4.257   0.613 -1.6790 -1.7180  0.0600
 1176TIP3    H224944   3.852   4.351   0.674 -1.0375 -0.1208 -1.2349
 1177TIP3   OH224945   1.416   2.236  14.470  0.5593 -0.4558 -0.4821
 1177TIP3    H124946   1.337   2.193  14.502 -0.1406  2.5802  2.4972
 1177TIP3    H224947   1.488   2.181  14.501 -0.3192 -1.6908 -0.5891
 1178TIP3   OH224948   0.009   2.981  13.651  0.3254  0.0459  0.1216
 1178TIP3    H124949   0.031   2.889  13.657  1.5265  0.4083  2.4144
 1178TIP3    H224950  -0.080   2.983  13.617 -0.6112 -2.1053  2.1938
 1179TIP3   OH224951   1.363   1.444  14.637 -0.1471 -0.3548 -0.2957
 1179TIP3    H124952   1.366   1.393  14.718 -0.4514 -1.4258 -0.9402
 1179TIP3    H224953   1.409   1.389  14.573  0.6976  0.7768 -0.7013
 1180TIP3   OH224954   1.804   5.697  15.884 -0.0730  0.6433  0.4397
 1180TIP3    H124955   1.868   5.696  15.813  1.0671  0.9521  1.4425
 1180TIP3    H224956   1.780   5.605  15.894 -0.6710  0.6525 -0.6956
 1181TIP3   OH224957   2.445   5.552  12.002  0.7740 -0.3880 -0.2474
 1181TIP3    H124958   2.533   5.586  11.988  0.5250  0.5988  0.4426
 1181TIP3    H224959   2.457   5.461  12.027  1.5783 -0.3179 -0.3609
 1182TIP3   OH224960   1.130   2.305   5.582 -0.1753  0.2445  0.3366
 1182TIP3    H124961   1.054   2.340   5.629  0.4171  1.0581  0.7125
 1182TIP3    H224962   1.124   2.345   5.495  0.0204  0.5888  0.4819
 1183TIP3   OH224963   0.363   1.569  17.334 -0.0193  0.2888 -0.4052
 1183TIP3    H124964   0.372   1.473  17.341  0.5710  0.3250 -0.6600
 1183TIP3    H224965   0.301   1.582  17.262 -0.6065  0.0864  0.0551
 1184TIP3   OH224966   6.174   2.049   3.245 -0.1060 -0.1721 -0.4384
 1184TIP3    H124967   6.116   2.119   3.216  0.7592  0.3614 -0.9307
 1184TIP3    H224968   6.246   2.050   3.182  1.5202  0.6001  1.3307
 1185TIP3   OH224969   2.911   0.373   2.862  0.2097  0.1323 -0.0641
 1185TIP3    H124970   2.992   0.331   2.834  0.0129 -1.5912  1.7172
 1185TIP3    H224971   2.845   0.303   2.858 -0.9421  1.1867 -0.3192
 1186TIP3   OH224972   1.529   1.119  14.945 -0.2698  0.0158 -0.0969
 1186TIP3    H124973   1.482   1.079  15.018 -0.8356 -0.9739 -0.9660
 1186TIP3    H224974   1.601   1.168  14.986 -1.3659  0.6149  1.1884
 1187TIP3   OH224975   2.568   5.276   5.251 -0.5645  0.1875 -0.2979
 1187TIP3    H124976   2.486   5.228   5.246  0.1058 -1.0164 -0.0986
 1187TIP3    H224977   2.567   5.333   5.173 -0.3021 -1.9505 -1.9503
 1188TIP3   OH224978   2.599   0.873  16.128 -0.4303  0.1132 -0.1243
 1188TIP3    H124979   2.506   0.858  16.140 -0.6847 -0.1339 -2.0622
 1188TIP3    H224980   2.605   0.956  16.080  0.3330  0.0812 -0.1025
 1189TIP3   OH224981   6.547   1.907  13.521 -0.0987 -0.0347 -0.1078
 1189TIP3    H124982   6.456   1.887  13.500 -0.0879 -0.6305  0.3895
 1189TIP3    H224983   6.582   1.825  13.555  0.6918  0.1242 -0.5241
 1190TIP3   OH224984   3.589   0.613   3.717  0.3635  0.0187  0.0751
 1190TIP3    H124985   3.595   0.533   3.769 -0.0817 -0.1534 -0.1325
 1190TIP3    H224986   3.606   0.683   3.780  0.3035 -0.2138  0.3552
 1191TIP3   OH224987   1.282   5.642   3.748  0.3847 -0.1538  0.4677
 1191TIP3    H124988   1.292   5.637   3.843  2.5871  0.5494  0.3191
 1191TIP3    H224989   1.274   5.736   3.729  1.8154 -0.1350 -0.1640
 1192TIP3   OH224990   6.238   5.664   4.275  0.7650 -0.0383  0.0259
 1192TIP3    H124991   6.216   5.606   4.203 -0.5128  0.3954  0.0358
 1192TIP3    H224992   6.322   5.632   4.307  0.2839 -1.6394 -0.2101
 1193TIP3   OH224993   2.930   2.696  14.008 -0.3691  0.1714 -0.5609
 1193TIP3    H124994   2.877   2.680  13.930  0.8479  0.9536 -1.5868
 1193TIP3    H224995   2.907   2.784  14.036 -1.1091 -0.2625  0.2323
 1194TIP3   OH224996   6.163   6.416  15.104  0.1227 -0.5330  0.1527
 1194TIP3    H124997   6.083   6.436  15.055  1.0259 -0.0934 -1.2126
 1194TIP3    H224998   6.194   6.334  15.066 -0.0666 -1.0956  1.1933
 1195TIP3   OH224999   6.135   3.005  15.829  0.4205  0.0612  0.0733
 1195TIP3    H125000   6.177   2.993  15.744 -0.9697 -1.3562 -0.4489
 1195TIP3    H225001   6.183   2.946  15.888 -0.6534 -1.4074 -0.4791
 1196TIP3   OH225002   0.759   0.368   2.283 -0.4621  0.3628  0.1524
 1196TIP3    H125003   0.705   0.421   2.342 -0.2853  0.8125 -0.0855
 1196TIP3    H225004   0.746   0.408   2.197 -0.4738 -0.1008 -0.0590
 1197TIP3   OH225005   3.698   6.729  17.338 -0.0447  0.2555  0.8806
 1197TIP3    H125006   3.703   6.657  17.274  1.5794  0.9263  0.2184
 1197TIP3    H225007   3.610   6.764  17.327  0.6503  1.3571 -2.1747
 1198TIP3   OH225008   1.835   6.058  15.860  0.1876 -0.4523 -0.6281
 1198TIP3    H125009   1.797   6.073  15.946  0.0479  0.6582 -0.8790
 1198TIP3    H225010   1.924   6.028  15.878  0.6490  1.1536 -0.0970
 1199TIP3   OH225011   4.791   0.731  13.560  0.3937 -0.2762  0.1147
 1199TIP3    H125012   4.710   0.758  13.517  1.9395  1.1437 -2.1315
 1199TIP3    H225013   4.794   0.636  13.549 -1.5879 -0.5426  1.4928
 1200TIP3   OH225014   1.769   1.879   1.154  0.2846  0.2286 -0.0894
 1200TIP3    H125015   1.711   1.908   1.084  0.0328  0.3830  0.1851
 1200TIP3    H225016   1.726   1.803   1.192 -0.2500  0.9690  0.7981
 1201TIP3   OH225017   0.227   1.436  13.878 -0.1616  0.2555 -0.1497
 1201TIP3    H125018   0.299   1.409  13.822 -0.3382  1.3849 -0.9477
 1201TIP3    H225019   0.212   1.361  13.936  1.6446  0.0135  0.0442
 1202TIP3   OH225020   2.725   5.993   1.158 -0.3047  0.8986 -0.0696
 1202TIP3    H125021   2.758   5.990   1.069  1.5956  1.6802  0.5527
 1202TIP3    H225022   2.676   5.911   1.169  1.9461 -0.6403 -0.9050
 1203TIP3   OH225023   3.212   6.298  13.613 -0.1885 -0.2039 -0.8948
 1203TIP3    H125024   3.151   6.233  13.577 -1.9803  1.0400 -0.2675
 1203TIP3    H225025   3.168   6.382  13.597  1.3176  0.7370 -0.2600
 1204TIP3   OH225026   1.561   2.579   5.120 -0.4553 -0.2826 -0.0085
 1204TIP3    H125027   1.591   2.670   5.113  0.5554 -0.5774  0.3492
 1204TIP3    H225028   1.495   2.581   5.189 -1.3929  0.3968 -0.8833
 1205TIP3   OH225029   2.520   2.487  14.138 -0.5075 -0.5542 -0.3810
 1205TIP3    H125030   2.484   2.559  14.190 -0.5774 -0.7964 -0.0915
 1205TIP3    H225031   2.479   2.497  14.052 -0.1431  0.0424 -0.4924
 1206TIP3   OH225032   3.679   6.254  16.790 -0.2886  0.3064 -0.3401
 1206TIP3    H125033   3.623   6.289  16.721 -0.2224  1.1487  0.0233
 1206TIP3    H225034   3.638   6.284  16.871  0.9157  1.3245 -0.0788
 1207TIP3   OH225035   3.751   0.602   6.255  0.1033 -0.4044  0.1661
 1207TIP3    H125036   3.773   0.545   6.329  0.2877  0.4169  0.7589
 1207TIP3    H225037   3.754   0.690   6.291 -0.9236 -0.0585 -0.5474
 1208TIP3   OH225038   0.279   4.873  16.699  0.0951 -0.2893  0.1748
 1208TIP3    H125039   0.240   4.856  16.785  2.0183 -2.7237  0.6927
 1208TIP3    H225040   0.356   4.927  16.718 -0.5098  0.7673 -0.2925
 1209TIP3   OH225041   5.976   6.755  15.803  0.2385  0.1073 -0.3542
 1209TIP3    H125042   6.070   6.758  15.821 -0.1201 -0.1890  1.9915
 1209TIP3    H225043   5.939   6.703  15.876 -2.0665  2.7977  0.5942
 1210TIP3   OH225044   3.910   6.503   2.592  0.0192  0.0196  0.3787
 1210TIP3    H125045   3.850   6.516   2.665 -2.4638 -0.5229 -1.4308
 1210TIP3    H225046   3.958   6.586   2.585  0.2929  0.0997  2.5229
 1211TIP3   OH225047   1.370   1.986  10.984 -0.4091  1.0166 -0.0558
 1211TIP3    H125048   1.307   2.055  10.969 -1.6462  0.0691  0.5595
 1211TIP3    H225049   1.384   1.945  10.899  0.6446  2.2533 -0.4991
 1212TIP3   OH225050   2.090   6.736  16.186 -0.0327  0.6875 -0.7249
 1212TIP3    H125051   2.084   6.646  16.217  1.0767  0.9100  0.2528
 1212TIP3    H225052   2.004   6.774  16.205 -0.3001  0.0096 -0.5392
 1213TIP3   OH225053   6.687   0.154   2.379  0.1714 -0.4663  0.2572
 1213TIP3    H125054   6.782   0.155   2.366  0.0749 -1.4168 -0.6092
 1213TIP3    H225055   6.651   0.184   2.295 -0.3244 -1.2216  0.1962
 1214TIP3   OH225056   6.327   5.453  12.685  0.4395 -0.4311 -1.0130
 1214TIP3    H125057   6.403   5.452  12.627  1.1195  1.1469 -0.2180
 1214TIP3    H225058   6.360   5.416  12.767  0.1051 -0.5474 -0.9320
 1215TIP3   OH225059   2.618   4.686   1.434  0.1784  0.9670 -0.1027
 1215TIP3    H125060   2.657   4.661   1.350 -1.1175 -0.2751 -0.3701
 1215TIP3    H225061   2.527   4.708   1.412 -0.8686 -1.6037  1.2336
 1216TIP3   OH225062   3.301   2.824   4.382 -0.2559 -0.1852  0.0866
 1216TIP3    H125063   3.395   2.808   4.388 -0.0837 -0.3218 -2.1844
 1216TIP3    H225064   3.291   2.917   4.405  0.6300  0.1833 -0.9498
 1217TIP3   OH225065   2.224   1.878   0.976 -0.5771  0.4393 -0.6377
 1217TIP3    H125066   2.296   1.835   0.929 -0.9434 -1.2890  0.3105
 1217TIP3    H225067   2.249   1.873   1.068 -1.7318  0.1126 -0.3211
 1218TIP3   OH225068   1.668   0.959   3.059 -0.4214  0.7693  0.1116
 1218TIP3    H125069   1.738   1.006   3.014  0.0961 -0.5451 -0.4869
 1218TIP3    H225070   1.597   0.954   2.994  0.1190 -0.6401 -0.4010
 1219TIP3   OH225071   6.582   3.555  12.588 -0.0437  0.0764  0.3370
 1219TIP3    H125072   6.537   3.530  12.669 -2.0547 -1.0263 -1.0304
 1219TIP3    H225073   6.533   3.631  12.557  2.1280  1.9575  1.2331
 1220TIP3   OH225074   1.737   5.736  12.573  0.0600 -0.0738 -0.1767
 1220TIP3    H125075   1.763   5.652  12.537  0.1637 -0.1807  0.1477
 1220TIP3    H225076   1.818   5.775  12.606 -0.1152 -0.2058  0.4167
 1221TIP3   OH225077   5.914   0.963  14.121 -0.1502 -0.1227  0.3066
 1221TIP3    H125078   5.906   1.058  14.123 -0.8063 -0.1948  2.0466
 1221TIP3    H225079   5.896   0.935  14.210 -0.6097 -1.9418 -0.3155
 1222TIP3   OH225080   3.428   1.426   4.881  0.3420 -0.7019 -0.2559
 1222TIP3    H125081   3.344   1.384   4.863 -1.9171  3.1583  0.0022
 1222TIP3    H225082   3.477   1.420   4.799 -1.5392 -0.4180 -1.4596
 1223TIP3   OH225083   3.193   4.323   6.404  0.1022  0.2849 -0.2733
 1223TIP3    H125084   3.213   4.412   6.375  0.1134  0.3338 -0.1177
 1223TIP3    H225085   3.268   4.298   6.458  0.4687 -0.1135 -0.9585
 1224TIP3   OH225086   5.602   2.724  10.329 -0.3920  0.3496 -0.0706
 1224TIP3    H125087   5.609   2.673  10.410 -1.1120 -1.0705 -0.8632
 1224TIP3    H225088   5.545   2.797  10.352 -1.5897 -0.6965  0.4443
 1225TIP3   OH225089   1.866   1.063  13.777  0.6415 -0.0426  0.5184
 1225TIP3    H125090   1.806   1.137  13.780  2.0923  1.5165 -3.0224
 1225TIP3    H225091   1.815   0.993  13.737 -0.0938 -0.2935  1.8394
 1226TIP3   OH225092   0.619   4.433   2.150  0.5931  0.1968 -0.3860
 1226TIP3    H125093   0.677   4.505   2.172 -0.7274  1.2992 -0.3764
 1226TIP3    H225094   0.575   4.412   2.233  0.3086 -0.0081 -0.5887
 1227TIP3   OH225095   6.372   2.443  14.460 -0.0836  0.1410 -0.6111
 1227TIP3    H125096   6.409   2.356  14.446  0.4524  0.1553  0.5688
 1227TIP3    H225097   6.390   2.463  14.552  0.2399  1.7075 -0.9758
 1228TIP3   OH225098   4.174   3.241   5.688  0.4788  0.3003 -0.0920
 1228TIP3    H125099   4.122   3.178   5.638 -1.6845  1.1508  0.9202
 1228TIP3    H225100   4.176   3.205   5.777  1.3189  0.4738 -0.0328
 1229TIP3   OH225101   3.555   2.138   4.717 -0.4762  0.3941 -0.1431
 1229TIP3    H125102   3.599   2.161   4.635  1.4910  0.3478  0.8412
 1229TIP3    H225103   3.561   2.217   4.771 -0.0636 -0.1515  0.6342
 1230TIP3   OH225104   3.579   3.829  15.019 -0.5008 -0.0820 -0.4872
 1230TIP3    H125105   3.612   3.906  15.064 -1.0702 -0.1824  0.1336
 1230TIP3    H225106   3.582   3.851  14.926  0.7292  0.1206 -0.4128
 1231TIP3   OH225107   5.273   4.536   0.674 -0.7244  0.3677  0.0109
 1231TIP3    H125108   5.190   4.520   0.628 -1.1036 -0.6977  1.0179
 1231TIP3    H225109   5.320   4.453   0.668  0.5525  1.1428 -1.0643
 1232TIP3   OH225110   2.909   0.114   4.435  0.1485 -0.3991  0.2888
 1232TIP3    H125111   2.925   0.208   4.447 -0.5882 -0.0239 -1.3552
 1232TIP3    H225112   2.863   0.087   4.514 -0.2525  0.7963  0.4862
 1233TIP3   OH225113   4.184   6.104  16.996  0.2566  0.0757  0.3008
 1233TIP3    H125114   4.213   6.091  16.905  1.9938  0.9718  0.6887
 1233TIP3    H225115   4.216   6.027  17.043 -0.4259 -0.2672  0.2136
 1234TIP3   OH225116   1.503   6.723  16.534 -0.2664 -0.6221 -0.1858
 1234TIP3    H125117   1.513   6.777  16.613 -0.4492  1.0477 -1.2500
 1234TIP3    H225118   1.413   6.693  16.537 -0.3490 -0.3499  0.1201
 1235TIP3   OH225119   5.269   2.042   3.713  0.5729 -0.0206 -0.1769
 1235TIP3    H125120   5.270   1.954   3.674  0.4323 -1.0190  1.9103
 1235TIP3    H225121   5.346   2.044   3.770  0.0518  0.8478  0.5202
 1236TIP3   OH225122   2.462   4.811   3.273  0.3544  0.1172  0.8279
 1236TIP3    H125123   2.372   4.843   3.272  0.0690 -0.6359 -1.5824
 1236TIP3    H225124   2.499   4.841   3.190  1.3073 -2.2964  0.3129
 1237TIP3   OH225125   5.442   5.189  15.877  0.5832 -0.0729  0.5652
 1237TIP3    H125126   5.397   5.110  15.846  0.3384  0.7021 -1.2182
 1237TIP3    H225127   5.455   5.175  15.971  1.0278 -2.4526  0.2116
 1238TIP3   OH225128   3.104   4.658  15.108  0.2913 -0.3078  0.1173
 1238TIP3    H125129   3.120   4.644  15.201 -2.3949 -1.2909  0.4992
 1238TIP3    H225130   3.051   4.737  15.104 -0.3889 -0.7796 -0.4787
 1239TIP3   OH225131   2.335   0.778   5.479 -0.3596  0.8050 -0.0732
 1239TIP3    H125132   2.246   0.757   5.507 -0.3509  1.9613  0.8717
 1239TIP3    H225133   2.358   0.856   5.528  0.8036  1.1222 -1.0785
 1240TIP3   OH225134   5.844   6.473   5.308  0.0700  0.0205  0.3403
 1240TIP3    H125135   5.896   6.393   5.319 -0.3654 -0.4599 -0.9733
 1240TIP3    H225136   5.909   6.543   5.307  0.5647 -0.4334  0.2352
 1241TIP3   OH225137   1.800   5.630   0.818  0.4959  0.6785  0.4975
 1241TIP3    H125138   1.807   5.640   0.723 -1.4522  0.6830  0.3063
 1241TIP3    H225139   1.706   5.641   0.836  0.6247 -0.6603  2.2546
 1242TIP3   OH225140   3.985   2.860   5.020  0.3996  0.3877 -0.2614
 1242TIP3    H125141   3.968   2.894   5.108 -2.3528 -0.0964 -0.5314
 1242TIP3    H225142   3.996   2.766   5.032  2.3087  0.5816 -0.2116
 1243TIP3   OH225143   4.242   6.260  13.007 -0.1744 -0.5161  0.0167
 1243TIP3    H125144   4.247   6.181  13.060 -2.7102 -1.3799 -0.8734
 1243TIP3    H225145   4.183   6.318  13.056  0.2639  0.1218 -0.1947
 1244TIP3   OH225146   0.975   6.588  14.275  0.3339  0.0458 -0.3552
 1244TIP3    H125147   0.887   6.590  14.313 -0.3497 -2.8862 -1.5399
 1244TIP3    H225148   1.034   6.606  14.349 -1.1494 -0.3602  0.9684
 1245TIP3   OH225149   1.899   0.995   5.921 -0.0856  0.7964  0.7308
 1245TIP3    H125150   1.863   1.074   5.962 -0.2372  1.3985 -0.5081
 1245TIP3    H225151   1.911   1.019   5.829  0.1459 -0.5358  0.3882
 1246TIP3   OH225152   2.927   2.497  15.804 -0.1678 -0.0481  0.5394
 1246TIP3    H125153   2.851   2.512  15.860 -0.9532 -2.3733  0.2046
 1246TIP3    H225154   2.891   2.460  15.724  1.3235 -1.9639  0.6694
 1247TIP3   OH225155   2.343   0.847  15.390  0.0748  0.7865  0.3092
 1247TIP3    H125156   2.425   0.896  15.381  1.1259 -0.4644  2.2085
 1247TIP3    H225157   2.322   0.818  15.302  1.6241  1.2242 -0.2311
 1248TIP3   OH225158   3.109   4.955  17.320 -0.0690 -0.3289 -0.1197
 1248TIP3    H125159   3.142   5.014  17.388  2.1168 -1.5657 -0.0259
 1248TIP3    H225160   3.167   4.970  17.245 -0.9404 -0.7131 -0.8947
 1249TIP3   OH225161   1.690   4.602  12.021 -0.9335 -0.3158 -0.2672
 1249TIP3    H125162   1.758   4.584  11.956 -1.2242 -2.7423  0.0124
 1249TIP3    H225163   1.608   4.580  11.977 -1.5795  2.0786 -0.4240
 1250TIP3   OH225164   2.307   0.395   5.762 -0.3206  0.2507 -0.2891
 1250TIP3    H125165   2.320   0.314   5.714 -0.6371  1.2023 -2.0717
 1250TIP3    H225166   2.238   0.441   5.714 -0.8705  1.1359  1.2657
 1251TIP3   OH225167   2.992   5.801   6.339 -0.3138 -0.0890 -0.0631
 1251TIP3    H125168   2.972   5.731   6.401  0.2139  1.1494  1.5510
 1251TIP3    H225169   3.087   5.813   6.346 -0.3735  0.6844 -0.4484
 1252TIP3   OH225170   6.543   1.638   0.159 -0.2941 -0.1086  0.0713
 1252TIP3    H125171   6.612   1.620   0.096 -0.5594  0.8221 -0.5049
 1252TIP3    H225172   6.509   1.552   0.184 -1.1173 -0.4750 -2.1016
 1253TIP3   OH225173   4.417   1.941   5.569 -0.6533  0.4246 -0.3578
 1253TIP3    H125174   4.343   1.958   5.627 -0.7568  3.1037 -1.1223
 1253TIP3    H225175   4.494   1.947   5.626 -0.8624  0.9501 -0.1220
 1254TIP3   OH225176   3.746   1.974   4.831  0.0012 -0.2503  0.2735
 1254TIP3    H125177   3.664   2.020   4.812 -0.5598 -0.9371  0.9644
 1254TIP3    H225178   3.728   1.883   4.806  1.2848 -0.0294 -1.6539
 1255TIP3   OH225179   1.350   6.022   3.355  0.4441 -0.1442  0.3873
 1255TIP3    H125180   1.384   6.083   3.289  2.4804 -0.1799  1.3600
 1255TIP3    H225181   1.344   6.073   3.435 -0.2022 -0.5966  0.6389
 1256TIP3   OH225182   2.823   1.794   1.384  0.0951 -0.0532 -0.4514
 1256TIP3    H125183   2.821   1.708   1.427  2.1245 -0.0531 -0.2181
 1256TIP3    H225184   2.891   1.842   1.432  1.3093  0.5085 -2.6234
 1257TIP3   OH225185   6.085   6.173   1.892 -0.4127 -0.4840  0.3300
 1257TIP3    H125186   6.033   6.226   1.832 -0.4932 -0.6506  0.2518
 1257TIP3    H225187   6.100   6.229   1.968 -0.6638 -0.4201  0.3300
 1258TIP3   OH225188   1.712   1.321   6.255  0.3069  0.2424  0.3059
 1258TIP3    H125189   1.635   1.285   6.300  0.1327  0.1489 -0.0596
 1258TIP3    H225190   1.742   1.392   6.312  0.1096  0.1075  0.5841
 1259TIP3   OH225191   2.712   5.398   1.908  0.2694 -0.3624  0.0380
 1259TIP3    H125192   2.768   5.447   1.848 -0.6644  0.5768 -0.0983
 1259TIP3    H225193   2.644   5.360   1.853  1.4042 -2.5121  0.0334
 1260TIP3   OH225194   2.472   5.144   5.970  0.6763 -0.5331 -0.2534
 1260TIP3    H125195   2.481   5.227   6.017  1.1342 -0.5933 -0.2263
 1260TIP3    H225196   2.442   5.170   5.882  0.6293 -0.3536 -0.1843
 1261TIP3   OH225197   4.911   3.063  14.206  0.0480  0.0658 -0.6027
 1261TIP3    H125198   4.955   3.100  14.282 -0.0724 -1.8180  0.4611
 1261TIP3    H225199   4.834   3.019  14.242 -1.1740  0.8813 -2.0920
 1262TIP3   OH225200   0.084   5.697   5.210 -0.0996 -0.9326 -0.1316
 1262TIP3    H125201   0.143   5.674   5.138  0.8295  0.3464  0.1846
 1262TIP3    H225202  -0.002   5.665   5.182  0.2854 -0.6764 -1.6986
 1263TIP3   OH225203   3.241   0.537   1.700 -0.1650  0.3144 -0.0444
 1263TIP3    H125204   3.287   0.564   1.620 -0.1125  0.6083  0.0825
 1263TIP3    H225205   3.286   0.458   1.729 -1.8508 -1.3889 -1.7964
 1264TIP3   OH225206   3.676   6.152   6.710  0.2929 -0.5081 -0.6419
 1264TIP3    H125207   3.592   6.181   6.746  0.1991 -0.9056 -0.5352
 1264TIP3    H225208   3.735   6.226   6.722  0.7476 -1.1844  1.9305
 1265TIP3   OH225209   1.534   5.753  15.627 -0.0750 -0.0639 -0.0032
 1265TIP3    H125210   1.474   5.737  15.700  0.8391 -2.4534  0.3003
 1265TIP3    H225211   1.586   5.828  15.656 -0.9739  0.2186  0.9670
 1266TIP3   OH225212   1.116   2.981  15.213 -0.3216 -0.1133 -0.2250
 1266TIP3    H125213   1.140   2.911  15.274  0.3733 -1.5252 -2.0287
 1266TIP3    H225214   1.200   3.016  15.183 -0.6617  1.4730  0.5769
 1267TIP3   OH225215   4.922   3.186  13.931  0.4348 -0.7876 -0.2603
 1267TIP3    H125216   4.890   3.099  13.955 -1.1155 -0.2700 -0.3387
 1267TIP3    H225217   4.970   3.217  14.008 -0.6681 -0.9422  0.5051
 1268TIP3   OH225218   6.563   3.976   5.565 -0.3658 -0.1241 -0.4325
 1268TIP3    H125219   6.500   4.035   5.524 -1.1596  1.1212  2.3581
 1268TIP3    H225220   6.514   3.896   5.582 -0.8292  0.3452  0.4957
 1269TIP3   OH225221   4.949   1.765   5.956  0.2111 -0.2443 -0.9109
 1269TIP3    H125222   4.870   1.753   5.903  0.0254 -1.1704 -0.4488
 1269TIP3    H225223   4.983   1.677   5.968  1.9433  0.2391 -2.0022
 1270TIP3   OH225224   4.561   1.831  13.474 -0.1720 -0.1724  0.4126
 1270TIP3    H125225   4.483   1.836  13.419 -0.7256  1.8934  1.2992
 1270TIP3    H225226   4.597   1.919  13.473  2.1838 -1.0802  0.0484
 1271TIP3   OH225227   5.617   3.324  13.226 -0.1016 -0.1703  0.1410
 1271TIP3    H125228   5.597   3.274  13.147  0.2010 -0.3799  0.1925
 1271TIP3    H225229   5.708   3.352  13.213 -0.3096  0.4762  0.0562
 1272TIP3   OH225230   6.753   2.745  15.256  0.1130  0.2023 -0.1653
 1272TIP3    H125231   6.687   2.775  15.194  0.0216 -1.0185 -0.6852
 1272TIP3    H225232   6.805   2.823  15.275 -1.6639  1.2716  0.5221
 1273TIP3   OH225233   5.068   5.683  16.769 -0.0493 -0.5974 -0.0520
 1273TIP3    H125234   4.986   5.730  16.752 -0.1764 -0.6284  0.4655
 1273TIP3    H225235   5.041   5.593  16.787  0.1716 -0.8155 -0.7607
 1274TIP3   OH225236   6.625   1.969   0.741 -0.0344  0.4502  0.2928
 1274TIP3    H125237   6.555   2.028   0.770 -0.0922  0.1061  0.8605
 1274TIP3    H225238   6.579   1.891   0.710  0.0781  0.3818  0.2960
 1275TIP3   OH225239   3.210   3.001  15.832 -0.1316  0.0462 -0.0694
 1275TIP3    H125240   3.230   3.039  15.747  0.7471 -1.0585 -0.3848
 1275TIP3    H225241   3.165   2.919  15.811 -0.2158 -0.0649  0.5398
 1276TIP3   OH225242   3.394   5.836  12.784 -0.0574 -0.1939  0.4585
 1276TIP3    H125243   3.467   5.797  12.833  1.4781 -0.0025 -1.5248
 1276TIP3    H225244   3.361   5.765  12.730 -0.1730  0.1554  0.0677
 1277TIP3   OH225245   0.016   6.059   6.450 -0.2749  0.1996  0.1450
 1277TIP3    H125246   0.103   6.055   6.488  0.3660 -1.5299 -1.3469
 1277TIP3    H225247  -0.043   6.057   6.525  0.9180 -3.2179  1.1899
 1278TIP3   OH225248   4.166   4.923  16.823 -0.7289 -0.0280  0.5833
 1278TIP3    H125249   4.115   4.899  16.746  0.3119 -0.0736 -0.1078
 1278TIP3    H225250   4.162   5.019  16.825  2.1774  0.2793 -1.6731
 1279TIP3   OH225251   4.396   0.031  12.050  0.0959  0.5088  0.0718
 1279TIP3    H125252   4.486   0.008  12.072 -0.2394 -0.4182  0.5368
 1279TIP3    H225253   4.389   0.014  11.956  0.3548  0.3799  0.0754
 1280TIP3   OH225254   3.023   2.865  12.893  0.4607  0.4678  0.0541
 1280TIP3    H125255   2.928   2.874  12.902  0.1989 -2.1974  0.8282
 1280TIP3    H225256   3.045   2.790  12.948  2.9037  0.5030 -0.7637
 1281TIP3   OH225257   1.105   5.259   5.899  0.5573  0.4376  0.3053
 1281TIP3    H125258   1.099   5.292   5.988 -0.7736  0.2571  0.2967
 1281TIP3    H225259   1.027   5.204   5.888 -0.5208  2.2201 -1.6885
 1282TIP3   OH225260   0.939   3.451  13.512  0.8419 -0.2792 -0.1280
 1282TIP3    H125261   0.987   3.433  13.431 -0.1708  0.7656 -0.9925
 1282TIP3    H225262   0.945   3.546  13.524 -0.1769 -0.2468  0.2638
 1283TIP3   OH225263   5.662   3.738   1.206 -0.2547 -0.1371 -0.5470
 1283TIP3    H125264   5.732   3.713   1.147  0.5417  1.1341 -0.1945
 1283TIP3    H225265   5.626   3.819   1.169  0.0979  0.5482  0.5388
 1284TIP3   OH225266   2.223   1.473   5.255  0.0889 -0.1001 -0.5330
 1284TIP3    H125267   2.133   1.470   5.222  0.2815  0.5759 -1.1486
 1284TIP3    H225268   2.214   1.488   5.349 -0.4365  0.0296 -0.5987
 1285TIP3   OH225269   4.560   4.906  14.970  0.4685  0.7471  0.0990
 1285TIP3    H125270   4.545   4.925  14.877  0.5423  2.9085  0.4769
 1285TIP3    H225271   4.493   4.957  15.016 -0.5156 -1.4276  1.2248
 1286TIP3   OH225272   1.662   5.396  13.330 -0.5656  0.2750  0.0675
 1286TIP3    H125273   1.616   5.457  13.388 -0.6379 -1.1750  1.6151
 1286TIP3    H225274   1.623   5.310  13.350  1.5584 -0.7248  0.1343
 1287TIP3   OH225275   1.425   1.001  10.894  0.0323  0.7401  0.3199
 1287TIP3    H125276   1.330   0.994  10.886 -0.2153  1.2792  2.4086
 1287TIP3    H225277   1.454   1.036  10.809 -1.7187  1.5123  0.0134
 1288TIP3   OH225278   5.733   6.242   5.129  0.1400  0.7521 -0.1096
 1288TIP3    H125279   5.751   6.248   5.035  0.2203  0.5097 -0.1099
 1288TIP3    H225280   5.679   6.318   5.147 -3.3062 -1.1825 -1.1603
 1289TIP3   OH225281   2.020   3.519  12.520 -0.5200  0.1264 -0.1058
 1289TIP3    H125282   1.956   3.532  12.451 -1.4533 -1.1543  0.4754
 1289TIP3    H225283   1.972   3.537  12.601  0.7021  2.1909  0.2528
 1290TIP3   OH225284   3.579   5.594   5.508 -0.2143 -0.2842  0.4909
 1290TIP3    H125285   3.515   5.599   5.437 -0.8414 -0.3732  1.0388
 1290TIP3    H225286   3.649   5.538   5.475  0.0596  0.6003 -0.4793
 1291TIP3   OH225287   4.457   0.495   2.792 -0.0867  0.7655  0.5636
 1291TIP3    H125288   4.541   0.508   2.837 -0.1973  0.5315  0.8417
 1291TIP3    H225289   4.418   0.420   2.836 -0.9097  1.5075  1.1310
 1292TIP3   OH225290   5.587   0.396  12.077  0.7563 -0.2666 -0.1734
 1292TIP3    H125291   5.595   0.309  12.116  1.7121 -0.1796 -0.1558
 1292TIP3    H225292   5.674   0.414  12.041  1.3302  1.7094  2.0040
 1293TIP3   OH225293   1.527   5.247   1.280 -0.2260 -0.6734  0.4964
 1293TIP3    H125294   1.473   5.176   1.244  0.4719 -0.4578 -1.0602
 1293TIP3    H225295   1.608   5.243   1.229  0.4224  0.2953  1.4196
 1294TIP3   OH225296   6.006   6.034   0.699  0.3014 -0.2490  0.2661
 1294TIP3    H125297   6.085   6.087   0.689  0.1567 -0.3860 -2.2186
 1294TIP3    H225298   5.937   6.097   0.717  0.4852  0.2160 -0.6002
 1295TIP3   OH225299   6.506   5.020  15.054 -0.1052  0.4227  0.0149
 1295TIP3    H125300   6.520   5.055  15.142 -2.2939 -0.9729  1.0121
 1295TIP3    H225301   6.538   4.929  15.060 -0.9826  0.0761 -0.3656
 1296TIP3   OH225302   6.029   3.129   3.360  0.3238 -0.4359  0.5394
 1296TIP3    H125303   5.974   3.106   3.285 -0.1850  0.0905  0.7461
 1296TIP3    H225304   5.969   3.170   3.422  1.4353  3.3591 -0.6194
 1297TIP3   OH225305   5.328   3.764  13.182  0.3189 -0.3276 -0.3299
 1297TIP3    H125306   5.330   3.850  13.223 -0.6882  0.5704 -2.0792
 1297TIP3    H225307   5.405   3.763  13.124  0.0878 -0.4416 -0.6341
 1298TIP3   OH225308   0.775   6.088   1.421 -0.2069  0.0429  0.4663
 1298TIP3    H125309   0.826   6.167   1.431  0.8285 -0.8012  2.2544
 1298TIP3    H225310   0.685   6.115   1.438  0.0551  0.9272  0.4805
 1299TIP3   OH225311   0.032   4.016  11.758 -0.1851 -0.5081  0.2890
 1299TIP3    H125312   0.023   3.946  11.822 -0.2484 -0.3580  0.4434
 1299TIP3    H225313   0.093   3.981  11.693 -1.1372 -1.1640 -0.2695
 1300TIP3   OH225314   5.847   4.304  16.228  0.1368  0.1193  0.5324
 1300TIP3    H125315   5.760   4.271  16.250 -0.6419  1.5548 -0.2615
 1300TIP3    H225316   5.852   4.299  16.133  1.5426 -1.3443  0.6249
 1301TIP3   OH225317   0.397   5.391   2.031 -0.4326 -0.0851  0.1990
 1301TIP3    H125318   0.403   5.473   2.080  0.2263 -0.2572  0.4150
 1301TIP3    H225319   0.311   5.357   2.052 -1.2949  1.2335 -0.9769
 1302TIP3   OH225320   3.001   6.432  16.746 -0.2340 -0.4758  0.5090
 1302TIP3    H125321   2.956   6.385  16.815 -1.4560 -1.8794 -1.1554
 1302TIP3    H225322   2.967   6.394  16.665  1.5035  0.7376 -0.8699
 1303TIP3   OH225323   0.293   5.572   1.371  0.0136 -0.0651  0.0945
 1303TIP3    H125324   0.387   5.584   1.386  0.3142  0.0596 -1.6564
 1303TIP3    H225325   0.269   5.499   1.427  1.3309 -0.6061 -0.0083
 1304TIP3   OH225326   5.451   3.584  16.979  0.0729  0.4284  0.3293
 1304TIP3    H125327   5.500   3.505  16.957 -0.2445  0.1229  0.7098
 1304TIP3    H225328   5.449   3.635  16.898  1.2073  0.5454  0.3603
 1305TIP3   OH225329   4.009   4.081   0.513 -0.7543 -0.0560  0.1085
 1305TIP3    H125330   4.059   4.019   0.566 -0.8614 -0.0977  0.1599
 1305TIP3    H225331   3.918   4.057   0.527 -0.8595  0.8173  1.0182
 1306TIP3   OH225332   1.988   6.426   5.701  0.1767  0.7839  0.0751
 1306TIP3    H125333   2.078   6.398   5.714  0.1114  0.9090  0.8539
 1306TIP3    H225334   1.980   6.441   5.607  0.8795  0.4852 -0.0333
 1307TIP3   OH225335   6.129   5.354   2.107 -0.0519 -0.1930 -0.3364
 1307TIP3    H125336   6.165   5.436   2.140  0.0948 -0.4520  0.1542
 1307TIP3    H225337   6.146   5.356   2.013  1.4419 -0.3994 -0.0912
 1308TIP3   OH225338   5.372   5.022   5.912  0.4854  0.1034 -0.0110
 1308TIP3    H125339   5.404   5.006   5.824 -0.0155  0.3504 -0.2426
 1308TIP3    H225340   5.336   4.938   5.940  0.1227  0.1747 -0.2635
 1309TIP3   OH225341   2.053   0.285   0.033  0.4202  0.7239 -0.6160
 1309TIP3    H125342   2.077   0.377   0.024  0.8433  0.4249 -3.3605
 1309TIP3    H225343   1.959   0.283   0.014  0.4385  0.5621 -0.6907
 1310TIP3   OH225344   0.995   6.692  12.834  0.7801 -0.0185 -0.1697
 1310TIP3    H125345   1.032   6.657  12.915  1.4633  2.3911  0.6249
 1310TIP3    H225346   1.071   6.703  12.776  0.4562 -0.5454 -0.7131
 1311TIP3   OH225347   6.337   5.122   6.714  0.1626 -0.1041  0.0446
 1311TIP3    H125348   6.343   5.215   6.691 -1.0227  0.1871  0.8211
 1311TIP3    H225349   6.265   5.089   6.661 -1.3933  0.1527  1.8839
 1312TIP3   OH225350   3.717   1.529  14.178  0.7360 -0.6516 -0.3737
 1312TIP3    H125351   3.784   1.561  14.118  0.2273  0.2909 -0.4646
 1312TIP3    H225352   3.756   1.538  14.265  1.7622 -2.7236 -0.5695
 1313TIP3   OH225353   0.916   4.663  15.070 -0.5207  0.7167  0.1365
 1313TIP3    H125354   0.860   4.611  15.012  0.8723  1.2982 -1.8531
 1313TIP3    H225355   0.965   4.598  15.120 -0.5636  0.1597 -0.5290
 1314TIP3   OH225356   4.547   3.541  12.201  0.3933  0.2428  0.5245
 1314TIP3    H125357   4.526   3.589  12.121  0.2099  0.1372  0.5084
 1314TIP3    H225358   4.632   3.575  12.228  0.1417  0.7755  0.6622
 1315TIP3   OH225359   2.779   0.494   3.084 -0.0901 -0.0328  0.1907
 1315TIP3    H125360   2.814   0.465   3.000 -0.5765  0.0645 -0.0531
 1315TIP3    H225361   2.758   0.413   3.130  2.1853 -0.1431  1.1158
 1316TIP3   OH225362   6.623   4.781  14.347  0.0220  0.0047 -0.0774
 1316TIP3    H125363   6.565   4.854  14.369 -0.8968 -0.1580 -1.7733
 1316TIP3    H225364   6.565   4.706  14.340  0.5494 -0.3336 -0.9757
 1317TIP3   OH225365   5.659   4.620   0.041  0.0985 -0.0701 -0.5907
 1317TIP3    H125366   5.612   4.542   0.071  1.1776 -0.8120 -0.7508
 1317TIP3    H225367   5.592   4.674  -0.001 -1.0214 -0.0458  1.1358
 1318TIP3   OH225368   3.108   4.381  17.070 -0.0638  0.0568 -1.0646
 1318TIP3    H125369   3.116   4.292  17.102 -0.2652  0.9316  1.7117
 1318TIP3    H225370   3.048   4.424  17.131  1.3686  2.5301 -1.2417
 1319TIP3   OH225371   2.284   6.055  11.578  0.2547 -0.0711  0.1036
 1319TIP3    H125372   2.231   6.133  11.566 -0.5122 -0.4863  0.6900
 1319TIP3    H225373   2.223   5.982  11.569  0.8915 -0.5895 -0.0893
 1320TIP3   OH225374   4.311   1.986  12.018 -0.0385 -0.6283 -0.1429
 1320TIP3    H125375   4.275   2.070  12.045  0.2074 -0.4199 -0.4581
 1320TIP3    H225376   4.234   1.930  12.005 -0.1628 -0.6913  0.8490
 1321TIP3   OH225377   5.224   2.880  17.343  0.2573  0.0846 -0.3095
 1321TIP3    H125378   5.309   2.837  17.345 -0.1666 -0.7549  0.1519
 1321TIP3    H225379   5.244   2.971  17.323  1.5742  0.5850  2.6643
 1322TIP3   OH225380   5.100   3.102   9.826 -0.0022  0.1794  0.6482
 1322TIP3    H125381   5.124   3.069   9.739 -0.7700 -0.5642  0.7008
 1322TIP3    H225382   5.114   3.028   9.884 -0.3532  0.3955  1.0118
 1323TIP3   OH225383   4.135   0.839  15.959 -0.4374 -0.5768 -0.2155
 1323TIP3    H125384   4.133   0.928  15.991  1.5642 -0.5604 -0.0579
 1323TIP3    H225385   4.168   0.787  16.032  0.1889 -1.1591 -0.8987
 1324TIP3   OH225386   2.656   0.387  13.058  0.4510  0.0008 -0.5718
 1324TIP3    H125387   2.724   0.441  13.017  0.4556 -0.2292 -0.8722
 1324TIP3    H225388   2.695   0.300  13.063  0.3758 -0.0130 -0.2570
 1325TIP3   OH225389   5.573   3.621  14.768  0.2423  0.5494 -0.6536
 1325TIP3    H125390   5.647   3.674  14.797  1.9069 -2.9761  2.3747
 1325TIP3    H225391   5.600   3.583  14.685  1.7476 -0.3100  0.1881
 1326TIP3   OH225392   2.448   6.052   1.165  0.0149 -0.5119  0.3063
 1326TIP3    H125393   2.461   5.958   1.158  0.2843 -0.4256 -0.4589
 1326TIP3    H225394   2.527   6.084   1.210 -0.7339 -0.8101  1.9051
 1327TIP3   OH225395   1.997   4.181  14.154 -0.3998  0.1743 -0.2406
 1327TIP3    H125396   1.982   4.087  14.166  2.3675 -0.1987  1.1839
 1327TIP3    H225397   1.995   4.217  14.243 -0.8364  1.3786 -0.7113
 1328TIP3   OH225398   4.459   5.829   5.548 -0.1290 -0.8726  0.2317
 1328TIP3    H125399   4.529   5.847   5.611  0.6835  0.2571 -0.9351
 1328TIP3    H225400   4.448   5.911   5.501 -1.1366 -1.5139 -0.7003
 1329TIP3   OH225401   2.888   1.395   2.287 -0.5928  0.2689  0.4757
 1329TIP3    H125402   2.802   1.354   2.286 -0.3721 -0.1949  0.4334
 1329TIP3    H225403   2.905   1.416   2.195 -0.3953 -0.1953  0.4070
 1330TIP3   OH225404   0.489   1.429  15.224 -0.1695 -0.2072 -0.0431
 1330TIP3    H125405   0.521   1.453  15.137  0.2135  0.0768  0.1719
 1330TIP3    H225406   0.551   1.471  15.284  0.3860 -1.5379  0.3485
 1331TIP3   OH225407   2.990   3.929   1.063  0.0442 -0.5513 -0.2080
 1331TIP3    H125408   2.940   3.948   1.142  2.5895 -1.0885  1.6302
 1331TIP3    H225409   3.042   3.852   1.085  2.3168  0.4651 -1.6885
 1332TIP3   OH225410   6.394   4.569   2.496  0.4594  0.0746 -0.4995
 1332TIP3    H125411   6.454   4.553   2.568 -0.3067 -0.9657 -0.0847
 1332TIP3    H225412   6.450   4.606   2.427  0.9690  2.5348  1.0846
 1333TIP3   OH225413   1.247   0.382   4.113  0.7347 -0.4303 -1.1953
 1333TIP3    H125414   1.341   0.375   4.098  0.3255 -1.3239 -4.0306
 1333TIP3    H225415   1.217   0.446   4.049 -0.6698 -0.6354 -0.7828
 1334TIP3   OH225416   3.527   3.726  16.869 -0.2655  0.1860 -0.5926
 1334TIP3    H125417   3.541   3.716  16.964 -0.4008  1.1416 -0.4607
 1334TIP3    H225418   3.607   3.769  16.838  0.2485 -1.1027 -1.1077
 1335TIP3   OH225419   4.563   0.223  12.903  0.2164  0.0597 -1.0566
 1335TIP3    H125420   4.536   0.308  12.870  2.3159  2.3553  2.5461
 1335TIP3    H225421   4.656   0.233  12.923 -0.5708 -0.7367  5.1894
 1336TIP3   OH225422   2.944   1.399   1.334  0.8487  0.3127 -0.3969
 1336TIP3    H125423   3.013   1.379   1.271  0.5518  1.3556 -1.0896
 1336TIP3    H225424   2.968   1.484   1.369 -0.7082  1.3151 -1.6112
 1337TIP3   OH225425   5.781   0.171   1.596 -0.2063  0.3327 -0.2607
 1337TIP3    H125426   5.831   0.252   1.589 -2.3414  1.8311  0.6547
 1337TIP3    H225427   5.716   0.176   1.525  0.3637 -1.1603 -0.9228
 1338TIP3   OH225428   0.331   2.612   3.344  0.3423 -0.9032 -0.3579
 1338TIP3    H125429   0.275   2.586   3.271 -0.8869  0.2465  0.1356
 1338TIP3    H225430   0.402   2.662   3.303 -0.0210 -0.7572 -0.8240
 1339TIP3   OH225431   3.468   4.628   6.508  0.4517  0.0624  0.2793
 1339TIP3    H125432   3.431   4.695   6.450  3.5292  0.8660 -0.9474
 1339TIP3    H225433   3.485   4.674   6.590  0.9710  0.3512  0.0149
 1340TIP3   OH225434   0.533   5.910   5.374  0.2343  0.0804 -0.2237
 1340TIP3    H125435   0.629   5.905   5.379  0.3257  0.5492 -1.2771
 1340TIP3    H225436   0.508   5.965   5.448  1.0028  1.9590 -1.3010
 1341TIP3   OH225437   5.120   2.103   1.413 -0.4186  0.2944  0.0309
 1341TIP3    H125438   5.058   2.175   1.400  1.9929  2.5765  0.3613
 1341TIP3    H225439   5.157   2.086   1.326  0.7819  1.2150  0.3345
 1342TIP3   OH225440   0.167   2.066   3.858 -0.1458  1.1239  0.3682
 1342TIP3    H125441   0.093   2.005   3.850  1.0108 -0.3928  0.7260
 1342TIP3    H225442   0.134   2.148   3.822 -1.4942  0.0644 -0.9600
 1343TIP3   OH225443   2.153   0.855  14.521  0.1790 -0.2041 -0.0264
 1343TIP3    H125444   2.085   0.830  14.460  1.3192 -0.2960 -1.3073
 1343TIP3    H225445   2.121   0.826  14.607 -0.0953 -2.9015 -0.9651
 1344TIP3   OH225446   4.201   5.797  16.703 -0.3302  0.1749  0.1488
 1344TIP3    H125447   4.197   5.802  16.608  0.7387 -0.9945  0.0050
 1344TIP3    H225448   4.242   5.879  16.731  0.8457 -0.1457 -0.5540
 1345TIP3   OH225449   3.110   3.983  16.588  0.1340 -0.1364 -0.7135
 1345TIP3    H125450   3.149   3.920  16.527  4.5594 -0.1844  1.7878
 1345TIP3    H225451   3.131   3.948  16.674 -0.6111  2.8653  0.7961
 1346TIP3   OH225452   2.361   1.982  16.225 -0.6073  0.4261  0.6542
 1346TIP3    H125453   2.403   1.932  16.295 -0.5219 -0.3954  0.0293
 1346TIP3    H225454   2.434   2.018  16.174 -0.6467 -0.0408  0.2509
 1347TIP3   OH225455   6.629   0.625   2.914  0.3689  0.2475  0.1931
 1347TIP3    H125456   6.599   0.596   3.000  0.6345 -1.8341 -0.3719
 1347TIP3    H225457   6.552   0.617   2.858 -0.4600  3.7440  0.5936
 1348TIP3   OH225458   4.681   6.253   6.022  0.3841  0.2998 -1.1136
 1348TIP3    H125459   4.644   6.341   6.013 -0.6359  0.0674  0.3982
 1348TIP3    H225460   4.763   6.267   6.070 -0.0987  0.3988 -0.2853
 1349TIP3   OH225461   0.248   2.525   2.179 -0.0446 -0.5253  0.1291
 1349TIP3    H125462   0.259   2.596   2.116  0.4557  0.6511  1.4736
 1349TIP3    H225463   0.200   2.565   2.252  0.5316 -1.4795  1.0651
 1350TIP3   OH225464   1.967   2.998   4.476  0.0938  0.0089  0.0715
 1350TIP3    H125465   2.043   3.024   4.425 -0.5113 -1.8503 -1.9160
 1350TIP3    H225466   2.004   2.963   4.557  1.3284 -0.3293 -0.6167
 1351TIP3   OH225467   2.485   6.596  16.672  0.4867 -0.3630 -0.2272
 1351TIP3    H125468   2.581   6.594  16.678  0.6309  1.3134 -1.1584
 1351TIP3    H225469   2.468   6.632  16.585 -1.0149 -1.3504 -0.3671
 1352TIP3   OH225470   3.737   2.020  14.693 -0.9968 -0.2101  0.0163
 1352TIP3    H125471   3.660   2.020  14.635 -3.3698  3.0842  2.7700
 1352TIP3    H225472   3.796   2.085  14.654 -1.5119  0.2998  0.0863
 1353TIP3   OH225473   4.061   6.613   5.181  0.1004 -0.8364  0.2277
 1353TIP3    H125474   4.079   6.538   5.238 -0.0699 -0.6942  0.4665
 1353TIP3    H225475   3.965   6.619   5.178  0.1086  0.2589  1.3786
 1354TIP3   OH225476   2.592   3.536   1.818 -0.0730 -0.2625 -0.3124
 1354TIP3    H125477   2.546   3.615   1.844  1.3293  0.4133  0.1990
 1354TIP3    H225478   2.685   3.557   1.829  0.3515 -1.7606 -0.7780
 1355TIP3   OH225479   0.987   6.640  16.747 -0.4719  0.1658 -0.0467
 1355TIP3    H125480   1.020   6.729  16.729  1.8108 -1.1111 -3.1504
 1355TIP3    H225481   1.039   6.610  16.822  0.7572  0.5405 -0.7168
 1356TIP3   OH225482   0.395   1.383   3.830  0.3079 -0.4054  0.0263
 1356TIP3    H125483   0.407   1.405   3.923  2.2500 -1.9335  0.2093
 1356TIP3    H225484   0.365   1.292   3.830 -0.7019 -0.0951 -0.8531
 1357TIP3   OH225485   0.709   1.673  11.798 -0.3895  0.4047  0.5716
 1357TIP3    H125486   0.658   1.700  11.722  0.5181  1.0277  0.1675
 1357TIP3    H225487   0.759   1.597  11.769 -0.2365  0.4864  0.6166
 1358TIP3   OH225488   3.169   0.640  13.902 -0.7942 -0.4852 -0.4266
 1358TIP3    H125489   3.196   0.608  13.816  1.0007  0.6092 -0.3257
 1358TIP3    H225490   3.249   0.637  13.955 -1.1813  1.4682  0.3587
 1359TIP3   OH225491   2.924   2.387   3.353 -0.0081 -0.2810 -0.4564
 1359TIP3    H125492   2.834   2.379   3.383  1.1514 -1.3746  3.2634
 1359TIP3    H225493   2.941   2.481   3.354 -0.5743 -0.1638  0.8383
 1360TIP3   OH225494   0.319   0.209   6.515 -0.1793 -0.1722  0.4779
 1360TIP3    H125495   0.245   0.253   6.474  0.1820 -0.7938 -0.8964
 1360TIP3    H225496   0.369   0.280   6.556 -0.8843  0.3884  0.3973
 1361TIP3   OH225497   3.984   4.881  17.023 -0.0982 -0.2208  0.2324
 1361TIP3    H125498   4.046   4.897  16.951 -0.4424 -1.4371 -0.3556
 1361TIP3    H225499   4.038   4.845  17.094 -0.1138 -1.3312 -0.2961
 1362TIP3   OH225500   4.269   3.339  15.689 -0.2182 -0.4804 -0.0351
 1362TIP3    H125501   4.353   3.304  15.718  0.9311  1.9057 -0.2472
 1362TIP3    H225502   4.225   3.365  15.770  0.3974  0.6012 -0.0169
 1363TIP3   OH225503   2.367   0.539  16.855 -0.2389 -0.5216  0.4085
 1363TIP3    H125504   2.382   0.449  16.885 -2.2765 -0.7940  0.7621
 1363TIP3    H225505   2.435   0.591  16.899  1.8312 -2.0211 -0.8397
 1364TIP3   OH225506   4.571   2.307  15.646  0.2894 -0.0438  0.0403
 1364TIP3    H125507   4.592   2.215  15.630  0.0614  0.2529 -2.3244
 1364TIP3    H225508   4.649   2.355  15.618 -0.7687  0.6294 -1.9350
 1365TIP3   OH225509   1.386   4.979  13.177 -0.3227  0.4551 -0.4018
 1365TIP3    H125510   1.294   5.002  13.189 -0.6162 -0.9957  0.3453
 1365TIP3    H225511   1.387   4.923  13.100 -0.1179  0.1779 -0.2001
 1366TIP3   OH225512   0.472   6.604  14.989 -0.0455 -0.1794 -0.1103
 1366TIP3    H125513   0.388   6.650  14.978 -0.3981 -0.8449 -0.2517
 1366TIP3    H225514   0.482   6.553  14.909 -0.1004 -1.0513  0.4289
 1367TIP3   OH225515   0.644   0.418   4.248 -0.2883  0.4616  0.2913
 1367TIP3    H125516   0.626   0.340   4.301  1.0104  1.1993  1.8814
 1367TIP3    H225517   0.622   0.492   4.305  0.7781  1.2810 -0.3254
 1368TIP3   OH225518   0.111   3.594  16.249 -0.3954  0.1400  0.1421
 1368TIP3    H125519   0.106   3.506  16.212  0.2616  0.2449 -0.2136
 1368TIP3    H225520   0.089   3.582  16.342 -0.9661 -0.2925 -0.0429
 1369TIP3   OH225521   1.350   0.820  12.562 -0.0459 -0.2258 -0.4127
 1369TIP3    H125522   1.374   0.825  12.655 -0.0676  0.1372 -0.4251
 1369TIP3    H225523   1.416   0.871  12.517 -0.3416  0.0528 -0.5381
 1370TIP3   OH225524   3.371   0.861   2.657 -0.3956 -0.7385 -0.2275
 1370TIP3    H125525   3.331   0.887   2.574 -1.0137  0.1586  0.3413
 1370TIP3    H225526   3.303   0.812   2.702 -0.1931 -0.8773 -0.0697
 1371TIP3   OH225527   0.944   6.225   1.662  0.5376 -0.1441  0.3693
 1371TIP3    H125528   0.980   6.269   1.584  0.3918 -0.6331  0.0229
 1371TIP3    H225529   0.879   6.287   1.696 -2.4923 -1.5396 -2.2790
 1372TIP3   OH225530   5.869   1.003   4.643 -0.4287  0.1532 -0.5543
 1372TIP3    H125531   5.944   0.944   4.644 -0.6704 -0.2455  2.3500
 1372TIP3    H225532   5.826   0.986   4.559  0.9020 -1.9676 -0.8747
 1373TIP3   OH225533   4.355   5.345   5.576  0.6154  0.2817 -0.2825
 1373TIP3    H125534   4.349   5.396   5.656  0.3846 -1.4544  0.8701
 1373TIP3    H225535   4.309   5.397   5.510  0.0602  1.3545  0.9166
 1374TIP3   OH225536   6.162   6.523   4.539 -0.1075 -0.2096  0.0122
 1374TIP3    H125537   6.088   6.482   4.584 -1.9480  1.4634 -1.3185
 1374TIP3    H225538   6.215   6.449   4.508 -0.3163 -1.4273  2.3477
 1375TIP3   OH225539   6.225   5.183   3.825 -0.1273 -0.3637  0.3086
 1375TIP3    H125540   6.236   5.150   3.736 -0.5734 -2.3418  0.9465
 1375TIP3    H225541   6.139   5.225   3.825 -0.4122 -0.9375 -0.0351
 1376TIP3   OH225542   5.210   1.910   5.179  0.3224  0.4603 -0.0747
 1376TIP3    H125543   5.276   1.907   5.110  1.9893  0.4543  1.4590
 1376TIP3    H225544   5.166   1.825   5.173  1.2902 -0.0370 -0.3656
 1377TIP3   OH225545   2.195   1.628  12.749  0.2984 -0.1115  0.1529
 1377TIP3    H125546   2.142   1.703  12.722 -0.5889 -0.3056  1.2936
 1377TIP3    H225547   2.259   1.665  12.810  0.5794 -0.1089 -0.1407
 1378TIP3   OH225548   2.496   3.618   6.561  0.4011  0.2225  0.5215
 1378TIP3    H125549   2.576   3.629   6.613  1.1912  1.2554 -0.8475
 1378TIP3    H225550   2.457   3.706   6.557  0.0639  0.0535 -0.1465
 1379TIP3   OH225551   0.697   5.772  14.529 -0.4081  0.2361 -0.3917
 1379TIP3    H125552   0.703   5.692  14.581  1.4369  1.1402  0.8650
 1379TIP3    H225553   0.620   5.817  14.563 -0.5117 -0.2314  0.0069
 1380TIP3   OH225554   4.796   0.968  16.072  0.4697  0.0639  0.5700
 1380TIP3    H125555   4.742   1.047  16.077  0.1807  0.3570 -3.8269
 1380TIP3    H225556   4.736   0.897  16.092 -0.7219  0.6357 -0.7888
 1381TIP3   OH225557   1.301   2.308  13.297 -0.3653 -0.2211 -0.2165
 1381TIP3    H125558   1.247   2.268  13.366 -3.9077  2.7439 -0.9596
 1381TIP3    H225559   1.338   2.386  13.338  0.0237 -0.0802 -0.8252
 1382TIP3   OH225560   3.281   2.243   3.308 -0.2585  0.3397  0.1012
 1382TIP3    H125561   3.248   2.300   3.377  0.0341  0.0905  0.4521
 1382TIP3    H225562   3.285   2.299   3.230  1.5253  1.2539  0.7936
 1383TIP3   OH225563   5.615   1.196   3.922 -0.2954  0.1590 -0.1164
 1383TIP3    H125564   5.589   1.167   4.009  0.7687 -0.1284  0.1189
 1383TIP3    H225565   5.586   1.287   3.917 -1.6640 -0.2423 -0.0307
 1384TIP3   OH225566   4.208   3.043   5.447  0.2134  0.2084  0.3246
 1384TIP3    H125567   4.197   3.131   5.411  1.6740  0.0964 -0.4653
 1384TIP3    H225568   4.289   3.011   5.408 -0.1173 -1.3701  0.8643
 1385TIP3   OH225569   2.584   5.875   3.397 -0.1929 -0.0357 -0.0871
 1385TIP3    H125570   2.512   5.814   3.414  0.5032 -1.1705 -1.0114
 1385TIP3    H225571   2.629   5.837   3.321  0.8993  1.0800 -0.0196
 1386TIP3   OH225572   6.567   4.474  10.582 -0.3651 -0.0351  0.3111
 1386TIP3    H125573   6.480   4.435  10.583  0.2497 -1.5753  2.5187
 1386TIP3    H225574   6.620   4.415  10.527 -0.6737  0.9310 -1.0776
 1387TIP3   OH225575   6.364   5.797   0.792  1.0144  0.6862  0.2604
 1387TIP3    H125576   6.307   5.851   0.847  0.0031  0.5353 -0.6093
 1387TIP3    H225577   6.428   5.761   0.853 -0.4852 -0.0385  1.4958
 1388TIP3   OH225578   0.531   1.317   1.330  0.2714 -0.3026  0.0960
 1388TIP3    H125579   0.444   1.302   1.367  0.8143 -2.8635  0.5325
 1388TIP3    H225580   0.516   1.324   1.236 -0.6513  1.9073  0.3686
 1389TIP3   OH225581   1.218   6.243  15.930  0.4807  0.6510  0.1799
 1389TIP3    H125582   1.166   6.315  15.965  0.3629  1.2065 -1.0885
 1389TIP3    H225583   1.202   6.170  15.990  0.1044  1.4906  1.1254
 1390TIP3   OH225584   4.097   5.697   5.883  0.4677  0.5851  0.2499
 1390TIP3    H125585   4.072   5.734   5.799 -0.3000  0.9228  0.6145
 1390TIP3    H225586   4.052   5.751   5.948 -3.3376 -2.6940  0.7737
 1391TIP3   OH225587   1.827   2.205  13.191  0.0771 -0.5620  0.4748
 1391TIP3    H125588   1.829   2.170  13.280  1.0393 -0.5299  0.4830
 1391TIP3    H225589   1.899   2.160  13.147  0.3065  0.2297  0.0306
 1392TIP3   OH225590   1.588   2.054  15.616  0.0269  0.1231 -0.5964
 1392TIP3    H125591   1.523   2.064  15.546 -0.7026 -0.6179 -0.0510
 1392TIP3    H225592   1.565   1.971  15.658 -0.5175  1.2769  1.5084
 1393TIP3   OH225593   0.016   1.782   0.285  0.0510  0.2747 -0.0063
 1393TIP3    H125594  -0.038   1.706   0.309  1.6723 -0.7290  0.6250
 1393TIP3    H225595   0.098   1.768   0.332  0.5405  2.2290 -0.2133
 1394TIP3   OH225596   1.168   5.200  12.139  0.3024  0.5343 -0.1529
 1394TIP3    H125597   1.124   5.262  12.081  1.7651  0.2981 -1.5928
 1394TIP3    H225598   1.234   5.251  12.185 -0.9320  0.7429  1.4542
 1395TIP3   OH225599   2.557   3.004   4.752  0.3707 -0.7516  0.2185
 1395TIP3    H125600   2.642   2.961   4.740  1.0988  0.4448  0.8791
 1395TIP3    H225601   2.556   3.030   4.844 -0.1833  0.3146 -0.0693
 1396TIP3   OH225602   6.551   4.024   4.270 -0.0724  0.5017 -0.2504
 1396TIP3    H125603   6.497   4.007   4.193  1.3108  1.8625 -1.5971
 1396TIP3    H225604   6.606   3.947   4.279 -1.8469 -0.7108  0.8781
 1397TIP3   OH225605   6.630   2.647   2.440  0.5020 -0.0295  0.3106
 1397TIP3    H125606   6.687   2.635   2.364  1.9888 -0.1467  1.3872
 1397TIP3    H225607   6.674   2.598   2.510 -0.8071  0.1045  1.2548
 1398TIP3   OH225608   3.932   0.044   5.559  0.5782 -0.3847  0.3310
 1398TIP3    H125609   3.905   0.078   5.474 -1.6150 -2.3221  0.1571
 1398TIP3    H225610   3.873   0.085   5.622 -0.2569 -1.6841  0.4356
 1399TIP3   OH225611   4.852   1.584  11.747  0.0761 -0.5147 -0.4141
 1399TIP3    H125612   4.835   1.614  11.658 -1.4085  0.4186  0.1396
 1399TIP3    H225613   4.911   1.649  11.784 -1.1364  0.3852 -0.0124
 1400TIP3   OH225614   4.804   0.218  12.354  0.3031 -0.9152 -0.1631
 1400TIP3    H125615   4.735   0.254  12.297 -0.1154 -1.7198 -0.1900
 1400TIP3    H225616   4.786   0.255  12.440  2.3432  2.2110 -0.9358
 1401TIP3   OH225617   5.271   2.190   0.597  0.3904 -0.0979 -0.0693
 1401TIP3    H125618   5.208   2.225   0.660 -3.5269 -1.9874 -2.5663
 1401TIP3    H225619   5.302   2.266   0.549 -0.5899  0.8387  0.7256
 1402TIP3   OH225620   3.563   6.330   4.988  0.6807 -0.0563  0.2671
 1402TIP3    H125621   3.482   6.287   4.961  0.3383  0.8866 -0.2442
 1402TIP3    H225622   3.599   6.367   4.907 -0.2908  2.7044  0.9793
 1403TIP3   OH225623   2.097   0.049   1.278 -0.2006 -0.4548  0.0311
 1403TIP3    H125624   2.085   0.122   1.218 -2.7302 -1.8979 -1.3806
 1403TIP3    H225625   2.174   0.003   1.245 -0.0889  0.1552 -0.5783
 1404TIP3   OH225626   1.078   6.731   5.815  0.0622 -0.1546  0.1626
 1404TIP3    H125627   1.018   6.770   5.879  2.1622  1.2975  1.3714
 1404TIP3    H225628   1.127   6.805   5.780  2.1383 -1.3649  0.3309
 1405TIP3   OH225629   3.077   4.684  16.203 -0.6822  0.1307  0.1320
 1405TIP3    H125630   3.146   4.716  16.260  0.6105 -0.2710 -1.1401
 1405TIP3    H225631   3.050   4.601  16.242  1.7127 -1.2504 -0.9055
 1406TIP3   OH225632   5.573   2.897   6.154 -0.4237  0.0715 -0.3430
 1406TIP3    H125633   5.533   2.912   6.240  0.6449 -2.7633  0.7776
 1406TIP3    H225634   5.523   2.824   6.117  0.8415 -0.5642 -0.8670
 1407TIP3   OH225635   2.131   2.477   5.384  0.2559  0.0063  0.4358
 1407TIP3    H125636   2.176   2.454   5.303  1.0972  0.0920  0.8764
 1407TIP3    H225637   2.045   2.508   5.355  0.1917 -0.8677 -0.3567
 1408TIP3   OH225638   6.648   6.189   5.018 -0.0675  0.0704 -0.4340
 1408TIP3    H125639   6.693   6.168   5.101  1.0933  1.2852 -0.7108
 1408TIP3    H225640   6.702   6.147   4.951 -0.6060 -0.3036 -0.6411
 1409TIP3   OH225641   1.489   0.313   5.760 -0.7966  0.3228 -0.4878
 1409TIP3    H125642   1.559   0.258   5.726  0.3871  1.0618  0.6537
 1409TIP3    H225643   1.526   0.353   5.839 -3.2171 -0.8810  1.3835
 1410TIP3   OH225644   4.620   3.634   5.740  0.4080 -1.0048 -0.2148
 1410TIP3    H125645   4.557   3.568   5.769  0.7503 -0.9467  0.7022
 1410TIP3    H225646   4.702   3.586   5.730  0.3504 -0.9741 -0.8746
 1411TIP3   OH225647   5.629   2.318  15.134 -0.1995  0.6176 -0.5953
 1411TIP3    H125648   5.623   2.222  15.131  2.0727  0.4327 -2.0662
 1411TIP3    H225649   5.540   2.348  15.119 -0.7353 -1.2817 -1.6413
 1412TIP3   OH225650   2.923   2.747  12.594  0.0008  0.0028  0.2593
 1412TIP3    H125651   2.875   2.819  12.635 -1.4545 -1.7516  1.8226
 1412TIP3    H225652   2.902   2.754  12.501 -0.8821  1.0227  0.5148
 1413TIP3   OH225653   5.901   2.573  12.514 -0.2564  0.0807 -0.4015
 1413TIP3    H125654   5.913   2.564  12.419  1.0284 -0.0413 -0.2440
 1413TIP3    H225655   5.941   2.657  12.535  1.8399 -1.0326  0.3818
 1414TIP3   OH225656   6.531   0.925  13.782 -0.2548  0.2677 -0.2308
 1414TIP3    H125657   6.457   0.980  13.809 -1.2369 -1.4672  0.7490
 1414TIP3    H225658   6.581   0.910  13.862  1.1155  1.2750 -0.8527
 1415TIP3   OH225659   6.138   1.556  15.061  0.2054  0.2243  0.7008
 1415TIP3    H125660   6.126   1.469  15.100 -0.9603  0.8168  1.7788
 1415TIP3    H225661   6.209   1.596  15.112  0.9922 -0.2141 -0.0359
 1416TIP3   OH225662   4.831   1.027  10.752 -0.0539 -0.5012 -0.2937
 1416TIP3    H125663   4.888   0.955  10.726  0.6888  0.1154 -0.3995
 1416TIP3    H225664   4.746   1.004  10.715  0.3158 -1.0328 -0.8381
 1417TIP3   OH225665   1.590   6.065  14.555 -0.1153 -0.1310 -0.8983
 1417TIP3    H125666   1.551   6.039  14.639  1.2488  0.2771 -0.0962
 1417TIP3    H225667   1.595   5.984  14.505  0.3309 -0.6746 -0.0124
 1418TIP3   OH225668   5.835   5.744   0.045  0.1947 -0.3795  0.2659
 1418TIP3    H125669   5.747   5.757   0.010 -0.0771 -3.2070 -0.3868
 1418TIP3    H225670   5.869   5.832   0.059 -2.7493  0.8108  0.6402
 1419TIP3   OH225671   2.745   2.908   2.898 -0.2572  0.2309 -0.5254
 1419TIP3    H125672   2.814   2.974   2.900 -0.7569  0.8724  3.1108
 1419TIP3    H225673   2.769   2.845   2.966 -2.4908 -0.2712 -0.0954
 1420TIP3   OH225674   3.778   0.838   5.457 -0.6069  0.4062  0.4792
 1420TIP3    H125675   3.686   0.819   5.476 -1.1203  1.8890 -0.3643
 1420TIP3    H225676   3.784   0.933   5.464  0.5862  0.4348 -0.6558
 1421TIP3   OH225677   1.951   2.274   5.172 -0.2876  0.0886  0.4651
 1421TIP3    H125678   1.931   2.183   5.197 -1.9095  0.9879  2.7547
 1421TIP3    H225679   1.879   2.300   5.115 -1.0419  0.5951  1.6171
 1422TIP3   OH225680   0.307   2.095  14.594  0.6160  0.1598  0.4365
 1422TIP3    H125681   0.261   2.064  14.671 -0.7478 -1.1966 -0.8373
 1422TIP3    H225682   0.293   2.189  14.593 -0.1987  0.0587  1.3156
 1423TIP3   OH225683   3.544   4.215   1.248 -0.2132  0.1153  0.6130
 1423TIP3    H125684   3.639   4.227   1.239 -0.4729  2.5675  0.3825
 1423TIP3    H225685   3.520   4.268   1.324 -1.4555 -0.1161  0.4077
 1424TIP3   OH225686   3.237   4.288  11.624  0.3338 -0.1523  0.0338
 1424TIP3    H125687   3.222   4.289  11.718 -0.2831  0.2205 -0.0565
 1424TIP3    H225688   3.258   4.197  11.603 -2.3153 -0.8860  0.1436
 1425TIP3   OH225689   3.136   2.939   1.479  0.0262 -0.1504 -0.0654
 1425TIP3    H125690   3.141   2.912   1.388 -2.1114 -0.4457 -0.1499
 1425TIP3    H225691   3.075   2.877   1.520 -2.6303  2.5734  0.4442
 1426TIP3   OH225692   4.431   5.418  12.942  0.1502 -0.4752  0.4310
 1426TIP3    H125693   4.446   5.489  13.004  1.4534 -0.5058  0.1603
 1426TIP3    H225694   4.424   5.461  12.857 -0.2572 -0.5645  0.4176
 1427TIP3   OH225695   2.624   4.609   5.085 -0.2222  0.7744  0.1124
 1427TIP3    H125696   2.582   4.692   5.108 -0.5037  0.7978 -0.4795
 1427TIP3    H225697   2.672   4.628   5.004 -0.2729  0.3664 -0.0160
 1428TIP3   OH225698   4.440   4.037  15.054 -0.4281 -0.5180 -0.3315
 1428TIP3    H125699   4.464   4.129  15.064 -1.0501 -0.5427  1.7483
 1428TIP3    H225700   4.523   3.994  15.032  0.6675  0.0427  2.3449
 1429TIP3   OH225701   5.321   3.640  11.122 -0.1477 -0.2581 -0.2867
 1429TIP3    H125702   5.297   3.695  11.048  0.0231  0.6594  0.3137
 1429TIP3    H225703   5.262   3.667  11.192 -1.5249 -2.3513 -0.5480
 1430TIP3   OH225704   3.380   6.371  12.019 -0.3813 -0.8421  0.7393
 1430TIP3    H125705   3.470   6.352  11.993  0.6536  0.2185  3.3290
 1430TIP3    H225706   3.379   6.464  12.038 -2.0530 -0.8314  0.7592
 1431TIP3   OH225707   1.106   4.171  15.252  0.0639  0.1420 -0.1015
 1431TIP3    H125708   1.201   4.176  15.241  0.0964 -0.0287  0.0804
 1431TIP3    H225709   1.081   4.091  15.206 -0.0896  0.5613 -0.7552
 1432TIP3   OH225710   1.520   4.992  14.895 -0.1447  0.2911 -0.7633
 1432TIP3    H125711   1.449   5.055  14.886 -1.2404 -0.9097 -0.8415
 1432TIP3    H225712   1.548   4.976  14.805  0.3585  0.8993 -0.7194
 1433TIP3   OH225713   4.939   6.512  12.685 -0.6701 -0.5848  0.1510
 1433TIP3    H125714   4.902   6.594  12.653  0.9030  0.0312 -0.1733
 1433TIP3    H225715   4.868   6.471  12.734 -1.7457  0.5595 -0.4061
 1434TIP3   OH225716   5.710   4.803  15.008 -0.0209  0.1880 -0.7569
 1434TIP3    H125717   5.719   4.749  15.086 -0.2893  0.1530 -0.7502
 1434TIP3    H225718   5.798   4.837  14.992 -0.3112  1.8579  0.7718
 1435TIP3   OH225719   0.686   2.224  17.216  0.0475  0.0319 -0.0420
 1435TIP3    H125720   0.640   2.140  17.223 -0.9190  0.5827  0.4007
 1435TIP3    H225721   0.684   2.244  17.122  0.8837 -0.7499 -0.2454
 1436TIP3   OH225722   1.197   6.074  17.344  0.3655  0.0512 -0.3363
 1436TIP3    H125723   1.256   6.148  17.335  1.5356 -0.3622  2.7125
 1436TIP3    H225724   1.196   6.033  17.258  2.7799  1.3560 -1.0720
 1437TIP3   OH225725   0.201   3.068  14.883  0.4293  0.1876  0.0720
 1437TIP3    H125726   0.283   3.038  14.842  0.3177  2.2892 -1.9057
 1437TIP3    H225727   0.134   3.051  14.817 -0.4125  0.3011  0.8833
 1438TIP3   OH225728   2.248   5.940  11.258  0.4884 -0.0645 -0.1278
 1438TIP3    H125729   2.238   5.852  11.294  0.2173  0.4393  1.0741
 1438TIP3    H225730   2.271   5.926  11.166  4.6361 -1.5501  0.8730
 1439TIP3   OH225731   0.827   5.143  11.069  0.3653  0.0343 -0.2270
 1439TIP3    H125732   0.735   5.148  11.041  0.5525  1.7647 -0.6161
 1439TIP3    H225733   0.874   5.111  10.992  0.3854  1.4020 -0.8162
 1440TIP3   OH225734   2.242   5.370  16.641  0.5474 -0.2389  0.0685
 1440TIP3    H125735   2.312   5.399  16.583  0.2030 -0.9777 -0.7399
 1440TIP3    H225736   2.190   5.310  16.588 -2.7795  2.8449 -0.4925
 1441TIP3   OH225737   5.954   5.206  14.853  0.0985 -0.4276  0.0145
 1441TIP3    H125738   5.986   5.213  14.763  0.4660  1.3564  0.2458
 1441TIP3    H225739   5.888   5.137  14.849 -2.1542  1.6084 -2.3535
 1442TIP3   OH225740   1.002   6.661   4.108 -0.0322  0.2545  0.1338
 1442TIP3    H125741   1.049   6.721   4.050 -0.5455 -0.1633 -0.7380
 1442TIP3    H225742   1.025   6.689   4.196  2.8608 -0.6850 -0.2145
 1443TIP3   OH225743   6.106   3.545   0.211  0.0380  0.4362  0.2705
 1443TIP3    H125744   6.102   3.640   0.197 -0.1822  0.5109  0.8162
 1443TIP3    H225745   6.036   3.510   0.156  1.1157  0.4269 -1.1760
 1444TIP3   OH225746   6.695   0.603   2.498 -0.9701  0.3825  0.1987
 1444TIP3    H125747   6.783   0.585   2.463 -0.4796 -0.4955  1.7702
 1444TIP3    H225748   6.636   0.568   2.432 -0.1947  1.6535 -1.2491
 1445TIP3   OH225749   3.713   4.527   1.241  0.0715  0.2958  0.4578
 1445TIP3    H125750   3.677   4.535   1.329  0.3582 -0.4623  0.6522
 1445TIP3    H225751   3.638   4.536   1.183 -0.1166  0.8072  0.7784
 1446TIP3   OH225752   0.808   5.857   6.530 -0.6382  0.6059  0.0171
 1446TIP3    H125753   0.823   5.916   6.603 -0.3570 -1.2642  1.5424
 1446TIP3    H225754   0.891   5.858   6.481 -0.7504  1.6778 -0.1830
 1447TIP3   OH225755   5.598   5.246  11.427  0.5548  0.9709  0.4431
 1447TIP3    H125756   5.674   5.254  11.370  0.0823  0.0950 -0.3423
 1447TIP3    H225757   5.592   5.152  11.447 -1.6194  0.6392 -1.3960
 1448TIP3   OH225758   1.586   3.684  11.578 -0.5805  0.2882 -0.2296
 1448TIP3    H125759   1.556   3.732  11.655 -1.0329  0.2765 -0.3945
 1448TIP3    H225760   1.591   3.593  11.607 -0.4075  0.3337 -0.1151
 1449TIP3   OH225761   4.756   5.760  14.973 -0.6559  0.2060  0.3742
 1449TIP3    H125762   4.662   5.777  14.961 -0.0782  4.1329  0.1334
 1449TIP3    H225763   4.778   5.806  15.054  1.2943  0.4448 -0.2466
 1450TIP3   OH225764   4.616   2.949  12.256  0.7523  0.4876  0.5139
 1450TIP3    H125765   4.612   3.037  12.293 -1.6028  1.0393 -0.9096
 1450TIP3    H225766   4.685   2.954  12.190  1.2468  0.9895  1.0576
 1451TIP3   OH225767   0.660   1.950  14.309 -0.2548  0.4205  0.1652
 1451TIP3    H125768   0.665   2.014  14.379 -2.1061  0.6495  0.1330
 1451TIP3    H225769   0.638   1.868  14.353  3.0184 -0.5126  0.3252
 1452TIP3   OH225770   5.659   0.972   0.331 -1.0291  0.3448  0.7357
 1452TIP3    H125771   5.749   0.995   0.308  0.4529 -2.0561  3.4488
 1452TIP3    H225772   5.634   1.036   0.397 -1.1430  0.7225  0.3301
 1453TIP3   OH225773   2.515   6.097   3.208 -0.1638  0.0840 -0.1050
 1453TIP3    H125774   2.577   6.038   3.164 -0.4169  1.0403 -1.7952
 1453TIP3    H225775   2.435   6.044   3.218  0.1531 -0.3955 -0.0485
 1454TIP3   OH225776   6.022   4.226   4.039 -0.2325  0.7899 -0.3943
 1454TIP3    H125777   5.981   4.142   4.062  1.3580 -0.2533 -1.1578
 1454TIP3    H225778   5.959   4.268   3.980 -0.4229 -0.5921 -1.2269
 1455TIP3   OH225779   2.637   1.720   1.195 -0.6811 -0.0960  0.4911
 1455TIP3    H125780   2.551   1.711   1.236 -0.8452  0.6246  0.3258
 1455TIP3    H225781   2.698   1.727   1.268 -1.0065  1.5191  0.6587
 1456TIP3   OH225782   5.050   3.450   2.812 -0.2463 -0.4958  0.3097
 1456TIP3    H125783   4.996   3.482   2.739 -0.5897 -0.2842  0.6550
 1456TIP3    H225784   5.084   3.529   2.854  0.1896 -0.6259  0.2011
 1457TIP3   OH225785   0.173   2.038   1.910  0.3166  0.3373 -0.4374
 1457TIP3    H125786   0.083   2.027   1.880  0.8644 -0.2798 -1.9468
 1457TIP3    H225787   0.184   2.132   1.920 -0.9541  0.3492  1.3558
 1458TIP3   OH225788   3.720   5.861   1.790  0.1509  0.4661  0.3686
 1458TIP3    H125789   3.667   5.793   1.833 -0.6655  0.5056 -0.5390
 1458TIP3    H225790   3.794   5.813   1.752 -0.5611  0.0130 -0.4981
 1459TIP3   OH225791   5.212   6.156  12.535 -0.6868 -0.1176 -0.0773
 1459TIP3    H125792   5.148   6.121  12.473 -0.3874 -0.0940 -0.4034
 1459TIP3    H225793   5.179   6.243  12.557 -0.4177  0.1674 -0.7690
 1460TIP3   OH225794   6.214   5.972   0.955  0.2467  0.2423 -0.4331
 1460TIP3    H125795   6.155   6.006   0.889  0.6269 -2.2909 -2.2010
 1460TIP3    H225796   6.234   6.048   1.011 -1.3608  2.0843 -2.2181
 1461TIP3   OH225797   4.561   6.481  13.678 -0.4483  0.3568 -0.3444
 1461TIP3    H125798   4.617   6.558  13.687  0.2324 -0.2331  0.7804
 1461TIP3    H225799   4.475   6.516  13.656 -0.0480  1.4059 -0.3078
 1462TIP3   OH225800   6.545   3.548  13.231  0.1406 -0.0483  0.3512
 1462TIP3    H125801   6.492   3.468  13.239  2.1644 -1.6493 -1.2501
 1462TIP3    H225802   6.507   3.608  13.295 -2.1529 -1.8944  0.8495
 1463TIP3   OH225803   2.772   3.522   2.062 -0.1329 -0.6182 -0.6109
 1463TIP3    H125804   2.722   3.445   2.035  0.2456 -0.7728 -0.8728
 1463TIP3    H225805   2.837   3.534   1.993 -0.4074  0.1366 -0.7459
 1464TIP3   OH225806   1.096   1.056   0.757 -0.1722  0.0950 -0.0553
 1464TIP3    H125807   1.137   1.134   0.720 -0.0026  0.4682  0.8885
 1464TIP3    H225808   1.002   1.071   0.749 -0.1794  1.1648  1.6100
 1465TIP3   OH225809   0.354   0.011  10.491  0.3093 -0.2283 -0.2024
 1465TIP3    H125810   0.399  -0.003  10.575  0.3680  0.5405 -0.0945
 1465TIP3    H225811   0.265  -0.022  10.506  0.5391 -0.8196 -0.0931
 1466TIP3   OH225812   0.559   0.294  12.872  0.0343 -0.5343  0.1953
 1466TIP3    H125813   0.572   0.303  12.966  0.4199 -0.6300  0.1527
 1466TIP3    H225814   0.610   0.217  12.848  0.7468  0.0699 -0.2588
 1467TIP3   OH225815   3.979   6.457  15.424  0.2136  0.5096 -0.2124
 1467TIP3    H125816   3.931   6.539  15.438 -0.4241 -0.0103  0.7211
 1467TIP3    H225817   3.946   6.398  15.492  0.4322 -0.6327 -1.0793
 1468TIP3   OH225818   4.894   5.917  12.062  0.5526  0.1104  0.0552
 1468TIP3    H125819   4.842   5.940  12.139  1.8208  0.1881  0.9208
 1468TIP3    H225820   4.833   5.924  11.989 -0.4158  1.0756  0.9179
 1469TIP3   OH225821   3.081   3.546  12.672  0.0825 -0.1579 -0.4927
 1469TIP3    H125822   2.995   3.556  12.713 -0.2341  2.1737 -1.5628
 1469TIP3    H225823   3.076   3.463  12.625 -0.8713 -0.9958  1.0147
 1470TIP3   OH225824   0.538   6.018  15.606  0.6216  0.1981  0.1100
 1470TIP3    H125825   0.501   6.028  15.518 -2.1547 -1.7103  0.9076
 1470TIP3    H225826   0.537   5.924  15.622  0.5781  0.5244  2.3533
 1471TIP3   OH225827   0.284   1.257  11.538 -0.8373 -0.4616 -0.4670
 1471TIP3    H125828   0.336   1.178  11.555  0.4882  0.5880  0.6992
 1471TIP3    H225829   0.278   1.262  11.443  2.1867 -0.0876 -0.7293
 1472TIP3   OH225830   0.952   0.730   4.721  0.0446  0.4219  0.1194
 1472TIP3    H125831   1.020   0.712   4.656  1.2788 -0.4989  1.5836
 1472TIP3    H225832   0.896   0.652   4.718  0.8620 -0.2259  1.0277
 1473TIP3   OH225833   3.436   4.319   1.518 -0.4856  0.6495 -0.0418
 1473TIP3    H125834   3.427   4.305   1.612 -0.9668 -1.6081 -0.3553
 1473TIP3    H225835   3.365   4.268   1.479  0.2965  0.7373 -1.6687
 1474TIP3   OH225836   5.519   6.390   2.942  0.1968  0.2003 -0.6853
 1474TIP3    H125837   5.596   6.443   2.924 -0.5011  0.7602 -2.1406
 1474TIP3    H225838   5.537   6.305   2.902  0.8733 -0.3660  0.7386
 1475TIP3   OH225839   0.380   4.102  15.490 -0.6538  0.1131  0.5840
 1475TIP3    H125840   0.466   4.142  15.503 -0.0921 -1.1685  0.9501
 1475TIP3    H225841   0.328   4.170  15.447  0.3922  1.0706  0.7983
 1476TIP3   OH225842   4.145   2.954   4.797 -0.2624 -0.7640 -0.5884
 1476TIP3    H125843   4.225   2.904   4.812 -0.8576 -1.6204 -0.1411
 1476TIP3    H225844   4.090   2.934   4.872 -0.8648 -0.1108 -0.8414
 1477TIP3   OH225845   4.208   1.520  12.275 -0.4135  0.5506 -0.3460
 1477TIP3    H125846   4.119   1.553  12.263 -0.8709 -1.0425 -1.7480
 1477TIP3    H225847   4.253   1.546  12.195 -0.4652 -1.1464 -0.9515
 1478TIP3   OH225848   6.173   0.174   3.823  0.1851  0.3235  0.0976
 1478TIP3    H125849   6.111   0.209   3.760  0.6687  1.2551  0.1177
 1478TIP3    H225850   6.122   0.113   3.876 -0.4050  0.1156 -0.6872
 1479TIP3   OH225851   1.720   4.509  14.505  0.2629 -0.4569  0.1849
 1479TIP3    H125852   1.640   4.561  14.510  0.6360  0.3875 -1.7014
 1479TIP3    H225853   1.694   4.427  14.464  0.0692 -0.9010  1.1726
 1480TIP3   OH225854   5.595   1.601  16.059 -0.2685  0.4637  0.0802
 1480TIP3    H125855   5.557   1.537  16.119  0.8245  0.0334  0.3477
 1480TIP3    H225856   5.578   1.686  16.099  1.1867  0.1472  1.4981
 1481TIP3   OH225857   2.437   3.859  12.054  0.7559 -0.3881 -0.7854
 1481TIP3    H125858   2.484   3.788  12.010 -0.6587 -0.6399 -1.9399
 1481TIP3    H225859   2.358   3.819  12.089  1.7131 -0.1521  1.9157
 1482TIP3   OH225860   6.173   5.556  15.159 -0.5353  0.3045 -0.4251
 1482TIP3    H125861   6.267   5.548  15.141 -0.1339 -1.1016  1.8483
 1482TIP3    H225862   6.137   5.470  15.134 -1.2979  0.9232 -1.5351
 1483TIP3   OH225863   4.467   2.314   3.937 -0.1797  0.0694  0.2569
 1483TIP3    H125864   4.525   2.361   3.997  0.5780 -0.4482 -0.0625
 1483TIP3    H225865   4.501   2.224   3.935 -0.1105  0.1084 -1.0539
 1484TIP3   OH225866   6.225   4.400   0.463  0.2940 -0.1028 -0.1824
 1484TIP3    H125867   6.309   4.354   0.457  0.8187  0.5689  1.5258
 1484TIP3    H225868   6.231   4.450   0.544 -1.1575  1.1897 -0.8366
 1485TIP3   OH225869   2.818   1.587  15.635  0.4102 -0.0388 -0.2867
 1485TIP3    H125870   2.748   1.605  15.572 -1.1751  0.3921  1.5221
 1485TIP3    H225871   2.786   1.513  15.686  1.7517 -0.4992 -0.0708
 1486TIP3   OH225872   4.774   6.707  16.832  0.0855 -0.2724  0.0479
 1486TIP3    H125873   4.729   6.679  16.752 -0.2928  0.1516  0.1102
 1486TIP3    H225874   4.857   6.744  16.800 -0.0544 -0.1218 -0.1477
 1487TIP3   OH225875   4.081   3.887   4.579  0.2354 -0.1555 -0.4137
 1487TIP3    H125876   4.147   3.825   4.549  0.7685  0.8591 -1.4428
 1487TIP3    H225877   4.045   3.849   4.659  2.1858 -0.6396  0.2668
 1488TIP3   OH225878   4.885   3.685  10.602 -0.6030  0.5432 -0.1926
 1488TIP3    H125879   4.894   3.611  10.542  1.4968  0.1099  0.5502
 1488TIP3    H225880   4.807   3.665  10.653 -1.6708  0.2626 -1.8494
 1489TIP3   OH225881   4.441   3.288  16.564  0.1887 -0.0446  0.0164
 1489TIP3    H125882   4.421   3.368  16.515 -1.0559 -0.3358  0.0085
 1489TIP3    H225883   4.420   3.217  16.503 -0.5762 -0.3984  0.6825
 1490TIP3   OH225884   1.354   0.538  14.476  0.0889 -0.0061 -0.5476
 1490TIP3    H125885   1.446   0.564  14.467 -0.4012  1.8790 -0.6722
 1490TIP3    H225886   1.319   0.598  14.541 -0.8664 -1.3085  0.1804
 1491TIP3   OH225887   5.804   4.962   2.347  0.2106  0.5028  0.1069
 1491TIP3    H125888   5.832   4.870   2.343  1.3556  0.8691 -0.8815
 1491TIP3    H225889   5.841   5.002   2.268 -0.6307  1.7237  0.3028
 1492TIP3   OH225890   3.825   4.048   6.011  0.3583  0.2508 -0.0086
 1492TIP3    H125891   3.775   4.104   6.070  0.4930  0.1219  0.2281
 1492TIP3    H225892   3.821   3.961   6.051 -0.1015  0.0295 -0.5328
 1493TIP3   OH225893   0.804   2.711   1.430 -0.0780  1.0750  0.7966
 1493TIP3    H125894   0.726   2.656   1.436 -0.1689  1.2972  1.7609
 1493TIP3    H225895   0.844   2.687   1.346 -1.4043  1.2609  0.0886
 1494TIP3   OH225896   5.987   5.425  11.406 -0.0041 -0.0847 -0.2989
 1494TIP3    H125897   5.931   5.366  11.355 -0.3014  0.2114 -0.3206
 1494TIP3    H225898   6.076   5.396  11.388 -0.1787 -1.2771  0.5976
 1495TIP3   OH225899   0.353   0.175  14.373 -0.0653  0.0150 -0.3037
 1495TIP3    H125900   0.371   0.172  14.279  0.1257  0.0565 -0.2681
 1495TIP3    H225901   0.348   0.269  14.393 -2.8230  0.0468 -0.7887
 1496TIP3   OH225902   3.064   0.262   0.334  0.4282  0.1449  0.1100
 1496TIP3    H125903   3.085   0.307   0.253 -0.0141  0.0523 -0.0604
 1496TIP3    H225904   3.068   0.330   0.402  0.4922  0.2847 -0.0355
 1497TIP3   OH225905   4.307   5.688  14.755  0.0246 -0.1219  0.7328
 1497TIP3    H125906   4.278   5.608  14.711 -0.8413 -0.3359  1.6631
 1497TIP3    H225907   4.296   5.757  14.689  0.8022 -0.7513 -0.0855
 1498TIP3   OH225908   5.198   0.355  14.558 -0.4225 -0.1297  0.6342
 1498TIP3    H125909   5.249   0.275  14.543 -0.5699  0.1161 -1.4809
 1498TIP3    H225910   5.136   0.358  14.485  0.3856  2.5246 -0.0632
 1499TIP3   OH225911   3.180   4.552   0.941 -0.2552  0.2828  0.6152
 1499TIP3    H125912   3.118   4.624   0.950 -0.0173  0.4379  1.0285
 1499TIP3    H225913   3.264   4.590   0.966  0.0594  0.1520 -0.1967
 1500TIP3   OH225914   1.410   1.761  16.444  0.3025  0.2783 -0.1470
 1500TIP3    H125915   1.370   1.700  16.382  1.9771 -0.8670 -0.1610
 1500TIP3    H225916   1.342   1.827  16.460 -0.5647  0.0005 -2.3456
 1501TIP3   OH225917   4.195   4.570  12.546 -0.4206 -0.1837  0.2958
 1501TIP3    H125918   4.140   4.543  12.472  0.1982 -0.8410  0.0663
 1501TIP3    H225919   4.249   4.493  12.564  1.0962  0.7534 -0.0888
 1502TIP3   OH225920   2.308   3.392  11.779  0.4485  0.7846 -0.2974
 1502TIP3    H125921   2.335   3.441  11.856 -2.0169  0.0099  1.1455
 1502TIP3    H225922   2.348   3.306  11.790  2.2775  1.4390 -1.3102
 1503TIP3   OH225923   1.187   1.945  15.722 -0.4089 -0.0136 -0.0640
 1503TIP3    H125924   1.154   2.034  15.739  0.7130  0.3609  0.2782
 1503TIP3    H225925   1.136   1.889  15.780  0.1414  0.6616  1.1033
 1504TIP3   OH225926   2.883   6.341   3.350 -0.0696  0.2195  0.2964
 1504TIP3    H125927   2.789   6.327   3.334 -0.0736  0.0649  0.4594
 1504TIP3    H225928   2.906   6.277   3.417  0.5367 -0.9502 -0.9596
 1505TIP3   OH225929   1.029   5.723  12.001  0.3241 -0.1109 -0.6152
 1505TIP3    H125930   1.035   5.629  11.983 -1.4174 -0.1029 -1.3934
 1505TIP3    H225931   1.047   5.730  12.094  2.1700 -1.0038 -0.8508
 1506TIP3   OH225932   5.973   2.018  11.787 -0.1911 -0.1499 -1.0056
 1506TIP3    H125933   5.897   2.037  11.731  0.5123 -0.6577 -2.1445
 1506TIP3    H225934   6.026   1.957  11.737  1.0756  0.3299 -0.2936
 1507TIP3   OH225935   1.206   0.140   2.633 -0.8081 -0.3044 -0.3370
 1507TIP3    H125936   1.167   0.053   2.643 -2.0901  0.3310  0.4254
 1507TIP3    H225937   1.145   0.199   2.678  1.0163  0.7463  0.8450
 1508TIP3   OH225938   5.004   6.422  16.557  0.1367 -0.2381 -0.5472
 1508TIP3    H125939   5.053   6.344  16.584  0.6201  0.7604  1.7239
 1508TIP3    H225940   4.949   6.444  16.633 -1.1908  0.7203 -1.7257
 1509TIP3   OH225941   2.886   1.472   3.263 -0.3488 -0.1229 -0.4194
 1509TIP3    H125942   2.885   1.394   3.208  0.4349 -0.9955  0.7364
 1509TIP3    H225943   2.975   1.507   3.254  0.0908 -0.8048  0.9415
 1510TIP3   OH225944   5.325   3.605   5.198 -0.4026  0.0744 -0.0652
 1510TIP3    H125945   5.411   3.634   5.167 -0.4895  0.9614  0.4699
 1510TIP3    H225946   5.302   3.668   5.267 -1.1978 -0.5279  0.2398
 1511TIP3   OH225947   1.083   2.927   6.662 -0.7501 -0.1068 -0.3063
 1511TIP3    H125948   1.036   2.844   6.659 -0.8505 -0.1050 -3.8973
 1511TIP3    H225949   1.175   2.902   6.672 -1.0330 -0.3397  2.4076
 1512TIP3   OH225950   0.524   1.507   2.909 -0.2129  0.0191  0.2418
 1512TIP3    H125951   0.615   1.497   2.935 -0.3561 -0.3074  0.6339
 1512TIP3    H225952   0.475   1.510   2.992 -0.6874 -1.1337  0.0194
 1513TIP3   OH225953   4.074   4.041  15.558  0.0241  0.2700 -0.4500
 1513TIP3    H125954   4.097   3.948  15.560 -1.9374 -0.2591 -0.6010
 1513TIP3    H225955   4.069   4.063  15.465 -0.7917  0.1889 -0.4242
 1514TIP3   OH225956   6.079   1.063  15.409  0.9220 -0.3439  0.5738
 1514TIP3    H125957   6.083   1.065  15.313  1.7988 -0.3886  0.5950
 1514TIP3    H225958   5.992   1.029  15.429  0.6007 -0.0040 -0.2034
 1515TIP3   OH225959   0.166   1.176   3.385  0.2731  0.3156  0.0091
 1515TIP3    H125960   0.082   1.220   3.369  0.5072  1.4750  1.7101
 1515TIP3    H225961   0.228   1.222   3.328 -0.1763 -0.3702 -1.0578
 1516TIP3   OH225962   4.044   4.729   4.226  0.4122  0.5153  0.1136
 1516TIP3    H125963   4.125   4.764   4.188 -0.3611  0.8632 -1.2859
 1516TIP3    H225964   3.975   4.786   4.192 -0.8904 -2.1204 -2.0636
 1517TIP3   OH225965   2.463   4.938   6.677 -0.0144  0.3813 -0.8189
 1517TIP3    H125966   2.530   4.954   6.743  0.0630 -0.0882 -0.7746
 1517TIP3    H225967   2.383   4.971   6.715  0.0329  0.1223 -0.4896
 1518TIP3   OH225968   4.486   5.530  12.673  0.2129  0.2151 -0.1653
 1518TIP3    H125969   4.430   5.607  12.674 -0.6343 -0.3818 -0.5202
 1518TIP3    H225970   4.575   5.565  12.666  0.0936  1.2790  2.3766
 1519TIP3   OH225971   3.779   1.996   0.033  0.9868 -0.1851  0.2863
 1519TIP3    H125972   3.739   1.928   0.088 -0.9566 -2.2798 -3.3091
 1519TIP3    H225973   3.853   1.952  -0.009  0.0864  0.0018 -1.6120
 1520TIP3   OH225974   6.027   0.038   1.251  0.1225 -0.0565 -0.6488
 1520TIP3    H125975   6.062   0.046   1.163  0.4495  0.7766 -0.4554
 1520TIP3    H225976   5.970  -0.038   1.248  0.1190 -0.0234 -1.5792
 1521TIP3   OH225977   5.829   3.570   5.513 -0.4869  0.7460 -0.1178
 1521TIP3    H125978   5.851   3.535   5.428 -0.1051  0.8447 -0.0601
 1521TIP3    H225979   5.902   3.545   5.570 -1.8119 -1.3670  0.7567
 1522TIP3   OH225980   5.066   5.862   4.288 -0.0175  0.1184  0.0235
 1522TIP3    H125981   5.045   5.790   4.348  1.1038 -0.0741  0.1969
 1522TIP3    H225982   4.989   5.868   4.231 -0.5409 -0.5614  0.6408
 1523TIP3   OH225983   4.204   4.062   5.955  0.0223  0.0728 -0.1430
 1523TIP3    H125984   4.171   4.078   5.867  0.8896  0.5112 -0.3916
 1523TIP3    H225985   4.186   3.969   5.971  3.5731 -1.1688 -2.4000
 1524TIP3   OH225986   4.584   5.077   0.773  0.2733  0.3716  0.6107
 1524TIP3    H125987   4.533   5.151   0.805  0.8609  0.7210  0.7477
 1524TIP3    H225988   4.566   5.075   0.679 -0.7538 -0.1117  0.8080
 1525TIP3   OH225989   6.282   3.367   4.290  0.2439  0.2661  0.4449
 1525TIP3    H125990   6.263   3.273   4.284 -0.8592  0.3166  2.4744
 1525TIP3    H225991   6.367   3.372   4.333  1.6300  0.2137 -2.0710
 1526TIP3   OH225992   6.643   6.101   0.492 -0.0335  0.1389 -0.4022
 1526TIP3    H125993   6.597   6.029   0.535  0.9970  0.2361  0.9527
 1526TIP3    H225994   6.707   6.057   0.436 -1.0805  0.0125 -1.5345
 1527TIP3   OH225995   1.272   1.785  11.781 -0.1045 -0.0660 -0.5584
 1527TIP3    H125996   1.309   1.874  11.784 -1.4173  0.4692  0.4533
 1527TIP3    H225997   1.300   1.751  11.696 -1.3671  2.1316 -1.9527
 1528TIP3   OH225998   4.935   0.755   2.585  0.0863 -0.2138 -0.0952
 1528TIP3    H125999   4.975   0.689   2.527  0.5718  2.8170 -3.5671
 1528TIP3    H226000   5.008   0.792   2.634  0.7346  1.1567 -1.9758
 1529TIP3   OH226001   4.838   2.872   2.592  0.3845 -0.1818  0.7668
 1529TIP3    H126002   4.883   2.954   2.612 -0.0775 -0.4819  3.4227
 1529TIP3    H226003   4.909   2.810   2.574  0.8461  0.2794  0.9554
 1530TIP3   OH226004   5.523   0.146   1.426 -0.0742 -0.1460  0.0068
 1530TIP3    H126005   5.450   0.169   1.483 -1.1352  0.0608 -1.4053
 1530TIP3    H226006   5.521   0.211   1.356  0.7167 -0.8677 -0.7076
 1531TIP3   OH226007   5.065   5.747   3.589  0.0413  0.4240  0.0459
 1531TIP3    H126008   5.075   5.720   3.498 -0.3807 -0.2100  0.1864
 1531TIP3    H226009   5.109   5.832   3.593  0.9030  0.0224 -0.5244
 1532TIP3   OH226010   1.029   6.056   4.807  0.0006  0.6114 -0.3948
 1532TIP3    H126011   0.938   6.037   4.786  0.3164  1.2695 -2.6550
 1532TIP3    H226012   1.079   5.989   4.761  0.6756 -0.5921  1.9425
 1533TIP3   OH226013   5.528   1.709  15.353 -0.0879 -0.2504 -0.1105
 1533TIP3    H126014   5.538   1.676  15.264  0.9192  2.4251 -1.1080
 1533TIP3    H226015   5.612   1.691  15.395  0.9392  1.8859 -1.0565
 1534TIP3   OH226016   2.400   0.984   1.339 -0.2590 -1.0050 -0.1530
 1534TIP3    H126017   2.353   0.973   1.422 -0.2546 -1.5335 -0.2182
 1534TIP3    H226018   2.452   1.064   1.351 -3.0013  1.0505 -0.9522
 1535TIP3   OH226019   3.940   5.400   4.314 -0.6054  0.4477  0.6388
 1535TIP3    H126020   4.022   5.442   4.287  0.5382 -0.2629  2.7523
 1535TIP3    H226021   3.900   5.461   4.375 -1.2057  0.3938  0.3046
 1536TIP3   OH226022   1.034   3.077   6.434  0.2160  0.5389  0.5583
 1536TIP3    H126023   1.044   3.020   6.511 -1.2115 -0.0613  0.3282
 1536TIP3    H226024   1.030   3.016   6.360 -1.4219  0.8961  0.3180
 1537TIP3   OH226025   3.451   3.562  11.102 -0.0446  0.0381  0.0685
 1537TIP3    H126026   3.452   3.603  11.016 -1.3322 -0.3776 -0.1586
 1537TIP3    H226027   3.469   3.470  11.085  2.7512  0.4160  0.5694
 1538TIP3   OH226028   4.987   4.222   3.162 -0.5432  0.4126  0.6844
 1538TIP3    H126029   4.958   4.245   3.073  1.0008  0.7340  0.2283
 1538TIP3    H226030   4.947   4.137   3.179 -0.0992 -0.0995 -0.7101
 1539TIP3   OH226031   0.749   4.609   4.611  0.1956 -0.1503 -0.4480
 1539TIP3    H126032   0.682   4.668   4.646 -1.0121 -1.3309 -0.6622
 1539TIP3    H226033   0.775   4.649   4.528 -1.4213 -0.4295 -1.1432
 1540TIP3   OH226034   1.630   4.076   4.315 -0.2889 -0.1674 -0.2971
 1540TIP3    H126035   1.603   4.164   4.290 -0.0261 -0.4333 -1.6170
 1540TIP3    H226036   1.725   4.083   4.331 -0.6205  0.2301  1.8277
 1541TIP3   OH226037   3.882   3.687  14.946  0.0625 -0.5578  0.4272
 1541TIP3    H126038   3.816   3.717  14.883 -0.5529 -0.1887  1.2276
 1541TIP3    H226039   3.892   3.594  14.929  1.7831 -0.0333 -1.9200
 1542TIP3   OH226040   1.900   0.213  14.533  0.1991  0.3500  0.3217
 1542TIP3    H126041   1.974   0.161  14.501 -0.2081 -0.9645  1.3923
 1542TIP3    H226042   1.867   0.163  14.608  0.3028  2.5984  1.9655
 1543TIP3   OH226043   1.287   1.426   5.753  0.7118 -0.1542 -0.1744
 1543TIP3    H126044   1.288   1.332   5.732 -2.0042 -0.0136 -1.4255
 1543TIP3    H226045   1.368   1.441   5.802  1.9564 -2.8306 -1.2338
 1544TIP3   OH226046   4.068   4.159  16.051 -0.1365  0.1692  0.0280
 1544TIP3    H126047   4.038   4.096  15.986 -1.5932  1.5229 -0.6771
 1544TIP3    H226048   4.109   4.229  16.000 -0.4766  0.8131  0.6137
 1545TIP3   OH226049   1.396   3.916  15.132 -0.0034 -0.1612  0.7724
 1545TIP3    H126050   1.304   3.933  15.111  0.0423 -0.3385  0.4130
 1545TIP3    H226051   1.425   3.996  15.176 -0.0833  0.2721  0.0548
 1546TIP3   OH226052   2.304   6.601   2.741 -0.0247  0.2169 -0.4816
 1546TIP3    H126053   2.398   6.589   2.737 -0.0855 -1.4495  1.3036
 1546TIP3    H226054   2.291   6.678   2.797  0.2876  0.0736 -0.2110
 1547TIP3   OH226055   5.196   4.107  15.886 -0.3006 -0.0896  0.8071
 1547TIP3    H126056   5.166   4.017  15.880 -1.9549  0.4719 -0.0436
 1547TIP3    H226057   5.124   4.154  15.926  0.1173  1.0344  0.2932
 1548TIP3   OH226058   0.736   6.246   4.642 -0.5133  0.1396 -0.4446
 1548TIP3    H126059   0.798   6.261   4.571 -0.7286 -0.5846 -0.7963
 1548TIP3    H226060   0.650   6.246   4.600 -1.0074  3.1608  0.3074
 1549TIP3   OH226061   6.497   3.649  16.390 -0.1582  0.0882 -0.7066
 1549TIP3    H126062   6.480   3.590  16.463 -0.2314  2.1325  1.0528
 1549TIP3    H226063   6.548   3.720  16.429  0.4191  0.9031 -2.8303
 1550TIP3   OH226064   2.679   4.675   3.331 -0.1616  0.0916 -0.3359
 1550TIP3    H126065   2.729   4.723   3.398 -0.4398 -3.0428  2.4088
 1550TIP3    H226066   2.603   4.731   3.314  0.3717  1.4279  1.3156
 1551TIP3   OH226067   6.733   2.654  16.100 -0.2305 -0.7004 -0.3777
 1551TIP3    H126068   6.813   2.681  16.054  0.1303  0.1105  0.6795
 1551TIP3    H226069   6.763   2.628  16.187 -1.0933 -0.6743 -0.0658
 1552TIP3   OH226070   2.119   3.054  14.940 -0.5754  0.1241 -0.4868
 1552TIP3    H126071   2.198   3.033  14.891 -1.0277 -0.4540 -0.9756
 1552TIP3    H226072   2.080   3.127  14.893  0.1244  1.0200  0.2696
 1553TIP3   OH226073   5.818   4.404   5.295 -0.1430 -0.0601  0.8193
 1553TIP3    H126074   5.821   4.385   5.388 -0.6909  1.8616  1.2717
 1553TIP3    H226075   5.732   4.375   5.267 -1.2253  2.1506  1.6360
 1554TIP3   OH226076   0.812   4.303   2.678 -0.0453 -0.3851 -0.3517
 1554TIP3    H126077   0.796   4.349   2.595  0.7982 -0.9401 -0.8284
 1554TIP3    H226078   0.899   4.331   2.705 -0.7754  0.7299  0.9938
 1555TIP3   OH226079   1.612   1.564   3.183 -0.6357 -0.2683 -0.2616
 1555TIP3    H126080   1.691   1.524   3.219 -0.6757 -1.1239 -1.1009
 1555TIP3    H226081   1.616   1.546   3.089  0.8425  4.1715 -1.2781
 1556TIP3   OH226082   6.014   1.980   4.807  0.4788 -0.0757  0.6371
 1556TIP3    H126083   6.001   2.045   4.738 -0.4715  0.4855  1.3210
 1556TIP3    H226084   5.933   1.980   4.856 -0.0883 -2.7642 -0.1067
 1557TIP3   OH226085   0.083   2.379   3.483  0.4969  0.2840 -0.3649
 1557TIP3    H126086   0.063   2.452   3.424  0.1159 -1.0934 -2.0119
 1557TIP3    H226087   0.153   2.412   3.540  1.5687  1.3550 -2.2256
 1558TIP3   OH226088   6.449   1.284   0.603 -0.6688  0.0213  0.2106
 1558TIP3    H126089   6.481   1.217   0.543 -0.5257  0.5099 -0.2734
 1558TIP3    H226090   6.510   1.282   0.676  1.6350  2.1371 -1.4847
 1559TIP3   OH226091   6.711   2.334  16.937 -0.0426  0.1042 -0.0087
 1559TIP3    H126092   6.741   2.266  16.997 -0.0621  0.4458  0.3916
 1559TIP3    H226093   6.645   2.383  16.987  0.0177  0.4571 -0.2678
 1560TIP3   OH226094   2.036   2.717   2.625  0.1401 -0.1722 -0.1678
 1560TIP3    H126095   2.126   2.742   2.645 -0.2546  1.4496 -0.2404
 1560TIP3    H226096   2.033   2.623   2.641  1.6489 -0.1328  0.5537
 1561TIP3   OH226097   4.599   2.526  13.346 -0.4136  0.1444 -0.4222
 1561TIP3    H126098   4.653   2.575  13.408 -0.2436 -1.4159  0.7052
 1561TIP3    H226099   4.658   2.505  13.274  0.0868 -0.2577  0.0985
 1562TIP3   OH226100   3.983   0.037  14.915 -0.6799 -0.6954  0.2968
 1562TIP3    H126101   3.959   0.130  14.917  1.2275 -0.1638  0.6789
 1562TIP3    H226102   3.910  -0.007  14.959 -0.6227  0.8993  2.1439
 1563TIP3   OH226103   4.944   1.478  16.405 -0.3222 -0.1316 -0.7209
 1563TIP3    H126104   4.998   1.555  16.422  0.5772 -0.6987 -0.9462
 1563TIP3    H226105   4.942   1.471  16.309  0.6502 -1.1009 -0.6873
 1564TIP3   OH226106   3.301   3.061   5.214  0.5542  0.1345 -0.2315
 1564TIP3    H126107   3.336   3.011   5.288 -0.0694  0.2891  0.1809
 1564TIP3    H226108   3.302   2.999   5.141  2.7079  0.4607 -0.5427
 1565TIP3   OH226109   0.192   3.161   0.954  0.5861  0.0674  0.3598
 1565TIP3    H126110   0.281   3.136   0.928  0.5788 -0.6789  0.9997
 1565TIP3    H226111   0.146   3.077   0.962 -1.0459  0.4828 -2.8388
 1566TIP3   OH226112   3.054   2.927  12.245 -1.0588  0.3731  0.7072
 1566TIP3    H126113   3.093   2.846  12.277 -0.9523  0.2461  0.2631
 1566TIP3    H226114   3.062   2.988  12.318  0.5524  0.5428  0.4418
 1567TIP3   OH226115   1.828   1.078  12.039 -0.0219  0.8598  0.0330
 1567TIP3    H126116   1.884   1.056  12.113 -0.4735  2.6694  0.9518
 1567TIP3    H226117   1.828   1.173  12.035 -0.4631  0.8402 -1.9643
 1568TIP3   OH226118   4.160   4.662  15.970 -0.2795  0.1135  0.0243
 1568TIP3    H126119   4.177   4.695  15.882  0.7093 -1.4929 -0.4304
 1568TIP3    H226120   4.064   4.658  15.976 -0.3715  0.8775 -0.7099
 1569TIP3   OH226121   5.147   0.044   5.627  0.3298  0.1033  0.0366
 1569TIP3    H126122   5.167   0.095   5.705  2.4438 -0.0128 -0.3687
 1569TIP3    H226123   5.124   0.109   5.561 -0.0315  0.3021  0.3543
 1570TIP3   OH226124   0.745   2.289  11.657 -0.4633 -0.1147  0.0641
 1570TIP3    H126125   0.767   2.239  11.578  0.9235 -2.4390  1.7950
 1570TIP3    H226126   0.726   2.223  11.723 -1.0463  1.7336  1.8624
 1571TIP3   OH226127   5.761   0.794   3.010  0.2548  0.2303 -1.4863
 1571TIP3    H126128   5.752   0.717   2.953 -1.0242  0.5278 -1.7109
 1571TIP3    H226129   5.674   0.806   3.047  1.6610 -2.0461  3.3337
 1572TIP3   OH226130   2.492   4.745  16.150 -0.3722  0.2594 -0.3804
 1572TIP3    H126131   2.489   4.691  16.071 -1.1447  0.8811 -0.7922
 1572TIP3    H226132   2.406   4.786  16.155 -0.5033 -0.1330  1.0632
 1573TIP3   OH226133   0.386   2.276   0.007 -0.9733  0.7215  0.0713
 1573TIP3    H126134   0.330   2.235   0.073  0.1673 -1.0470  0.0173
 1573TIP3    H226135   0.391   2.211  -0.063 -0.0407  1.4648 -0.5650
 1574TIP3   OH226136   4.147   5.435   4.072 -0.5249  0.4764  0.7621
 1574TIP3    H126137   4.137   5.530   4.060  0.0372  0.4423  0.0120
 1574TIP3    H226138   4.094   5.396   4.002 -1.3602  0.2137  1.5161
 1575TIP3   OH226139   4.590   2.989  15.313  0.0570  0.0552 -0.7518
 1575TIP3    H126140   4.668   2.993  15.368 -0.9221  0.7863  0.6498
 1575TIP3    H226141   4.534   3.060  15.346 -0.4941  0.6548 -2.8394
 1576TIP3   OH226142   2.080   5.074  15.653 -0.5456 -0.0211  0.2530
 1576TIP3    H126143   2.083   5.154  15.600  0.0010 -0.0566  0.2278
 1576TIP3    H226144   2.172   5.048  15.663 -0.6799 -0.2962  0.7955
 1577TIP3   OH226145   4.182   5.188   0.058  0.1930 -0.5612 -0.2041
 1577TIP3    H126146   4.131   5.239  -0.006 -0.3803 -0.2065  0.5169
 1577TIP3    H226147   4.198   5.105   0.014 -2.7172 -1.4710  0.2112
 1578TIP3   OH226148   5.028   3.150   1.187 -0.4870 -0.5377 -0.3907
 1578TIP3    H126149   4.959   3.202   1.144  1.0706  1.0296 -1.1089
 1578TIP3    H226150   5.057   3.205   1.260 -0.5345 -1.5650  0.4340
 1579TIP3   OH226151   1.976   3.875  14.508  0.0445 -0.2633 -0.5311
 1579TIP3    H126152   1.952   3.947  14.567 -2.8716 -1.7492  0.3342
 1579TIP3    H226153   2.039   3.823  14.559  0.0497  0.2181 -0.0323
 1580TIP3   OH226154   1.793   3.290   3.021  0.4270  0.1727  0.1564
 1580TIP3    H126155   1.764   3.355   2.957 -0.7246 -0.9764 -0.5280
 1580TIP3    H226156   1.794   3.337   3.105  0.7079  1.3526 -0.4931
 1581TIP3   OH226157   1.368   0.283  13.725  0.4910 -0.0255 -0.3632
 1581TIP3    H126158   1.304   0.250  13.788  1.0047 -1.5420 -0.6031
 1581TIP3    H226159   1.329   0.265  13.639  0.3895  0.8189 -0.5065
 1582TIP3   OH226160   3.701   3.123  14.729 -0.0654 -0.6326 -0.7025
 1582TIP3    H126161   3.613   3.162  14.727  0.3123  0.3043  0.1832
 1582TIP3    H226162   3.696   3.050  14.667 -1.6468 -0.9767 -0.2205
 1583TIP3   OH226163   3.550   1.202   0.093  0.1699  0.0908  0.3008
 1583TIP3    H126164   3.590   1.266   0.152 -0.7756 -0.4312  1.5760
 1583TIP3    H226165   3.468   1.243   0.065  0.4944  0.2302 -0.4646
 1584TIP3   OH226166   2.258   2.344   6.314  0.1413  0.2689  0.3449
 1584TIP3    H126167   2.252   2.250   6.299  1.1857  0.1460  0.6442
 1584TIP3    H226168   2.352   2.362   6.320 -0.0183  1.4186 -0.2434
 1585TIP3   OH226169   4.043   4.103   1.227  0.0735 -0.0546  0.5197
 1585TIP3    H126170   3.999   4.165   1.169  0.7215 -0.1009 -0.0333
 1585TIP3    H226171   4.080   4.037   1.168  0.3251 -0.3707  1.0214
 1586TIP3   OH226172   2.450   4.021   1.838  0.1003 -0.3734  0.4288
 1586TIP3    H126173   2.427   4.074   1.914  0.4939 -1.2168  1.1517
 1586TIP3    H226174   2.487   4.083   1.776  1.2420  0.1012  1.5495
 1587TIP3   OH226175   0.959   3.228  16.039  0.1300  0.0081 -0.9125
 1587TIP3    H126176   1.035   3.206  16.093 -1.2304 -1.7160  0.3988
 1587TIP3    H226177   0.982   3.195  15.951  1.7881  1.5954 -1.1428
 1588TIP3   OH226178   5.081   0.210   5.369  0.7956 -0.0403  0.2146
 1588TIP3    H126179   5.079   0.132   5.313  0.6616  0.5920 -0.6908
 1588TIP3    H226180   5.107   0.281   5.310 -1.7929  1.1114  0.3293
 1589TIP3   OH226181   4.227   3.615   3.830  0.5448  0.1479 -0.5163
 1589TIP3    H126182   4.228   3.526   3.795  1.7114 -0.4507  0.9016
 1589TIP3    H226183   4.272   3.668   3.765  0.6934 -0.4934 -0.9399
 1590TIP3   OH226184   4.124   2.718   3.797 -0.1462 -0.4100  0.6721
 1590TIP3    H126185   4.160   2.789   3.851 -3.6102  1.8543  0.3570
 1590TIP3    H226186   4.049   2.686   3.846 -1.1045 -0.9743 -1.0627
 1591TIP3   OH226187   1.119   6.235  11.373 -0.0089  0.4945  0.0436
 1591TIP3    H126188   1.056   6.199  11.310  1.9976 -2.3394 -0.5135
 1591TIP3    H226189   1.116   6.174  11.447  1.4909  0.7875  0.3652
 1592TIP3   OH226190   1.995   6.027  15.027 -0.3045 -0.4723 -0.0514
 1592TIP3    H126191   2.065   6.041  15.090 -0.1082  0.9365 -0.5389
 1592TIP3    H226192   2.025   5.953  14.974  1.3169  0.6781 -0.8614
 1593TIP3   OH226193   1.275   1.956  15.245 -0.1597 -0.1553  0.4004
 1593TIP3    H126194   1.253   1.863  15.244 -0.1648 -0.1666 -1.3263
 1593TIP3    H226195   1.308   1.974  15.156 -0.5448  1.5750  0.5767
 1594TIP3   OH226196   3.134   1.704  12.513  0.3559  0.2435  0.4257
 1594TIP3    H126197   3.129   1.787  12.560 -0.7570 -0.4667  1.6420
 1594TIP3    H226198   3.058   1.705  12.454 -1.6931 -1.2368  2.8461
 1595TIP3   OH226199   3.443   1.852   5.865 -0.1913 -0.0313 -0.1568
 1595TIP3    H126200   3.514   1.909   5.834  1.0005 -0.4444  1.6473
 1595TIP3    H226201   3.427   1.792   5.793  1.0948  0.2712 -0.7288
 1596TIP3   OH226202   0.968   5.256  16.591 -0.2417 -0.3047  0.2292
 1596TIP3    H126203   0.948   5.199  16.517  0.1546  2.9942 -2.6907
 1596TIP3    H226204   1.054   5.294  16.570 -0.9005  2.0673  1.4111
 1597TIP3   OH226205   4.015   0.721  12.063  0.1221 -0.8700  0.0151
 1597TIP3    H126206   4.065   0.652  12.106 -0.2657 -0.9613  0.3220
 1597TIP3    H226207   3.969   0.676  11.991  0.8274 -0.7043 -0.5510
 1598TIP3   OH226208   5.219   2.475  12.443 -0.2014 -0.5452 -0.1297
 1598TIP3    H126209   5.310   2.503  12.441 -0.2753 -0.0767  1.3823
 1598TIP3    H226210   5.210   2.428  12.526 -1.2837 -0.7842 -0.3638
 1599TIP3   OH226211   3.523   6.078  15.867 -0.0046 -0.0487 -0.0133
 1599TIP3    H126212   3.514   6.140  15.939 -0.1817 -1.3617  1.1254
 1599TIP3    H226213   3.453   6.101  15.807  0.0880  1.0056  0.2648
 1600TIP3   OH226214   4.961   1.419  14.616  0.0617  0.2954 -0.0996
 1600TIP3    H126215   4.881   1.380  14.651  0.9769 -0.7310  0.9244
 1600TIP3    H226216   4.991   1.478  14.686  0.2473  0.6159 -0.4452
 1601TIP3   OH226217   4.406   4.690   3.383  0.8118 -0.1255 -0.0718
 1601TIP3    H126218   4.358   4.633   3.443  0.4633  0.9443  0.6856
 1601TIP3    H226219   4.498   4.666   3.396  0.6606 -0.5962  0.1436
 1602TIP3   OH226220   1.273   0.779  12.056  1.0033  0.0932 -0.2393
 1602TIP3    H126221   1.333   0.792  12.130  0.2940 -0.3025  0.4123
 1602TIP3    H226222   1.266   0.684  12.048 -2.2534 -0.0123  1.9848
 1603TIP3   OH226223   2.273   3.721  11.309 -0.1906 -0.4200  0.4642
 1603TIP3    H126224   2.293   3.713  11.402 -1.2494  1.5613  0.9134
 1603TIP3    H226225   2.182   3.693  11.301 -0.4185  0.3680  0.2081
 1604TIP3   OH226226   0.523   3.093  14.578 -0.2029 -0.2906 -0.1421
 1604TIP3    H126227   0.556   3.037  14.507  1.6858  1.9149 -1.1112
 1604TIP3    H226228   0.600   3.120  14.626 -1.1067  1.0568  0.6147
 1605TIP3   OH226229   0.837   2.410  11.400 -0.6743 -0.0868  0.1630
 1605TIP3    H126230   0.807   2.397  11.310  0.3553  2.0438 -0.5443
 1605TIP3    H226231   0.913   2.352  11.409 -1.2591 -0.9059 -0.0494
 1606TIP3   OH226232   1.839   1.262   1.338  0.2193  0.2795  0.1235
 1606TIP3    H126233   1.898   1.192   1.309  0.4922  1.0569 -1.3165
 1606TIP3    H226234   1.896   1.326   1.380  0.0973  0.0614  0.6253
 1607TIP3   OH226235   4.737   3.053   1.170 -0.2262 -0.2468 -0.0754
 1607TIP3    H126236   4.738   2.968   1.126  2.1509  0.5105 -1.7179
 1607TIP3    H226237   4.828   3.068   1.195 -0.6941  1.5699  0.6684
 1608TIP3   OH226238   0.356   2.302  16.205 -0.0091 -0.6249 -0.4711
 1608TIP3    H126239   0.292   2.280  16.273  0.0682  0.5909  0.0178
 1608TIP3    H226240   0.317   2.268  16.124 -1.2056 -0.0451 -0.1578
 1609TIP3   OH226241   2.603   2.920  17.211  0.4219 -0.2141 -0.0536
 1609TIP3    H126242   2.615   2.825  17.209  2.0997 -0.0231 -1.1299
 1609TIP3    H226243   2.604   2.942  17.304 -1.7786 -1.4000  0.3118
 1610TIP3   OH226244   5.665   1.668  12.770  0.5238  0.2155  0.1237
 1610TIP3    H126245   5.700   1.725  12.702 -0.1046 -0.2212 -0.5867
 1610TIP3    H226246   5.643   1.587  12.724  2.2090 -0.9505  1.2538
 1611TIP3   OH226247   5.426   3.545  14.362 -0.1937  0.4399  0.6545
 1611TIP3    H126248   5.406   3.509  14.276 -0.5733 -0.5063  1.1295
 1611TIP3    H226249   5.459   3.634  14.344 -2.1737  1.0261 -0.3219
 1612TIP3   OH226250   6.428   3.919  13.154 -0.0073 -0.2854  0.7195
 1612TIP3    H126251   6.381   3.836  13.155  0.7579 -0.8471  4.3951
 1612TIP3    H226252   6.518   3.896  13.134  0.2411 -0.4405  1.9192
 1613TIP3   OH226253   3.345   2.201   6.716 -0.2275 -0.3504 -0.3173
 1613TIP3    H126254   3.316   2.214   6.626  2.2010 -1.1126 -1.2890
 1613TIP3    H226255   3.441   2.196   6.710 -0.0047 -0.5719  2.2920
 1614TIP3   OH226256   6.304   3.827   0.867 -0.0671  0.0567 -0.3050
 1614TIP3    H126257   6.263   3.911   0.848  1.1631  0.3283 -2.0121
 1614TIP3    H226258   6.296   3.778   0.785 -0.7121 -1.4964  0.6438
 1615TIP3   OH226259   1.980   3.879   0.926 -0.3697  0.0948  0.0680
 1615TIP3    H126260   1.989   3.799   0.873  0.7165  0.7956 -0.8456
 1615TIP3    H226261   2.056   3.878   0.984 -0.4252  0.4001  0.1456
 1616TIP3   OH226262   1.991   5.609   2.478  0.3777  1.2197  0.5315
 1616TIP3    H126263   2.050   5.641   2.547  0.1997  1.5844  0.5192
 1616TIP3    H226264   1.905   5.642   2.504  0.3743  1.6861 -0.0730
 1617TIP3   OH226265   5.570   0.307   5.162 -0.2017  0.0859  0.5248
 1617TIP3    H126266   5.654   0.345   5.136  0.7614 -2.5670 -0.6342
 1617TIP3    H226267   5.588   0.263   5.245 -0.6456  0.1730  0.6655
 1618TIP3   OH226268   2.268   0.175  16.655  0.1803 -0.4358 -0.2105
 1618TIP3    H126269   2.362   0.184  16.637  0.3520  0.4591  1.0407
 1618TIP3    H226270   2.253   0.227  16.734 -1.4127 -0.4148 -0.4916
 1619TIP3   OH226271   6.537   4.514  15.755  0.2212 -0.0305  0.4827
 1619TIP3    H126272   6.621   4.508  15.799 -0.3615  0.7391  1.7567
 1619TIP3    H226273   6.473   4.487  15.821 -0.5857  0.0051 -0.2608
 1620TIP3   OH226274   5.976   0.042   4.967 -0.3443 -0.0567 -0.3112
 1620TIP3    H126275   5.883   0.063   4.973 -0.4339 -0.6820  0.6420
 1620TIP3    H226276   6.020   0.113   5.013 -0.4702 -0.6071  0.6736
 1621TIP3   OH226277   4.257   2.159   3.438  0.0265  0.1467 -0.0959
 1621TIP3    H126278   4.302   2.099   3.378 -0.6052  0.6963 -1.1490
 1621TIP3    H226279   4.309   2.156   3.518  0.8585 -0.6632 -0.6440
 1622TIP3   OH226280   6.400   4.121   5.382  0.6197  0.0320  0.1984
 1622TIP3    H126281   6.445   4.043   5.351 -0.7457 -0.9806  0.6891
 1622TIP3    H226282   6.444   4.194   5.338  0.4768 -1.1529 -2.0041
 1623TIP3   OH226283   3.155   4.531   4.207 -0.4101  0.3734  0.0808
 1623TIP3    H126284   3.076   4.542   4.154  0.3318 -0.6702 -1.2940
 1623TIP3    H226285   3.138   4.452   4.258 -0.1994  0.0672 -0.3219
 1624TIP3   OH226286   3.177   5.780  14.872  0.2268  0.3054  0.2554
 1624TIP3    H126287   3.175   5.686  14.852  0.9241  0.5121 -0.8873
 1624TIP3    H226288   3.092   5.798  14.912  0.4176 -0.9726  1.3243
 1625TIP3   OH226289   1.340   3.788  15.405  0.6387 -0.2393  0.4156
 1625TIP3    H126290   1.256   3.762  15.442  0.5002 -0.0865  0.2104
 1625TIP3    H226291   1.318   3.840  15.327  0.9092  0.5071  0.8231
 1626TIP3   OH226292   3.602   5.828   0.550  1.2063  0.1032 -0.2752
 1626TIP3    H126293   3.595   5.918   0.582  0.8844 -0.4248  1.2076
 1626TIP3    H226294   3.681   5.794   0.591  0.8838 -0.5401 -0.1738
 1627TIP3   OH226295   1.531   3.526  12.687  0.0632  0.1009 -0.7022
 1627TIP3    H126296   1.502   3.469  12.758 -2.0547  0.3783 -1.2805
 1627TIP3    H226297   1.467   3.597  12.684  1.9566  1.9139 -0.7916
 1628TIP3   OH226298   2.564   5.875  16.089  1.1209 -0.6984 -0.4922
 1628TIP3    H126299   2.538   5.807  16.028  2.3098 -0.5402 -1.1887
 1628TIP3    H226300   2.571   5.954  16.035  1.7574 -0.4658 -0.0770
 1629TIP3   OH226301   2.429   6.396   2.371  0.3270 -0.3858  0.1705
 1629TIP3    H126302   2.487   6.464   2.404  1.1726 -0.9112 -0.1936
 1629TIP3    H226303   2.394   6.431   2.289  0.8998 -0.4621 -0.1069
 1630TIP3   OH226304   1.405   5.999   1.619  0.0926 -0.1676  0.1034
 1630TIP3    H126305   1.356   5.968   1.696  0.4772 -2.0973 -0.3808
 1630TIP3    H226306   1.457   5.924   1.591  0.8437  0.8427 -1.3778
 1631TIP3   OH226307   0.279   2.683  11.554 -0.2932  0.3972 -0.3610
 1631TIP3    H126308   0.225   2.703  11.631  0.8087 -0.9067  0.8248
 1631TIP3    H226309   0.246   2.599  11.523  2.0974 -1.4074  1.5343
 1632TIP3   OH226310   5.393   4.708   1.724 -0.0207  0.0905  0.1043
 1632TIP3    H126311   5.408   4.615   1.741  0.0484  0.2680  1.0569
 1632TIP3    H226312   5.304   4.724   1.755 -0.7526 -0.0571 -1.7986
 1633TIP3   OH226313   3.877   6.541   3.843  0.2971 -0.6456 -0.4700
 1633TIP3    H126314   3.949   6.513   3.786 -1.1719 -2.2160 -1.6387
 1633TIP3    H226315   3.867   6.470   3.906 -0.1591 -0.3883 -0.2465
 1634TIP3   OH226316   4.883   6.617  14.173 -0.2124 -0.0183  0.0316
 1634TIP3    H126317   4.890   6.543  14.233 -0.3111 -1.1675 -1.3432
 1634TIP3    H226318   4.974   6.640  14.153 -0.1835 -0.0884  0.0819
 1635TIP3   OH226319   0.576   3.940  16.814  0.6655  0.0991 -0.3821
 1635TIP3    H126320   0.599   3.887  16.738  0.7149  0.8762 -0.9158
 1635TIP3    H226321   0.495   3.983  16.790  2.0845  2.5586 -1.1612
 1636TIP3   OH226322   1.039   1.393   3.213 -0.4437  0.4042 -0.3350
 1636TIP3    H126323   1.075   1.481   3.203 -3.7575  1.9364 -0.1652
 1636TIP3    H226324   1.075   1.362   3.296 -0.9546  2.6041  0.7914
 1637TIP3   OH226325   6.637   3.381   5.209 -0.0863  0.0369  0.1400
 1637TIP3    H126326   6.557   3.330   5.217 -0.4838  0.8799  2.1870
 1637TIP3    H226327   6.673   3.356   5.124 -2.6240 -0.2070 -0.9567
 1638TIP3   OH226328   2.973   1.241  12.006 -0.2813  0.2486  0.2643
 1638TIP3    H126329   2.995   1.148  12.010  0.4105  0.4018  0.1646
 1638TIP3    H226330   3.004   1.269  11.920  1.1109  0.9549  0.9634
 1639TIP3   OH226331   5.139   0.327   0.148 -0.1717 -0.1771  0.2043
 1639TIP3    H126332   5.169   0.243   0.181  0.8974  0.2950  0.4861
 1639TIP3    H226333   5.185   0.338   0.065  0.6935  0.6928  0.7803
 1640TIP3   OH226334   2.845   5.134  15.632 -0.1169  0.1184  0.0821
 1640TIP3    H126335   2.885   5.052  15.660  0.0931  0.6584  1.4597
 1640TIP3    H226336   2.918   5.190  15.608 -0.0259  0.8692  1.9422
 1641TIP3   OH226337   3.911   3.747  15.503  0.1275 -0.4748 -0.7204
 1641TIP3    H126338   3.908   3.785  15.415  1.4947 -0.3300 -0.7277
 1641TIP3    H226339   3.991   3.696  15.504  1.1224  0.9816  1.0042
 1642TIP3   OH226340   2.792   5.665  13.853 -0.5911  0.0936  0.0076
 1642TIP3    H126341   2.719   5.606  13.832  0.5796 -0.9344 -1.3589
 1642TIP3    H226342   2.810   5.711  13.771  1.3346 -0.8639 -0.1527
 1643TIP3   OH226343   1.885   1.204   6.805  0.4746 -0.1608  0.7870
 1643TIP3    H126344   1.803   1.213   6.758  1.4353  1.0792 -0.7306
 1643TIP3    H226345   1.887   1.112   6.833 -1.2615 -0.2811  0.5963
 1644TIP3   OH226346   2.681   5.879   2.795 -0.4679  0.7513 -0.3902
 1644TIP3    H126347   2.667   5.898   2.703 -0.5628  0.0180 -0.5345
 1644TIP3    H226348   2.744   5.807   2.796  1.4847  2.3608  0.1892
 1645TIP3   OH226349   6.549   0.743   6.395 -0.3004 -0.1229  0.3969
 1645TIP3    H126350   6.506   0.828   6.388 -2.6703 -1.3891 -2.0061
 1645TIP3    H226351   6.628   0.751   6.341 -2.0880 -0.2514 -2.4239
 1646TIP3   OH226352   6.683   1.187   6.187 -0.3537 -0.2796  0.1446
 1646TIP3    H126353   6.678   1.282   6.194  0.2315 -0.1419 -1.0265
 1646TIP3    H226354   6.707   1.158   6.275  0.5071  0.7500  0.2759
 1647TIP3   OH226355   2.629   4.362   1.864  0.0843  0.1173 -0.1092
 1647TIP3    H126356   2.691   4.309   1.814  0.9990 -0.9006  1.9895
 1647TIP3    H226357   2.601   4.305   1.936  0.7835  2.2936  2.0080
 1648TIP3   OH226358   5.418   4.061   4.806  0.5450  0.2676  0.2527
 1648TIP3    H126359   5.347   4.003   4.835  0.1497 -1.6713 -3.8110
 1648TIP3    H226360   5.375   4.125   4.750  1.6199  1.3813  0.6673
 1649TIP3   OH226361   3.255   4.588   2.351 -0.4950  0.3932 -0.7059
 1649TIP3    H126362   3.337   4.634   2.370  0.1876 -0.1202 -2.2191
 1649TIP3    H226363   3.283   4.505   2.313 -1.6940 -1.3349  1.9325
 1650TIP3   OH226364   5.400   3.073   1.252  0.0340  0.1581  0.4608
 1650TIP3    H126365   5.372   3.158   1.218  1.6943  0.9112  0.9102
 1650TIP3    H226366   5.365   3.070   1.341  1.3067  1.0726  1.0069
 1651TIP3   OH226367   1.263   0.094  10.846  0.5590 -0.3552  0.2492
 1651TIP3    H126368   1.309   0.098  10.930  0.1399 -1.4553  0.5452
 1651TIP3    H226369   1.172   0.117  10.868  0.3573 -1.0629  0.1827
 1652TIP3   OH226370   6.341   5.377   6.267 -0.7897 -0.0686  0.2662
 1652TIP3    H126371   6.265   5.325   6.295 -0.9987  0.1114  0.0343
 1652TIP3    H226372   6.321   5.466   6.296 -2.7884  0.9990 -3.5754
 1653TIP3   OH226373   1.685   0.203  11.685 -0.0658 -0.3503  0.2565
 1653TIP3    H126374   1.737   0.237  11.758 -1.1380  0.6179  0.6113
 1653TIP3    H226375   1.740   0.137  11.644  0.2230 -1.5923  2.5042
 1654TIP3   OH226376   1.764   2.129   3.353 -0.4407 -0.1882  0.1364
 1654TIP3    H126377   1.668   2.130   3.346 -0.3245  0.2167 -2.6936
 1654TIP3    H226378   1.794   2.169   3.271  2.1664  0.5272  1.3454
 1655TIP3   OH226379   3.031   5.162   1.476 -0.0382  0.1083 -0.2620
 1655TIP3    H126380   3.084   5.230   1.519 -0.2294  0.2023 -0.1714
 1655TIP3    H226381   3.033   5.088   1.536 -1.1128  0.5834  0.3811
 1656TIP3   OH226382   0.787   1.699  15.826 -0.4320  0.4538  0.0163
 1656TIP3    H126383   0.733   1.620  15.831 -0.9981  0.8920  1.2162
 1656TIP3    H226384   0.877   1.668  15.836 -0.7102  0.0390  1.3909
 1657TIP3   OH226385   5.458   2.154  11.127 -0.2746 -0.1685  0.7979
 1657TIP3    H126386   5.526   2.107  11.176  1.3128  0.4541 -0.6758
 1657TIP3    H226387   5.502   2.233  11.095 -1.2347 -0.4799 -1.4729
 1658TIP3   OH226388   2.549   1.195   1.449  0.5485 -0.5164 -0.0879
 1658TIP3    H126389   2.620   1.223   1.506  0.5719 -1.5897  0.4382
 1658TIP3    H226390   2.469   1.219   1.496  0.5576  0.2018 -0.4307
 1659TIP3   OH226391   6.752   4.651  15.414  0.0671 -0.4895  0.1314
 1659TIP3    H126392   6.816   4.599  15.365  0.2879 -0.6629  0.6049
 1659TIP3    H226393   6.788   4.740  15.414 -0.3935 -0.2806 -0.8262
 1660TIP3   OH226394   0.573   5.261  12.560 -0.0920 -0.1297  0.3753
 1660TIP3    H126395   0.538   5.198  12.497 -0.8694  0.0172  0.6486
 1660TIP3    H226396   0.555   5.222  12.645  2.5094 -1.1684  0.5343
 1661TIP3   OH226397   5.505   0.732  12.528  0.7350  0.5801 -0.1004
 1661TIP3    H126398   5.446   0.702  12.597  1.3455  0.9040  0.5794
 1661TIP3    H226399   5.491   0.671  12.456  2.4853 -1.8727  1.4798
 1662TIP3   OH226400   2.283   4.890   0.121 -0.0900 -0.2085 -0.1345
 1662TIP3    H126401   2.267   4.907   0.214  2.0835 -1.4687  0.5530
 1662TIP3    H226402   2.374   4.860   0.118  0.1771  0.6485 -2.8072
 1663TIP3   OH226403   5.300   5.150   3.567 -0.0051  0.0270 -0.2356
 1663TIP3    H126404   5.213   5.188   3.574  0.2992  0.7210 -0.1666
 1663TIP3    H226405   5.344   5.176   3.648 -0.4947 -2.3333  0.8886
 1664TIP3   OH226406   2.188   2.933   4.980 -0.4228  0.4267  0.3449
 1664TIP3    H126407   2.252   3.005   4.978 -1.1239  1.0627  0.2487
 1664TIP3    H226408   2.108   2.974   5.014 -0.7674 -0.3681  0.4979
 1665TIP3   OH226409   6.368   0.831   5.692  0.1774 -0.2073  0.0808
 1665TIP3    H126410   6.360   0.762   5.758  0.7935 -1.4567 -1.1092
 1665TIP3    H226411   6.284   0.829   5.646  0.0542  0.1034  0.2893
 1666TIP3   OH226412   1.794   3.260   4.504 -0.4972  0.0913 -0.2090
 1666TIP3    H126413   1.725   3.284   4.566 -0.1031  0.3606  0.1323
 1666TIP3    H226414   1.819   3.171   4.527  0.9350  0.8143  1.2523
 1667TIP3   OH226415   1.983   0.804   5.073  0.0913 -0.1741  0.1620
 1667TIP3    H126416   2.065   0.826   5.029  0.0263  0.9114  0.5382
 1667TIP3    H226417   1.928   0.767   5.005  0.3083  0.6492 -0.4824
 1668TIP3   OH226418   2.584   4.771   2.819 -0.1431  0.6584  0.0272
 1668TIP3    H126419   2.498   4.811   2.810 -0.1038  0.6465 -0.4120
 1668TIP3    H226420   2.633   4.832   2.874 -0.6526  0.3157  0.8940
 1669TIP3   OH226421   4.494   6.067  14.835 -0.4929 -0.2205 -0.4435
 1669TIP3    H126422   4.403   6.098  14.837 -0.7108 -0.8377  1.7844
 1669TIP3    H226423   4.489   5.977  14.867  0.9868  0.0172  0.5148
 1670TIP3   OH226424   5.475   2.819  11.467 -0.5942  0.5224  0.0014
 1670TIP3    H126425   5.551   2.787  11.419  0.1358  1.1779  0.6967
 1670TIP3    H226426   5.472   2.913  11.447 -1.5263  0.4078 -0.4275
 1671TIP3   OH226427   1.281   5.899   3.763  0.2065 -0.2290  0.5665
 1671TIP3    H126428   1.223   5.973   3.746 -0.4463 -0.5425  1.3350
 1671TIP3    H226429   1.278   5.888   3.859  2.5372  0.5527  0.7815
 1672TIP3   OH226430   0.827   4.861  17.160  0.7217  0.0220 -0.0663
 1672TIP3    H126431   0.810   4.805  17.085 -3.0271  0.6004  0.1637
 1672TIP3    H226432   0.834   4.800  17.234  2.3572 -0.4148 -0.5485
 1673TIP3   OH226433   5.733   4.626  15.217 -0.1395 -0.3416  0.1062
 1673TIP3    H126434   5.812   4.574  15.230  0.6033  1.2809  2.9761
 1673TIP3    H226435   5.664   4.561  15.202  1.3891 -1.8909 -0.5452
 1674TIP3   OH226436   3.565   6.701  12.440 -0.4500 -0.3856 -0.3012
 1674TIP3    H126437   3.563   6.749  12.357 -0.8697 -1.0325 -0.6700
 1674TIP3    H226438   3.477   6.714  12.477 -0.5325 -0.7933 -0.3562
 1675TIP3   OH226439   4.486   0.200   1.337 -0.6729 -0.0376 -0.5329
 1675TIP3    H126440   4.438   0.117   1.349 -0.9308  0.1779 -0.0483
 1675TIP3    H226441   4.490   0.238   1.425 -0.0597  0.1959 -0.6598
 1676TIP3   OH226442   6.101   3.561   4.230 -0.1050  0.1138 -0.1496
 1676TIP3    H126443   6.146   3.640   4.258  0.7649  0.0732 -1.3667
 1676TIP3    H226444   6.159   3.489   4.257 -1.7735 -0.3110  2.7001
 1677TIP3   OH226445   2.535   3.145  14.140  0.0928 -0.1150 -0.1295
 1677TIP3    H126446   2.486   3.214  14.095 -1.3200 -0.6605  0.4932
 1677TIP3    H226447   2.606   3.191  14.185 -1.3027  1.0898  0.9593
 1678TIP3   OH226448   3.573   1.062   4.454 -0.5174  0.4351 -0.4692
 1678TIP3    H126449   3.653   1.057   4.402 -0.1004 -0.3663  0.2165
 1678TIP3    H226450   3.583   0.992   4.519 -2.0227 -0.0371 -0.7164
 1679TIP3   OH226451   4.645   3.048   2.899  0.1861 -0.2113 -0.2463
 1679TIP3    H126452   4.700   3.121   2.871  0.3372 -0.1867  0.0985
 1679TIP3    H226453   4.696   3.005   2.968 -0.4884  0.1806  0.5155
 1680TIP3   OH226454   0.160   6.470   1.106 -0.0630 -0.1280  0.1449
 1680TIP3    H126455   0.085   6.429   1.064  0.3767  0.2925 -1.1361
 1680TIP3    H226456   0.137   6.477   1.198 -1.1083 -1.0517 -0.0337
 1681TIP3   OH226457   3.735   1.456   5.524 -0.3149  0.7028  0.3376
 1681TIP3    H126458   3.719   1.473   5.431  1.0591  1.3473  0.1884
 1681TIP3    H226459   3.647   1.453   5.563 -0.8741  2.0896 -0.7037
 1682TIP3   OH226460   5.551   3.031   4.085  0.3154 -0.3864  0.2020
 1682TIP3    H126461   5.603   3.111   4.093  1.1439 -0.9855  1.1529
 1682TIP3    H226462   5.542   3.000   4.176  0.1112 -1.4211 -0.1582
 1683TIP3   OH226463   0.036   3.842   1.732 -0.0465 -0.2753 -0.2237
 1683TIP3    H126464  -0.037   3.800   1.777  0.5509 -1.9706 -0.7699
 1683TIP3    H226465   0.062   3.780   1.664  0.0863  1.5135 -1.9192
 1684TIP3   OH226466   1.113   1.420   2.772  0.4603 -0.0351 -0.4351
 1684TIP3    H126467   1.042   1.379   2.822  2.0875 -0.4975  1.6176
 1684TIP3    H226468   1.125   1.363   2.696 -2.3147  0.8731 -1.6722
 1685TIP3   OH226469   5.640   0.972  17.271 -0.0523  0.1566 -0.6125
 1685TIP3    H126470   5.699   1.027  17.322 -0.3392  1.4479 -1.6130
 1685TIP3    H226471   5.619   1.025  17.194 -1.5539 -0.7503 -0.8712
 1686TIP3   OH226472   4.970   0.315  15.568 -1.0366  0.2976 -0.3160
 1686TIP3    H126473   4.888   0.267  15.572 -0.9873  0.1105 -1.2732
 1686TIP3    H226474   4.950   0.401  15.605 -1.0984 -0.4637  1.4981
 1687TIP3   OH226475   3.720   4.698  16.584  0.3522 -0.1053  0.8370
 1687TIP3    H126476   3.751   4.680  16.672  1.0881  1.0023  0.8370
 1687TIP3    H226477   3.762   4.781  16.561 -0.1554 -0.1672 -0.3937
 1688TIP3   OH226478   0.399   0.250   3.496  0.1473 -0.5982  0.1348
 1688TIP3    H126479   0.481   0.284   3.462 -0.7809  1.4829 -0.1593
 1688TIP3    H226480   0.417   0.232   3.589  0.8910 -0.0309  0.1070
 1689TIP3   OH226481   4.151   2.470  13.031  0.6762  0.1084  0.1185
 1689TIP3    H126482   4.147   2.376  13.013  0.9288 -0.3388  2.1540
 1689TIP3    H226483   4.070   2.490  13.077  0.2700  1.0687 -0.9733
 1690TIP3   OH226484   2.759   5.400  17.137  0.1817  0.3553 -0.5385
 1690TIP3    H126485   2.752   5.309  17.163  0.3666  0.7157  0.8327
 1690TIP3    H226486   2.690   5.412  17.072 -2.4844  0.1736  2.0471
 1691TIP3   OH226487   1.318   4.545   4.653 -0.1571  0.0331 -0.2666
 1691TIP3    H126488   1.351   4.626   4.693 -0.3024  0.9310 -1.8761
 1691TIP3    H226489   1.228   4.538   4.686 -0.1400  0.5094 -0.0956
 1692TIP3   OH226490   5.344   1.053   5.504 -0.1635  0.1092 -0.0671
 1692TIP3    H126491   5.344   0.962   5.535  1.1687 -0.2039 -0.9040
 1692TIP3    H226492   5.320   1.046   5.411  0.6121  0.5390 -0.3033
 1693TIP3   OH226493   6.517   3.175   3.236 -0.0930  0.2557  0.0710
 1693TIP3    H126494   6.503   3.226   3.316  0.6506 -0.1912  0.4990
 1693TIP3    H226495   6.611   3.157   3.235 -0.2723 -0.7236 -0.3149
 1694TIP3   OH226496   3.393   0.164  16.285  0.1955  0.0871 -0.3295
 1694TIP3    H126497   3.315   0.119  16.255 -1.1007  2.1235 -0.1664
 1694TIP3    H226498   3.399   0.242  16.230  2.0775  0.0269 -0.2829
 1695TIP3   OH226499   5.579   0.825   6.189 -0.1417  0.0157 -0.1572
 1695TIP3    H126500   5.647   0.892   6.181 -0.9018  0.7671 -0.3564
 1695TIP3    H226501   5.501   0.864   6.151 -0.2224 -1.5519 -1.7846
 1696TIP3   OH226502   0.297   1.429  11.001  0.1590 -0.3890  0.0873
 1696TIP3    H126503   0.296   1.508  11.055  0.0372 -0.7505  0.6275
 1696TIP3    H226504   0.348   1.453  10.923  0.8641 -0.0325  0.6405
 1697TIP3   OH226505   5.369   4.754   0.849  0.1093 -0.0327  0.4826
 1697TIP3    H126506   5.347   4.681   0.791  1.9428  0.3867 -0.8205
 1697TIP3    H226507   5.382   4.712   0.935  1.3756 -1.3209 -0.2880
 1698TIP3   OH226508   5.699   2.964   2.147 -0.4880  0.1700 -0.8032
 1698TIP3    H126509   5.712   2.933   2.057 -0.3381 -2.0079 -0.1020
 1698TIP3    H226510   5.667   2.886   2.194  0.4480  0.9659  1.2552
 1699TIP3   OH226511   6.113   2.218   6.018  0.3662  0.5877  0.5070
 1699TIP3    H126512   6.061   2.174   5.950 -3.2592  0.8761  2.8001
 1699TIP3    H226513   6.189   2.161   6.031  0.6325 -0.0169 -2.9324
 1700TIP3   OH226514   1.989   0.827  14.764 -0.4503  0.2949 -0.1999
 1700TIP3    H126515   2.067   0.809  14.816 -0.3257  1.0887 -0.0871
 1700TIP3    H226516   1.927   0.759  14.789 -0.6310  1.0224  1.5177
 1701TIP3   OH226517   3.774   0.838   0.768  0.4352  0.1109 -0.7661
 1701TIP3    H126518   3.785   0.768   0.704  0.5675  0.3867 -1.0501
 1701TIP3    H226519   3.841   0.903   0.744  0.6305  0.1159 -0.2115
 1702TIP3   OH226520   2.017   2.462   2.723 -0.3074  0.3503 -0.1526
 1702TIP3    H126521   2.028   2.369   2.707  1.1710  0.0958  1.9318
 1702TIP3    H226522   1.929   2.470   2.761  0.1022 -0.4341  1.0142
 1703TIP3   OH226523   4.249   5.398   1.650  0.0895 -0.0358 -0.4795
 1703TIP3    H126524   4.280   5.333   1.587 -0.1099 -0.3043 -0.2978
 1703TIP3    H226525   4.162   5.422   1.618  0.6698  1.0919 -1.2802
 1704TIP3   OH226526   3.807   3.128  16.103 -0.2210 -0.4603  0.3880
 1704TIP3    H126527   3.825   3.084  16.020 -2.6111 -1.9722  0.5732
 1704TIP3    H226528   3.732   3.185  16.085 -0.8095 -0.8496  1.5044
 1705TIP3   OH226529   4.580   2.526   2.616  0.9766  0.3628  0.0887
 1705TIP3    H126530   4.636   2.503   2.542  1.0465  1.4536 -0.2085
 1705TIP3    H226531   4.641   2.556   2.684  1.0693 -2.2363  1.2548
 1706TIP3   OH226532   1.293   4.555  14.815  0.0905  0.5192 -0.0391
 1706TIP3    H126533   1.272   4.602  14.896 -0.9921  0.6161 -0.3711
 1706TIP3    H226534   1.233   4.480  14.815  1.8473 -0.9616  0.5315
 1707TIP3   OH226535   2.928   6.035   4.859  0.2603 -0.4532 -0.3805
 1707TIP3    H126536   2.833   6.026   4.852 -0.2832  0.3597  3.5330
 1707TIP3    H226537   2.957   5.955   4.902  0.7711  0.6570  1.4554
 1708TIP3   OH226538   5.784   3.205  13.050  0.6686  1.0967  0.1002
 1708TIP3    H126539   5.697   3.202  13.009  0.4871 -0.9634  0.5449
 1708TIP3    H226540   5.844   3.174  12.981  0.8115  0.8247  0.3457
 1709TIP3   OH226541   1.012   0.457   3.038  0.8672 -0.0105  0.9828
 1709TIP3    H126542   0.995   0.363   3.039 -0.7727  0.2091 -0.5718
 1709TIP3    H226543   0.928   0.497   3.060  1.4933  1.0974  1.4268
 1710TIP3   OH226544   3.560   6.126  14.709 -0.1188  0.1012  0.5970
 1710TIP3    H126545   3.467   6.147  14.721 -0.5614 -1.2143 -0.2397
 1710TIP3    H226546   3.559   6.052  14.649  1.6446  2.5291 -2.7114
 1711TIP3   OH226547   5.451   5.818  12.383 -0.1402 -0.5065  0.4620
 1711TIP3    H126548   5.386   5.826  12.452  0.0885  0.5514  0.5629
 1711TIP3    H226549   5.450   5.725  12.360  0.3180 -1.0298  2.3865
 1712TIP3   OH226550   3.865   3.999   0.796  0.6014 -0.0623  0.0763
 1712TIP3    H126551   3.870   4.094   0.789 -1.3750  0.0018 -1.5628
 1712TIP3    H226552   3.827   3.971   0.712  0.6445 -2.2428  0.7274
 1713TIP3   OH226553   2.439   0.574  16.578  0.4696  0.4267  0.7532
 1713TIP3    H126554   2.394   0.612  16.502  2.7472  1.4059 -0.2052
 1713TIP3    H226555   2.383   0.596  16.653 -0.1496  2.5102 -0.2470
 1714TIP3   OH226556   3.673   0.370  12.924  0.4461 -0.7435 -0.4616
 1714TIP3    H126557   3.670   0.465  12.936  2.1744 -0.6849 -0.2528
 1714TIP3    H226558   3.583   0.341  12.938  0.0614  0.7576  0.3996
 1715TIP3   OH226559   3.846   3.140  12.041  0.1383 -0.2172  0.0149
 1715TIP3    H126560   3.794   3.220  12.054  2.2513  0.9625  2.0384
 1715TIP3    H226561   3.937   3.170  12.048  1.0118 -2.7882  0.7256
 1716TIP3   OH226562   2.015   1.692   4.612  0.1746 -0.1960  0.0803
 1716TIP3    H126563   1.975   1.641   4.542 -0.8547  2.1124 -1.1092
 1716TIP3    H226564   2.105   1.661   4.617 -0.4830 -2.3015 -0.3528
 1717TIP3   OH226565   2.043   2.190   2.960  0.1108 -0.5407  0.1185
 1717TIP3    H126566   1.997   2.213   3.041  0.1120 -2.0413  0.5770
 1717TIP3    H226567   2.033   2.095   2.953  1.7044 -0.6865 -0.6613
 1718TIP3   OH226568   5.622   0.788  13.282 -0.3014 -0.2425 -0.4333
 1718TIP3    H126569   5.654   0.753  13.198  0.4504  0.1275 -0.3072
 1718TIP3    H226570   5.527   0.787  13.273 -0.2353  1.3868 -1.9791
 1719TIP3   OH226571   4.264   4.646  13.822  0.2056  0.3253 -0.7586
 1719TIP3    H126572   4.321   4.722  13.827 -1.1759  1.3106  1.1983
 1719TIP3    H226573   4.314   4.575  13.863  0.6108  0.7779 -0.4575
 1720TIP3   OH226574   0.941   3.368  17.265  0.1783  0.1709  0.1129
 1720TIP3    H126575   0.932   3.280  17.301  0.9686  0.4508  1.0411
 1720TIP3    H226576   0.989   3.417  17.332 -1.4471  1.6976  0.2483
 1721TIP3   OH226577   6.681   1.414   6.356 -0.4760  0.2842 -0.1584
 1721TIP3    H126578   6.723   1.487   6.400 -0.5159 -0.3926  1.0414
 1721TIP3    H226579   6.720   1.336   6.396 -0.0155 -0.3650 -1.8009
 1722TIP3   OH226580   2.206   5.756   4.670 -0.2118  0.0444 -0.2208
 1722TIP3    H126581   2.169   5.830   4.621  0.4667  1.1269  0.8334
 1722TIP3    H226582   2.283   5.792   4.713 -0.2147 -1.1272  0.8270
 1723TIP3   OH226583   5.178   5.901   0.588  0.3659 -0.2939  0.5840
 1723TIP3    H126584   5.273   5.912   0.583  0.2000  0.6174 -1.5902
 1723TIP3    H226585   5.143   5.989   0.572 -0.8369 -0.9916 -0.9266
 1724TIP3   OH226586   6.594   1.435   2.005  0.0530 -0.1937  0.1823
 1724TIP3    H126587   6.599   1.508   2.066  1.9778 -0.6005  0.5554
 1724TIP3    H226588   6.632   1.361   2.052  0.9390 -0.6822 -1.2500
 1725TIP3   OH226589   2.607   0.417   5.691  0.0858  0.2168  0.5228
 1725TIP3    H126590   2.623   0.480   5.621 -0.5734 -2.1327 -1.8867
 1725TIP3    H226591   2.524   0.444   5.730 -0.0323  0.9928 -0.2529
 1726TIP3   OH226592   2.449   6.636   0.668  0.6001 -0.2961 -0.5279
 1726TIP3    H126593   2.361   6.617   0.700  0.9517  0.6208  1.0826
 1726TIP3    H226594   2.491   6.550   0.660  0.3886 -0.6085  1.2516
 1727TIP3   OH226595   5.102   3.963   4.461 -0.3562 -0.1724  0.3804
 1727TIP3    H126596   5.015   3.933   4.485 -1.0349  0.0962 -1.5409
 1727TIP3    H226597   5.160   3.889   4.480 -1.1831 -0.7624  0.6305
 1728TIP3   OH226598   0.056   5.974   5.875  0.4612  0.2453  0.2331
 1728TIP3    H126599   0.085   6.049   5.823 -0.2217 -1.2170 -2.4880
 1728TIP3    H226600  -0.037   5.964   5.851  1.0725 -2.7778 -1.4131
 1729TIP3   OH226601   5.594   2.233  12.534  0.0374  0.3298 -0.2851
 1729TIP3    H126602   5.677   2.229  12.485  1.0360  2.6556  1.0603
 1729TIP3    H226603   5.530   2.266  12.471  0.3575 -0.4361 -1.0365
 1730TIP3   OH226604   2.364   2.331  13.015  0.4308 -0.1472 -0.1281
 1730TIP3    H126605   2.356   2.261  13.080  0.3162  0.2283  0.2678
 1730TIP3    H226606   2.280   2.330  12.969  0.4447 -0.2986 -0.1523
 1731TIP3   OH226607   3.216   4.558  11.178 -0.5709  0.4296 -0.1413
 1731TIP3    H126608   3.272   4.509  11.239 -0.5464  0.6787  0.0372
 1731TIP3    H226609   3.147   4.496  11.155  0.9538 -0.6933 -2.1126
 1732TIP3   OH226610   0.232   6.010   3.228 -0.7033 -0.2136 -0.1169
 1732TIP3    H126611   0.152   5.979   3.185 -1.8331 -0.1995  1.8597
 1732TIP3    H226612   0.253   5.942   3.291  1.6546 -0.8393 -1.4856
 1733TIP3   OH226613   4.452   5.002  15.944  0.7951 -0.7947 -0.2752
 1733TIP3    H126614   4.379   5.016  15.884  0.2091 -0.0639  0.5654
 1733TIP3    H226615   4.488   5.090  15.959  1.6514 -1.1065 -0.4245
 1734TIP3   OH226616   3.076   3.200  15.960  0.1893  0.0090  0.3486
 1734TIP3    H126617   3.127   3.280  15.951 -0.5001  0.5912  1.3777
 1734TIP3    H226618   3.135   3.130  15.932  0.3757  0.9591 -1.8051
 1735TIP3   OH226619   0.088   4.870  12.188 -0.0572 -0.5627  0.2462
 1735TIP3    H126620   0.126   4.783  12.179  0.3057 -0.6135  1.9754
 1735TIP3    H226621  -0.003   4.854  12.212  0.2822 -0.5160  1.6715
 1736TIP3   OH226622   5.399   2.086   1.497  0.1967  0.5806  0.4034
 1736TIP3    H126623   5.305   2.072   1.489  0.5895 -1.7780 -0.6876
 1736TIP3    H226624   5.436   2.000   1.517  2.3348  0.9866 -1.3681
 1737TIP3   OH226625   2.209   5.751  12.100  0.1529  0.3658 -0.5249
 1737TIP3    H126626   2.223   5.781  12.010  0.4181  0.5985 -0.4088
 1737TIP3    H226627   2.286   5.698  12.119 -0.1078 -0.0367 -0.5785
 1738TIP3   OH226628   2.752   6.404   4.458 -0.1908 -0.1873 -0.5169
 1738TIP3    H126629   2.822   6.341   4.440  1.1126  0.5001  1.6837
 1738TIP3    H226630   2.745   6.406   4.554 -3.0933 -0.0224 -0.6302
 1739TIP3   OH226631   5.549   2.736   5.368 -0.3595  0.2381 -0.3777
 1739TIP3    H126632   5.590   2.779   5.444  0.6184 -0.3355 -0.5653
 1739TIP3    H226633   5.545   2.805   5.301  1.1179  0.0865 -0.6479
 1740TIP3   OH226634   5.967   6.341  14.025  0.4545  0.4239  0.2014
 1740TIP3    H126635   6.061   6.331  14.011  0.1556  0.5683 -2.3939
 1740TIP3    H226636   5.927   6.318  13.941 -2.0279 -1.6022  1.7751
 1741TIP3   OH226637   6.246   1.984  16.881 -0.8792 -0.3751 -0.1422
 1741TIP3    H126638   6.305   1.925  16.834 -2.7091 -1.0762 -1.6921
 1741TIP3    H226639   6.254   2.067  16.834 -3.0799 -1.2060 -2.2006
 1742TIP3   OH226640   4.862   0.094   3.690 -0.4292  0.1044 -0.2193
 1742TIP3    H126641   4.896   0.162   3.748  0.0646  0.4320 -0.8736
 1742TIP3    H226642   4.873   0.013   3.739  0.5240  0.3069 -0.0735
 1743TIP3   OH226643   1.011   1.755  11.366  0.0630  0.2228  0.6775
 1743TIP3    H126644   1.086   1.762  11.307 -0.4852  0.8424  0.0293
 1743TIP3    H226645   1.017   1.667  11.401  0.6867  0.0085  0.0805
 1744TIP3   OH226646   2.023   1.709   0.004  0.5776 -0.0011 -0.0244
 1744TIP3    H126647   2.013   1.623   0.043  0.7519 -0.5061 -1.0530
 1744TIP3    H226648   2.109   1.707  -0.038  0.9179  0.9488  0.5823
 1745TIP3   OH226649   0.640   3.027   3.895 -0.5349  0.1079  0.0592
 1745TIP3    H126650   0.684   3.067   3.970 -0.2973  1.5287 -0.8163
 1745TIP3    H226651   0.690   2.946   3.879 -0.0235  0.2562  0.8465
 1746TIP3   OH226652   5.833   4.292   1.696 -0.3975 -0.1301 -0.4161
 1746TIP3    H126653   5.885   4.294   1.776  0.0807  1.1518 -0.7272
 1746TIP3    H226654   5.772   4.365   1.706 -2.2223 -1.6389 -0.0352
 1747TIP3   OH226655   5.818   6.347  13.782 -0.5221 -0.5351  0.4588
 1747TIP3    H126656   5.902   6.344  13.738 -0.5666  0.2817  0.3058
 1747TIP3    H226657   5.774   6.266  13.756  0.8156 -1.7418  1.7719
 1748TIP3   OH226658   2.168   0.652  13.716  0.0177 -0.0481  0.4390
 1748TIP3    H126659   2.138   0.638  13.805  0.9254 -1.9607  0.4938
 1748TIP3    H226660   2.263   0.657  13.723 -0.0081  2.4048 -0.1472
 1749TIP3   OH226661   0.070   2.925   6.271  0.7107 -0.3513 -0.1732
 1749TIP3    H126662   0.153   2.903   6.312 -0.0368 -1.8336  0.5950
 1749TIP3    H226663   0.031   2.990   6.329  0.4919 -1.0553  0.4714
 1750TIP3   OH226664   6.318   0.482  12.089  0.0521 -0.1964  0.3141
 1750TIP3    H126665   6.257   0.437  12.031 -0.2046 -1.6220  1.6146
 1750TIP3    H226666   6.315   0.432  12.171  2.8373 -0.2199  0.5093
 1751TIP3   OH226667   1.822   6.468   4.235 -0.0718  0.1170  0.2403
 1751TIP3    H126668   1.908   6.433   4.257  0.4803  0.6618 -0.9493
 1751TIP3    H226669   1.772   6.462   4.316  1.7805  1.8379  1.6043
 1752TIP3   OH226670   3.857   3.373   4.438 -0.0503  0.1164 -0.1970
 1752TIP3    H126671   3.951   3.389   4.446  0.2080 -0.5205 -1.6045
 1752TIP3    H226672   3.819   3.414   4.515  1.1903  1.9615 -0.4984
 1753TIP3   OH226673   1.261   6.574  11.814 -0.3744  0.0594 -0.3696
 1753TIP3    H126674   1.184   6.518  11.822  0.2050 -0.6584  0.3271
 1753TIP3    H226675   1.287   6.593  11.904  1.1020 -0.9049 -0.5601
 1754TIP3   OH226676   5.587   0.209  15.574  0.3746 -0.0317  0.1391
 1754TIP3    H126677   5.561   0.164  15.655  2.4906 -0.9013  0.3924
 1754TIP3    H226678   5.628   0.142  15.521 -0.4808  0.6589 -1.4671
 1755TIP3   OH226679   6.083   1.465  14.800  0.2207 -0.0461 -0.2056
 1755TIP3    H126680   6.095   1.478  14.894 -0.1630 -1.0122 -0.0036
 1755TIP3    H226681   6.048   1.547  14.768 -0.8619 -0.1147  0.7316
 1756TIP3   OH226682   2.556   2.853   3.195 -0.0065  0.1793 -0.1805
 1756TIP3    H126683   2.537   2.920   3.129 -1.6853 -0.4432 -0.3855
 1756TIP3    H226684   2.475   2.802   3.200 -0.1037  0.4614  2.6843
 1757TIP3   OH226685   5.702   0.275  11.760  0.3588 -0.4757 -0.9362
 1757TIP3    H126686   5.694   0.370  11.755 -0.0796 -0.5448 -1.7885
 1757TIP3    H226687   5.747   0.258  11.843 -2.6724  0.3161  1.0378
 1758TIP3   OH226688   2.963   1.466   0.137 -0.0180  0.3952 -0.1360
 1758TIP3    H126689   3.058   1.477   0.135 -0.1257  1.3684 -1.5999
 1758TIP3    H226690   2.950   1.379   0.174  1.4944 -0.2522 -1.0093
 1759TIP3   OH226691   4.706   5.488   0.724 -0.0728 -0.4044  0.1588
 1759TIP3    H126692   4.783   5.542   0.742  0.1640 -0.2984 -1.0640
 1759TIP3    H226693   4.635   5.551   0.711  0.2197 -0.3444 -1.3455
 1760TIP3   OH226694   4.455   0.756   0.904  0.4025  1.2902  0.5953
 1760TIP3    H126695   4.402   0.801   0.839  1.5866  0.8218 -0.7466
 1760TIP3    H226696   4.421   0.667   0.906  3.1983 -0.0784 -2.9016
 1761TIP3   OH226697   1.851   4.664   4.512  0.7431  0.0970 -0.2406
 1761TIP3    H126698   1.835   4.626   4.425 -0.7044 -0.2931  0.1851
 1761TIP3    H226699   1.903   4.597   4.557 -1.0979 -1.1020  0.2208
 1762TIP3   OH226700   0.090   1.587  13.655 -0.0757 -0.2247  0.4330
 1762TIP3    H126701   0.088   1.493  13.635 -0.0045 -0.0726 -0.3074
 1762TIP3    H226702   0.145   1.593  13.733 -0.6058 -0.8636  0.8713
 1763TIP3   OH226703   4.114   5.537  15.866 -0.0474 -0.4118  0.3398
 1763TIP3    H126704   4.156   5.451  15.876 -0.5823 -0.7311 -0.1487
 1763TIP3    H226705   4.072   5.554  15.951 -0.1935 -0.7669  0.3369
 1764TIP3   OH226706   4.896   1.131   4.606  0.6095  0.3569 -0.4342
 1764TIP3    H126707   4.848   1.211   4.583 -0.1324 -0.1840 -0.8268
 1764TIP3    H226708   4.907   1.136   4.701  1.1968  1.2595 -0.5352
 1765TIP3   OH226709   2.706   0.739   5.927  0.1956  0.0281  0.0005
 1765TIP3    H126710   2.775   0.776   5.982  1.2779 -0.9040 -0.7050
 1765TIP3    H226711   2.731   0.648   5.913 -0.3005  0.1047 -1.6405
 1766TIP3   OH226712   1.149   2.974   2.861  0.2314 -0.7007  0.3272
 1766TIP3    H126713   1.173   2.957   2.771  1.3634  0.2524  0.4241
 1766TIP3    H226714   1.114   3.063   2.860  0.6610 -0.5190  0.8913
 1767TIP3   OH226715   4.979   5.368   5.739 -0.0652 -0.3376 -0.1794
 1767TIP3    H126716   4.906   5.324   5.695  0.2391  0.0967 -1.1440
 1767TIP3    H226717   5.049   5.302   5.738 -0.1592 -0.4405 -0.0613
 1768TIP3   OH226718   1.718   3.287  14.815 -1.3482 -0.0540  0.5514
 1768TIP3    H126719   1.626   3.294  14.790 -0.6356 -0.3675 -2.4444
 1768TIP3    H226720   1.745   3.200  14.784  0.2271  0.4483  0.4398
 1769TIP3   OH226721   2.005   1.783  15.611 -0.2343  0.5543  0.0334
 1769TIP3    H126722   1.932   1.825  15.564 -0.4674 -0.9449 -1.0087
 1769TIP3    H226723   2.077   1.783  15.548 -1.4815 -4.5002 -1.8812
 1770TIP3   OH226724   4.234   4.911   0.202 -0.0384  0.3210  0.2891
 1770TIP3    H126725   4.142   4.930   0.185  0.0397 -0.6832 -1.5438
 1770TIP3    H226726   4.235   4.819   0.230  0.6416 -0.9893 -3.4704
 1771TIP3   OH226727   4.659   3.952  16.765  1.0629  0.1200 -0.3206
 1771TIP3    H126728   4.640   4.031  16.816  0.5118 -0.1731 -0.0692
 1771TIP3    H226729   4.600   3.886  16.800  1.4004 -0.3613 -0.6523
 1772TIP3   OH226730   4.768   0.627  14.864 -0.1790 -0.1070  0.3049
 1772TIP3    H126731   4.776   0.701  14.924  3.3093 -0.3881  0.3765
 1772TIP3    H226732   4.736   0.666  14.782 -0.2491  1.1084  0.8854
 1773TIP3   OH226733   1.366   0.185   1.861  0.5138  0.5517 -0.4395
 1773TIP3    H126734   1.297   0.140   1.813 -1.2804  0.8371  1.7165
 1773TIP3    H226735   1.361   0.276   1.830  1.0410  0.2591 -1.4350
 1774TIP3   OH226736   3.356   5.002   1.185  0.2387 -0.1483 -0.2933
 1774TIP3    H126737   3.302   5.066   1.231 -2.8933 -3.5887  1.3085
 1774TIP3    H226738   3.409   4.962   1.254 -0.5136 -1.6718 -0.5579
 1775TIP3   OH226739   3.036   3.959  13.658 -0.7785 -0.8060  0.4412
 1775TIP3    H126740   2.988   4.016  13.598  3.3419 -0.0522 -2.6025
 1775TIP3    H226741   3.046   4.012  13.737 -1.8450  0.4211 -0.1946
 1776TIP3   OH226742   4.864   6.644  11.475 -0.1562 -0.6365 -0.4162
 1776TIP3    H126743   4.924   6.575  11.447 -1.1560 -0.8609 -2.1633
 1776TIP3    H226744   4.818   6.670  11.395 -0.9191  0.9633  0.4943
 1777TIP3   OH226745   3.313   1.560  15.743  0.4884  0.4884 -0.2880
 1777TIP3    H126746   3.236   1.595  15.699 -0.5717 -0.0334  1.0971
 1777TIP3    H226747   3.376   1.544  15.672 -0.5023  1.3164 -1.3907
 1778TIP3   OH226748   2.763   4.498   5.301  0.4747  0.7391 -0.1338
 1778TIP3    H126749   2.789   4.409   5.281 -1.4004  0.2072 -0.4601
 1778TIP3    H226750   2.713   4.527   5.224  0.6338  1.8769  0.1704
 1779TIP3   OH226751   1.777   0.079   5.504 -0.1743 -0.3061 -0.3046
 1779TIP3    H126752   1.712   0.149   5.496 -1.3221 -1.4214 -1.2136
 1779TIP3    H226753   1.812   0.069   5.415  2.2272  1.1245  0.3902
 1780TIP3   OH226754   0.159   4.346  11.973 -0.4806 -0.3149  0.5974
 1780TIP3    H126755   0.190   4.256  11.972 -2.3548 -1.0638 -2.0325
 1780TIP3    H226756   0.066   4.340  11.992 -0.4445  1.1891  1.3989
 1781TIP3   OH226757   0.980   3.432  15.549 -0.3105  0.3641  0.2065
 1781TIP3    H126758   0.951   3.506  15.602 -1.5230  0.2702 -0.2830
 1781TIP3    H226759   0.910   3.367  15.558 -0.2481  0.1027 -0.9905
 1782TIP3   OH226760   2.991   5.816  12.074  0.4820  0.3961  0.3607
 1782TIP3    H126761   2.959   5.865  11.998  0.4036 -1.4068 -0.8158
 1782TIP3    H226762   2.917   5.761  12.100  0.7797  0.3966  1.2449
 1783TIP3   OH226763   3.997   5.929  11.163 -0.0450  0.3339 -0.2689
 1783TIP3    H126764   4.019   5.837  11.176  1.3844  0.6461 -0.3448
 1783TIP3    H226765   4.030   5.950  11.075  0.6871  1.1977  0.1886
 1784TIP3   OH226766   2.980   0.133   2.442  0.0434  0.0763 -0.1048
 1784TIP3    H126767   2.930   0.203   2.485  1.1757  1.7123 -1.2904
 1784TIP3    H226768   3.070   0.166   2.441  0.9579 -2.1913  0.7932
 1785TIP3   OH226769   0.456   6.674   1.482  0.7051 -0.2597  0.3908
 1785TIP3    H126770   0.509   6.685   1.403 -1.8286 -2.1402 -1.7749
 1785TIP3    H226771   0.513   6.700   1.554  3.7153 -0.0299 -1.9122
 1786TIP3   OH226772   6.359   5.495  13.271  0.3210  0.3643 -0.1805
 1786TIP3    H126773   6.452   5.477  13.257  1.0117  1.4938  2.3523
 1786TIP3    H226774   6.315   5.414  13.248  2.2935 -1.3619  1.6763
 1787TIP3   OH226775   2.784   0.315   2.509  0.2182  0.0884 -0.3750
 1787TIP3    H126776   2.761   0.390   2.564 -1.3988  1.2299 -2.4429
 1787TIP3    H226777   2.712   0.253   2.522  1.0242 -0.6813  0.5329
 1788TIP3   OH226778   1.185   3.012  12.743  0.2210 -0.4077 -0.1807
 1788TIP3    H126779   1.097   3.040  12.765 -0.1550 -2.0431  0.5043
 1788TIP3    H226780   1.234   3.017  12.826  0.4532 -0.6507 -0.3007
 1789TIP3   OH226781   0.096   1.847  11.179  0.5439 -0.5039 -0.1360
 1789TIP3    H126782   0.153   1.917  11.149 -0.5706 -0.2109 -1.6576
 1789TIP3    H226783   0.132   1.768  11.139  0.6535 -0.5164 -0.0140
 1790TIP3   OH226784   2.601   0.429  16.255 -0.2487  0.1613 -0.6073
 1790TIP3    H126785   2.605   0.335  16.235 -0.3680  0.2910 -1.2376
 1790TIP3    H226786   2.693   0.453  16.272 -0.1028  0.1166 -1.3120
 1791TIP3   OH226787   5.976   6.192   4.332 -0.6988 -0.4671  0.6591
 1791TIP3    H126788   5.957   6.282   4.356  0.2059  0.2602 -1.1916
 1791TIP3    H226789   6.068   6.193   4.305 -1.0728 -1.5984 -0.8096
 1792TIP3   OH226790   0.998   1.053  12.154  0.3014  0.0431  0.3035
 1792TIP3    H126791   1.067   1.014  12.207  1.4423  1.5897  0.0286
 1792TIP3    H226792   1.027   1.040  12.064  0.8367  1.6394  0.2026
 1793TIP3   OH226793   2.177   5.571   5.390  0.1495 -0.0295  0.0057
 1793TIP3    H126794   2.089   5.576   5.353  0.9822  1.1507 -1.9987
 1793TIP3    H226795   2.180   5.640   5.456 -0.2324  0.3790 -0.3973
 1794TIP3   OH226796   2.339   6.429   3.990 -0.0681  0.6696 -0.6576
 1794TIP3    H126797   2.387   6.437   4.072  0.9113 -0.0456 -1.1395
 1794TIP3    H226798   2.308   6.517   3.972  0.0096  0.9064  0.2940
 1795TIP3   OH226799   0.766   5.344  14.976  0.4922  0.6296  0.0739
 1795TIP3    H126800   0.855   5.312  14.987  0.8406  1.8204  0.8525
 1795TIP3    H226801   0.771   5.438  14.992 -0.6658  0.9593 -1.1967
 1796TIP3   OH226802   6.260   3.180   1.320  0.3954 -0.2722 -0.0463
 1796TIP3    H126803   6.328   3.145   1.377  0.2612 -0.5795 -0.0730
 1796TIP3    H226804   6.297   3.262   1.286  0.4947 -0.1102  0.4406
 1797TIP3   OH226805   1.592   2.476   1.772 -0.5045 -0.0183  0.6063
 1797TIP3    H126806   1.607   2.424   1.693 -1.0539  1.4114 -0.4705
 1797TIP3    H226807   1.535   2.421   1.826  1.1027 -1.6607  0.7268
 1798TIP3   OH226808   4.682   5.427   0.048 -0.1939  0.0803 -0.0632
 1798TIP3    H126809   4.596   5.447   0.012 -1.4287 -0.6405  2.2762
 1798TIP3    H226810   4.731   5.390  -0.025 -1.3959  1.7330 -1.7841
 1799TIP3   OH226811   1.346   3.723   2.790 -0.5039  0.1628  0.0513
 1799TIP3    H126812   1.317   3.703   2.702 -0.5917  2.3353 -0.4679
 1799TIP3    H226813   1.416   3.787   2.779 -0.6739  0.6656  1.5650
 1800TIP3   OH226814   4.766   0.169   0.979 -0.2231  0.0801 -0.4540
 1800TIP3    H126815   4.758   0.124   1.063 -3.1004 -0.9753 -1.1831
 1800TIP3    H226816   4.681   0.212   0.966  0.4322  0.9047 -2.4488
 1801TIP3   OH226817   4.441   5.909   4.959  0.4843  0.5145 -0.1096
 1801TIP3    H126818   4.434   5.946   4.871  2.0937  1.0980 -0.0275
 1801TIP3    H226819   4.523   5.945   4.994 -0.5755  1.0420  1.9905
 1802TIP3   OH226820   3.669   3.289  14.432 -0.1557  0.4103  0.6974
 1802TIP3    H126821   3.744   3.296  14.490  0.7601  1.9535 -0.6055
 1802TIP3    H226822   3.595   3.321  14.484  0.2881 -0.0489  1.6231
 1803TIP3   OH226823   0.923   1.926  16.527 -0.5082  0.4457 -0.0820
 1803TIP3    H126824   0.912   2.005  16.474  2.0251  0.6259 -0.4677
 1803TIP3    H226825   0.836   1.908  16.562 -1.6204  2.0978 -1.8055
 1804TIP3   OH226826   5.613   1.997   5.744  0.2687  0.0907  0.8869
 1804TIP3    H126827   5.683   1.939   5.713  0.4809  1.6007 -1.8067
 1804TIP3    H226828   5.533   1.960   5.706  0.3538  1.2498 -0.5034
 1805TIP3   OH226829   4.147   3.715  14.788 -0.1870  0.6730  0.1695
 1805TIP3    H126830   4.069   3.752  14.830  0.2821  0.6757  1.0602
 1805TIP3    H226831   4.159   3.767  14.709 -0.6138  1.2065  0.4490
 1806TIP3   OH226832   3.968   6.573   0.992 -0.7154  0.1599 -0.5200
 1806TIP3    H126833   4.044   6.515   0.989 -1.3240 -0.6531 -0.5559
 1806TIP3    H226834   3.988   6.643   0.929 -0.4390 -0.6067 -1.3002
 1807TIP3   OH226835   3.299   3.330   5.316 -0.5183 -0.5869 -0.3234
 1807TIP3    H126836   3.312   3.248   5.269  1.8987  0.7182 -2.1724
 1807TIP3    H226837   3.228   3.375   5.269 -1.2210 -1.1849  0.1409
 1808TIP3   OH226838   5.125   6.295  17.253  0.1599 -0.4819 -0.4148
 1808TIP3    H126839   5.110   6.202  17.271  0.6293 -0.5726 -0.4757
 1808TIP3    H226840   5.206   6.296  17.202  0.6853  0.0254  0.4069
 1809TIP3   OH226841   1.356   5.752  15.845 -0.0783 -0.1586  0.2306
 1809TIP3    H126842   1.383   5.692  15.913 -0.3482 -0.6821 -0.1166
 1809TIP3    H226843   1.404   5.833  15.863 -1.3860  0.2643  2.0033
 1810TIP3   OH226844   5.859   5.334  16.702 -0.2413  0.5742 -0.0541
 1810TIP3    H126845   5.930   5.270  16.702 -0.5369  0.1125 -3.2259
 1810TIP3    H226846   5.897   5.412  16.661 -1.0063  1.0831  0.1855
 1811TIP3   OH226847   5.083   4.502   4.954 -0.1964 -0.0774 -0.2322
 1811TIP3    H126848   5.016   4.485   4.887  0.8987  1.0402 -1.6776
 1811TIP3    H226849   5.095   4.597   4.952  2.1936 -0.3370 -0.8117
 1812TIP3   OH226850   5.677   2.618  11.616  0.2077  0.0644 -0.1674
 1812TIP3    H126851   5.660   2.676  11.542 -0.7632 -1.1886 -0.9649
 1812TIP3    H226852   5.726   2.545  11.579  0.8931  0.0542  0.7086
 1813TIP3   OH226853   2.459   1.644  12.845 -0.2237 -0.0968 -0.1168
 1813TIP3    H126854   2.445   1.733  12.814  0.1133  1.1992  3.0327
 1813TIP3    H226855   2.553   1.640  12.866 -0.2015 -1.2593 -0.3507
 1814TIP3   OH226856   0.050   2.375   0.438  0.0182  0.3582 -0.4968
 1814TIP3    H126857   0.077   2.421   0.359  3.4036  0.2796  0.4586
 1814TIP3    H226858   0.064   2.282   0.418 -0.0396  0.2680 -0.1270
 1815TIP3   OH226859   0.654   0.053  15.743 -0.1568 -0.1612  0.0411
 1815TIP3    H126860   0.700   0.136  15.725 -0.2063 -0.2827 -0.6646
 1815TIP3    H226861   0.662   0.003  15.662 -1.4647 -0.2217 -0.0693
 1816TIP3   OH226862   5.357   1.469  11.770 -0.2922 -0.1457  0.5097
 1816TIP3    H126863   5.280   1.488  11.824 -0.2363 -1.1724  0.9614
 1816TIP3    H226864   5.341   1.516  11.688 -1.0920  0.1812  0.8420
 1817TIP3   OH226865   1.438   0.751   2.828  0.2996 -0.3703  0.1399
 1817TIP3    H126866   1.372   0.687   2.852  0.7431 -0.5174  1.0124
 1817TIP3    H226867   1.435   0.817   2.898 -0.8102  1.0935 -1.2178
 1818TIP3   OH226868   6.467   2.860   2.419 -0.0819 -0.7851 -0.2189
 1818TIP3    H126869   6.472   2.912   2.500  1.0917 -1.8386  0.4281
 1818TIP3    H226870   6.542   2.801   2.425 -0.1670 -1.0936 -1.9498
 1819TIP3   OH226871   2.527   5.507  15.402  0.4660 -0.3087  0.0655
 1819TIP3    H126872   2.590   5.507  15.330 -0.7584 -2.6014 -1.1351
 1819TIP3    H226873   2.472   5.431  15.385 -0.9911  0.0967  2.5022
 1820TIP3   OH226874   5.259   1.831   0.385 -0.2753  0.7818 -0.2438
 1820TIP3    H126875   5.309   1.886   0.325  1.4399 -0.5003 -0.0657
 1820TIP3    H226876   5.257   1.745   0.342  0.6069 -0.0459  1.3075
 1821TIP3   OH226877   6.454   0.481  10.944 -0.8376  0.1445  0.0011
 1821TIP3    H126878   6.384   0.425  10.911  0.5450 -1.3252 -0.5251
 1821TIP3    H226879   6.497   0.514  10.865 -1.7905  2.2297  0.2865
 1822TIP3   OH226880   4.582   5.088   2.438 -0.8070  0.1531 -0.9299
 1822TIP3    H126881   4.513   5.143   2.401  1.5249  3.6606 -0.5445
 1822TIP3    H226882   4.629   5.145   2.498  1.6299 -2.4507 -0.1211
 1823TIP3   OH226883   5.836   1.395   3.105 -0.1834  0.0299 -0.2681
 1823TIP3    H126884   5.820   1.482   3.141 -0.5253 -0.7456  1.5853
 1823TIP3    H226885   5.931   1.383   3.111 -0.0538  0.5045 -1.1589
 1824TIP3   OH226886   3.688   2.224  11.054  0.0361  0.1610 -0.2568
 1824TIP3    H126887   3.684   2.295  10.990 -2.6867  0.6316  0.3260
 1824TIP3    H226888   3.601   2.222  11.094  1.0923 -1.2555  2.2111
 1825TIP3   OH226889   3.327   4.759  14.955  0.3814 -0.2416 -0.2767
 1825TIP3    H126890   3.255   4.708  14.992 -1.7223  2.8362  0.2391
 1825TIP3    H226891   3.370   4.799  15.031  0.0295  1.1305 -0.7719
 1826TIP3   OH226892   0.289   3.796  13.987  0.4143  0.6953  0.3617
 1826TIP3    H126893   0.216   3.738  13.961  0.9805  0.8514 -1.8196
 1826TIP3    H226894   0.273   3.815  14.079 -1.1003 -1.0339  0.5207
 1827TIP3   OH226895   5.506   0.528   6.079  0.2524  0.0372 -0.4081
 1827TIP3    H126896   5.546   0.579   6.150  2.5649 -0.1671 -1.4447
 1827TIP3    H226897   5.483   0.594   6.013 -2.6640  0.3190  0.7711
 1828TIP3   OH226898   1.373   1.674  17.317  0.2798  0.4797 -0.4608
 1828TIP3    H126899   1.465   1.686  17.341  1.2606 -3.2048 -1.6182
 1828TIP3    H226900   1.369   1.700  17.225 -0.0367  1.3387 -0.2074
 1829TIP3   OH226901   4.642   0.636  11.254  0.4994  0.4429 -0.2532
 1829TIP3    H126902   4.687   0.623  11.171  2.8682 -0.8723  1.1286
 1829TIP3    H226903   4.687   0.710  11.295 -1.0713  1.5070 -0.3781
 1830TIP3   OH226904   5.870   1.778   2.526  0.7446  0.4155  0.4994
 1830TIP3    H126905   5.856   1.872   2.540 -1.6452  0.4270 -1.3040
 1830TIP3    H226906   5.784   1.739   2.545  0.7099 -0.9379 -2.0971
 1831TIP3   OH226907   1.482   3.972  17.232  0.2423 -0.1786  0.0689
 1831TIP3    H126908   1.460   3.998  17.143  0.0749  1.0347  0.4377
 1831TIP3    H226909   1.577   3.966  17.233  0.1557 -2.2578 -0.7075
 1832TIP3   OH226910   1.169   4.279   4.719 -0.1550  0.0865 -0.2310
 1832TIP3    H126911   1.230   4.303   4.649  0.5993  0.5154  0.5589
 1832TIP3    H226912   1.082   4.295   4.682  0.2183 -0.1733 -1.2400
 1833TIP3   OH226913   0.197   5.812   0.199 -0.3455  0.1500  0.2222
 1833TIP3    H126914   0.107   5.804   0.230  0.0616 -1.3331  1.1477
 1833TIP3    H226915   0.207   5.740   0.137  0.6944 -0.8444  1.4838
 1834TIP3   OH226916   1.908   5.688  13.666  0.1266  0.1816  0.0418
 1834TIP3    H126917   1.990   5.702  13.713  0.0843  2.5084 -0.4672
 1834TIP3    H226918   1.935   5.667  13.576  0.1456 -0.9033  0.2786
 1835TIP3   OH226919   1.018   3.194   2.968 -0.2742  0.0882  0.2119
 1835TIP3    H126920   1.035   3.244   3.048 -0.9758  0.2494  0.2716
 1835TIP3    H226921   0.992   3.260   2.904  3.2469  0.3827 -1.1117
 1836TIP3   OH226922   5.083   0.065   3.985 -0.3630  0.1233 -0.4630
 1836TIP3    H126923   5.104   0.063   4.078 -1.1322  2.7257 -0.1563
 1836TIP3    H226924   5.159   0.024   3.943  1.7397  2.1536  1.1050
 1837TIP3   OH226925   3.643   5.306  11.637  0.0301  0.0880  0.0943
 1837TIP3    H126926   3.684   5.257  11.708  0.1655  0.8361  0.5352
 1837TIP3    H226927   3.570   5.351  11.678  0.8957  1.5806  0.0514
 1838TIP3   OH226928   2.726   3.922  11.627  0.2448  0.1009 -0.7416
 1838TIP3    H126929   2.692   3.962  11.547  1.0178  1.2746 -0.4996
 1838TIP3    H226930   2.793   3.861  11.597 -1.8451 -2.1548 -1.2180
 1839TIP3   OH226931   4.314   1.947  15.981  0.1730  0.1229  0.6551
 1839TIP3    H126932   4.255   1.992  15.920  0.5656  0.9360  0.8621
 1839TIP3    H226933   4.259   1.929  16.058 -0.4222 -1.2362 -0.0614
 1840TIP3   OH226934   2.975   1.661  11.140  0.1967  0.1766 -0.2378
 1840TIP3    H126935   3.019   1.623  11.064  0.4873 -1.8568  0.8817
 1840TIP3    H226936   3.031   1.734  11.167  2.1722 -1.4530  0.2747
 1841TIP3   OH226937   0.828   0.384  13.138 -0.3257 -0.1832  0.7220
 1841TIP3    H126938   0.914   0.366  13.176 -0.6102 -0.2037  1.3590
 1841TIP3    H226939   0.832   0.344  13.051  0.6265  0.6256  0.3829
 1842TIP3   OH226940   6.476   4.523  16.722 -0.6469  0.2237  0.5382
 1842TIP3    H126941   6.445   4.544  16.634  1.3430 -0.6399 -0.4264
 1842TIP3    H226942   6.433   4.441  16.744  0.7603 -0.8988 -0.7265
 1843TIP3   OH226943   0.414   5.411   2.742 -0.1045 -0.5943  0.0011
 1843TIP3    H126944   0.446   5.446   2.825  0.5216 -0.7007 -0.1957
 1843TIP3    H226945   0.398   5.488   2.688 -0.4875 -0.5261  0.2058
 1844TIP3   OH226946   5.294   1.458  15.973 -0.3127 -0.0541  0.3866
 1844TIP3    H126947   5.322   1.390  16.034  0.8845  1.9057  2.1811
 1844TIP3    H226948   5.331   1.539  16.009 -0.0224  1.3238 -2.6576
 1845TIP3   OH226949   0.489   2.606   4.274 -0.0499  0.0547  0.1042
 1845TIP3    H126950   0.450   2.593   4.361 -0.2430  0.3866  0.0699
 1845TIP3    H226951   0.429   2.562   4.214 -0.4619  0.6916  0.0353
 1846TIP3   OH226952   4.054   1.909  17.284 -0.0215  0.2674  0.0277
 1846TIP3    H126953   4.062   1.970  17.210 -0.0826  1.7729  1.2213
 1846TIP3    H226954   4.113   1.943  17.350  0.1039 -1.1189  0.6622
 1847TIP3   OH226955   0.647   6.741  15.153 -0.3914  0.0050  0.1952
 1847TIP3    H126956   0.700   6.808  15.109 -0.6415 -0.4653 -0.8430
 1847TIP3    H226957   0.583   6.714  15.087 -2.2725  0.8925  1.5561
 1848TIP3   OH226958   6.255   0.562   4.201  0.4909 -0.1469  0.3025
 1848TIP3    H126959   6.284   0.654   4.203  0.5894 -0.1881  1.3703
 1848TIP3    H226960   6.268   0.535   4.110 -0.2702  1.1273 -0.2119
 1849TIP3   OH226961   3.596   4.710  14.831  0.2326  0.4333 -0.0619
 1849TIP3    H126962   3.514   4.744  14.869  0.0076  0.3621 -0.4829
 1849TIP3    H226963   3.659   4.717  14.903  0.0361  1.1570  0.0520
 1850TIP3   OH226964   6.405   5.450   3.931  0.2476  0.0457 -0.1391
 1850TIP3    H126965   6.365   5.368   3.902  0.2812  0.4288 -1.3146
 1850TIP3    H226966   6.345   5.519   3.900  1.1031  0.5515 -0.7113
 1851TIP3   OH226967   3.784   0.961  14.722 -0.1136  0.6485  0.4840
 1851TIP3    H126968   3.870   0.925  14.698  0.2766  1.6171  0.3892
 1851TIP3    H226969   3.758   0.911  14.799 -0.0275 -0.4804 -0.1953
 1852TIP3   OH226970   5.966   4.474  14.167 -0.1536 -0.5133  0.0865
 1852TIP3    H126971   5.967   4.481  14.263 -0.3982  0.3361  0.0418
 1852TIP3    H226972   6.011   4.553  14.137 -1.1076 -0.1726 -0.5126
 1853TIP3   OH226973   6.243   0.018  11.994 -0.5930  0.4400 -0.3811
 1853TIP3    H126974   6.316   0.078  12.009 -1.8653  2.0066 -0.2042
 1853TIP3    H226975   6.238  -0.034  12.074 -1.4578  2.3278  0.8543
 1854TIP3   OH226976   0.027   6.406   5.722 -0.2069  0.5145 -0.2340
 1854TIP3    H126977   0.031   6.460   5.801 -1.5662 -0.6299  0.6605
 1854TIP3    H226978   0.079   6.329   5.743 -0.9941 -0.0284 -0.2619
 1855TIP3   OH226979   6.120   1.226  10.944 -0.3178 -0.5052  0.3568
 1855TIP3    H126980   6.211   1.244  10.969 -0.2854  0.2291 -0.2493
 1855TIP3    H226981   6.097   1.146  10.992  0.5119 -0.4692  0.8309
 1856TIP3   OH226982   2.957   4.019   2.133  0.1511 -0.3792  0.5013
 1856TIP3    H126983   2.918   4.033   2.219  0.7338  1.4141  0.5121
 1856TIP3    H226984   3.003   3.936   2.141  0.7292  0.0663  2.1294
 1857TIP3   OH226985   2.068   6.125  12.819  0.4559  0.6932 -0.1593
 1857TIP3    H126986   2.159   6.128  12.847  1.3105  1.9152 -2.7091
 1857TIP3    H226987   2.068   6.061  12.747 -0.9919 -0.1836  0.5665
 1858TIP3   OH226988   4.849   5.845   3.318  0.3399  0.2955  0.2064
 1858TIP3    H126989   4.771   5.793   3.299  0.3190  0.1982  0.5419
 1858TIP3    H226990   4.827   5.933   3.289 -0.1288  0.4002  0.8571
 1859TIP3   OH226991   1.134   0.600  15.398  0.1125 -0.0572  0.1558
 1859TIP3    H126992   1.039   0.596  15.400  0.1190 -0.1017  0.3808
 1859TIP3    H226993   1.161   0.513  15.368  0.1069 -0.2751  0.7841
 1860TIP3   OH226994   1.543   2.859  12.990  0.0387 -0.1053  0.5191
 1860TIP3    H126995   1.459   2.823  12.962  1.0489 -1.3342 -1.1749
 1860TIP3    H226996   1.566   2.921  12.921  0.1454  0.8530  1.4026
 1861TIP3   OH226997   3.665   2.168   2.128 -0.5906 -0.1296  0.5514
 1861TIP3    H126998   3.760   2.179   2.133 -0.4218 -1.1052 -0.1997
 1861TIP3    H226999   3.632   2.205   2.210  0.3142  1.3677  0.2656
 1862TIP3   OH227000   6.249   1.164   0.020 -0.3561  0.5402  0.0066
 1862TIP3    H127001   6.297   1.161  -0.064 -1.6472 -0.0773 -0.7351
 1862TIP3    H227002   6.242   1.073   0.047  1.2070  0.8212  1.5052
 1863TIP3   OH227003   0.738   6.361  12.831  0.1078 -0.3661  0.4128
 1863TIP3    H127004   0.727   6.311  12.911  0.6038 -0.6442  0.3149
 1863TIP3    H227005   0.655   6.352  12.785  0.0730 -0.8137  0.5574
 1864TIP3   OH227006   1.198   4.771   2.657  0.3884 -0.4223 -0.3763
 1864TIP3    H127007   1.123   4.736   2.609 -0.7544  0.0030  1.0114
 1864TIP3    H227008   1.201   4.863   2.633 -0.0186 -0.2688  0.1469
 1865TIP3   OH227009   2.890   5.857  14.959  0.1887 -0.8134 -0.3416
 1865TIP3    H127010   2.853   5.873  15.046 -0.0054 -1.2667 -0.3350
 1865TIP3    H227011   2.824   5.891  14.898 -0.0320 -1.1972 -0.3212
 1866TIP3   OH227012   3.149   2.141   4.908  0.2722  0.3950  0.2551
 1866TIP3    H127013   3.177   2.222   4.950  3.0159 -0.3464  0.0124
 1866TIP3    H227014   3.230   2.094   4.889 -1.0151 -0.7931 -2.9062
 1867TIP3   OH227015   2.858   6.648  12.126  0.0257  0.0260  0.2848
 1867TIP3    H127016   2.856   6.744  12.129  1.8525  0.2810 -2.6305
 1867TIP3    H227017   2.950   6.626  12.138  0.0433 -1.1492 -1.6160
 1868TIP3   OH227018   0.625   2.139  11.260  0.2482  0.7804  0.0376
 1868TIP3    H127019   0.676   2.071  11.305 -2.0151  0.2178  1.9916
 1868TIP3    H227020   0.688   2.182  11.203  2.0441 -2.2869 -0.5604
 1869TIP3   OH227021   5.296   3.599   4.557  0.3187 -0.0887  0.2809
 1869TIP3    H127022   5.258   3.525   4.508 -0.0200  0.9331 -1.0711
 1869TIP3    H227023   5.222   3.638   4.603 -0.6471  2.3201 -2.8915
 1870TIP3   OH227024   4.218   2.066   0.430 -0.3796 -0.0088 -0.2892
 1870TIP3    H127025   4.237   1.996   0.493  1.5573  1.5913  1.0444
 1870TIP3    H227026   4.280   2.051   0.359 -1.0603 -0.5359 -0.7857
 1871TIP3   OH227027   0.803   3.762  12.722  0.5045 -0.1530 -0.1041
 1871TIP3    H127028   0.772   3.671  12.719 -2.0610  0.6440  0.0130
 1871TIP3    H227029   0.856   3.772  12.643 -0.2610 -1.3982 -0.8008
 1872TIP3   OH227030   0.684   3.737  13.100  0.3523 -0.2611  0.6456
 1872TIP3    H127031   0.630   3.688  13.162 -1.3166  1.2436  0.4638
 1872TIP3    H227032   0.710   3.672  13.035 -0.7454 -1.1720  1.0745
 1873TIP3   OH227033   3.412   5.817  10.718  0.0770  0.3576  0.1039
 1873TIP3    H127034   3.391   5.841  10.809  0.5299 -1.7820  0.8452
 1873TIP3    H227035   3.404   5.721  10.717 -1.3990  0.4254 -2.5257
 1874TIP3   OH227036   5.715   5.640  12.199  0.0817 -0.2387  0.8556
 1874TIP3    H127037   5.631   5.620  12.159  1.0489  0.6554 -1.8758
 1874TIP3    H227038   5.720   5.584  12.277 -2.1242 -1.8025 -0.0544
 1875TIP3   OH227039   4.653   3.957   0.175 -0.5758 -0.4866 -0.5087
 1875TIP3    H127040   4.745   3.956   0.150 -1.1458  0.1259 -2.8535
 1875TIP3    H227041   4.653   3.982   0.267  1.5418  0.8770 -0.8336
 1876TIP3   OH227042   2.216   2.826  13.063  0.5809  0.2848 -0.1314
 1876TIP3    H127043   2.153   2.896  13.080 -0.0439  0.0632 -1.4777
 1876TIP3    H227044   2.163   2.752  13.033  1.4651  0.0696 -1.2174
 1877TIP3   OH227045   4.128   3.030  14.849 -0.1462  0.3385 -0.0557
 1877TIP3    H127046   4.064   2.969  14.813  0.6576 -0.2099 -0.5812
 1877TIP3    H227047   4.093   3.053  14.936  0.1677 -1.8815  0.7188
 1878TIP3   OH227048   5.727   3.240   3.812  0.0039 -0.5027  0.4407
 1878TIP3    H127049   5.767   3.241   3.725 -2.0929 -0.5167 -0.5762
 1878TIP3    H227050   5.690   3.328   3.822 -0.8065 -0.8736  0.7920
 1879TIP3   OH227051   5.236   3.664   6.690 -0.0850  0.3448  0.4879
 1879TIP3    H127052   5.215   3.585   6.640 -0.4923  0.9506 -0.3078
 1879TIP3    H227053   5.309   3.637   6.746 -0.4056 -0.6785  0.4392
 1880TIP3   OH227054   4.754   2.121  12.232 -0.4883 -0.3194  0.1841
 1880TIP3    H127055   4.815   2.063  12.277 -1.6553  0.3738  2.8525
 1880TIP3    H227056   4.729   2.073  12.153  2.2210 -1.2852 -0.1746
 1881TIP3   OH227057   0.603   6.306  13.717  0.1635  0.0043 -0.0893
 1881TIP3    H127058   0.603   6.268  13.805 -1.9458 -2.1785 -0.8967
 1881TIP3    H227059   0.544   6.381  13.723  0.0143 -0.1446  0.3469
 1882TIP3   OH227060   4.662   5.660  13.517 -0.2733  0.0066  0.3597
 1882TIP3    H127061   4.714   5.730  13.476  1.7479 -0.8594  1.3164
 1882TIP3    H227062   4.671   5.586  13.458  1.9117 -0.9701  1.7929
 1883TIP3   OH227063   4.502   5.891   0.178 -0.1261 -0.0852  0.0483
 1883TIP3    H127064   4.507   5.841   0.097 -1.0050 -0.6071  0.2964
 1883TIP3    H227065   4.520   5.981   0.152  1.6822 -0.5430 -0.3681
 1884TIP3   OH227066   0.857   0.090   1.828  0.5032 -0.4319  0.0088
 1884TIP3    H127067   0.952   0.078   1.833  0.3178 -1.9540  0.1799
 1884TIP3    H227068   0.846   0.185   1.818  2.1440 -0.3896 -2.2456
 1885TIP3   OH227069   2.280   0.161   4.979  0.4819 -0.0293  0.0303
 1885TIP3    H127070   2.303   0.246   5.015 -2.1276  1.1743 -0.9035
 1885TIP3    H227071   2.363   0.115   4.970  1.8228  1.8915  1.8038
 1886TIP3   OH227072   5.831   5.679   1.823  0.0092  0.5875  0.1681
 1886TIP3    H127073   5.831   5.745   1.753  0.3713  0.4277  0.0116
 1886TIP3    H227074   5.815   5.729   1.903  2.6946  1.2672  0.3853
 1887TIP3   OH227075   1.914   1.964   3.498 -0.2253 -0.3597  0.0989
 1887TIP3    H127076   1.883   1.975   3.588 -1.6972 -0.5281 -0.3606
 1887TIP3    H227077   1.856   2.020   3.446  1.2672  0.5405 -0.6449
 1888TIP3   OH227078   3.929   3.857   3.695  0.0931 -0.8693 -0.7022
 1888TIP3    H127079   3.903   3.920   3.762 -1.4487 -0.9247 -1.2078
 1888TIP3    H227080   4.015   3.887   3.665  0.3161 -0.2307  0.5317
 1889TIP3   OH227081   4.528   2.277  12.299  0.2706  0.7565 -0.0478
 1889TIP3    H127082   4.596   2.212  12.288  0.5577  1.0853 -0.2342
 1889TIP3    H227083   4.572   2.361  12.285 -0.1811  0.9679 -0.2425
 1890TIP3   OH227084   6.164   2.495  12.791  1.0045 -0.1647 -0.2013
 1890TIP3    H127085   6.114   2.572  12.763 -1.0594 -1.1090  0.6103
 1890TIP3    H227086   6.183   2.448  12.710 -0.0175 -0.0829 -0.5058
 1891TIP3   OH227087   6.498   4.210  16.338  0.1317 -0.1755 -0.4149
 1891TIP3    H127088   6.522   4.119  16.356 -0.9660 -0.1095  1.7613
 1891TIP3    H227089   6.540   4.230  16.255  1.7668 -2.1489 -0.1468
 1892TIP3   OH227090   5.005   2.858   5.685  0.0684  0.3922 -0.7884
 1892TIP3    H127091   4.962   2.940   5.708  0.4474  0.3985 -0.0688
 1892TIP3    H227092   4.979   2.797   5.753  0.1614  0.0378 -1.0646
 1893TIP3   OH227093   6.434   1.529  12.397  0.2354 -0.7957 -0.0588
 1893TIP3    H127094   6.388   1.449  12.422  1.3194 -1.5384 -0.3674
 1893TIP3    H227095   6.515   1.498  12.356  0.3791  0.4530 -0.7663
 1894TIP3   OH227096   2.632   1.346   5.697 -0.0254 -0.2579  0.1503
 1894TIP3    H127097   2.608   1.435   5.671  0.2444 -0.4319 -0.7334
 1894TIP3    H227098   2.728   1.345   5.695 -0.0019 -0.3324  0.9911
 1895TIP3   OH227099   1.944   0.776   0.700  0.2745 -0.4713  0.3542
 1895TIP3    H127100   2.005   0.704   0.682 -0.0568 -1.0077  1.2808
 1895TIP3    H227101   1.871   0.734   0.745  0.0170  0.4362  0.7994
 1896TIP3   OH227102   6.711   3.302  16.666 -0.4159  0.6804 -0.7737
 1896TIP3    H127103   6.719   3.223  16.613 -0.0298  2.2511 -3.2373
 1896TIP3    H227104   6.801   3.332  16.679 -0.5391  0.5690  0.4277
 1897TIP3   OH227105   3.579   0.742   3.933  0.1498 -0.3374 -0.1180
 1897TIP3    H127106   3.595   0.837   3.936  0.3601 -0.3951  0.9275
 1897TIP3    H227107   3.596   0.712   4.022 -1.6687 -1.0821  0.0254
 1898TIP3   OH227108   5.323   3.473  13.600 -0.1323  0.3928 -0.6572
 1898TIP3    H127109   5.261   3.435  13.663  1.8828  0.9700  1.8421
 1898TIP3    H227110   5.274   3.476  13.518 -2.2592 -2.3144  0.3299
 1899TIP3   OH227111   0.980   1.036   3.985 -0.0747 -0.6737 -0.3011
 1899TIP3    H127112   0.995   1.128   4.006  0.1699 -0.6669 -0.5145
 1899TIP3    H227113   0.988   1.031   3.890  1.6014 -1.2267 -0.1538
 1900TIP3   OH227114   5.585   2.535  12.601  0.1427 -0.2187  0.0962
 1900TIP3    H127115   5.635   2.453  12.606  1.3077  0.3214 -1.7016
 1900TIP3    H227116   5.552   2.537  12.511 -0.4987  0.9430  0.3394
 1901TIP3   OH227117   1.455   3.118   2.129 -0.1152 -0.2127 -0.1027
 1901TIP3    H127118   1.500   3.054   2.184  0.4879 -0.6959 -1.1301
 1901TIP3    H227119   1.475   3.091   2.039  0.8169  1.8401 -0.5908
 1902TIP3   OH227120   3.201   1.496  15.439  0.2352 -0.2003 -0.3350
 1902TIP3    H127121   3.134   1.564  15.449  1.6307  1.2581 -0.5391
 1902TIP3    H227122   3.163   1.419  15.482 -0.9244  1.0205  0.9531
 1903TIP3   OH227123   1.573   2.521   3.084  0.2155 -0.1098  0.1718
 1903TIP3    H127124   1.562   2.608   3.121 -0.1274  0.4418 -1.1870
 1903TIP3    H227125   1.516   2.519   3.008  2.3438 -0.5147 -1.5093
 1904TIP3   OH227126   5.880   1.583  15.069 -0.3757 -0.1789 -0.0562
 1904TIP3    H127127   5.872   1.488  15.063  1.5929 -0.5071  1.4241
 1904TIP3    H227128   5.974   1.600  15.062 -0.7941  1.8509 -1.9179
 1905TIP3   OH227129   6.591   3.545   4.100 -0.0658 -0.3006 -0.2407
 1905TIP3    H127130   6.671   3.543   4.048 -0.5380 -2.5012 -1.0078
 1905TIP3    H227131   6.598   3.470   4.159 -1.8306 -0.9940 -0.8306
 1906TIP3   OH227132   1.905   4.965   3.714  0.5376 -0.4650  0.5278
 1906TIP3    H127133   1.819   4.929   3.689  0.7410 -0.1699 -0.6411
 1906TIP3    H227134   1.887   5.017   3.792 -0.6350  0.7301 -0.4832
 1907TIP3   OH227135   0.300   1.008  13.105 -0.1745 -0.0548  0.0439
 1907TIP3    H127136   0.228   1.065  13.076  0.8667  0.8932 -0.7598
 1907TIP3    H227137   0.259   0.922  13.117 -1.8082  0.8265  1.3185
 1908TIP3   OH227138   2.154   4.539   1.784  0.5656  0.2813 -1.1271
 1908TIP3    H127139   2.116   4.546   1.697  3.4178 -0.9147 -2.6160
 1908TIP3    H227140   2.231   4.596   1.781  1.4352 -0.7563  0.1519
 1909TIP3   OH227141   0.588   3.937   2.048  0.0425 -0.2525  0.1153
 1909TIP3    H127142   0.671   3.923   2.093  0.3587 -0.5262 -0.5524
 1909TIP3    H227143   0.586   4.031   2.030 -0.4332 -0.0050  1.3662
 1910TIP3   OH227144   1.250   5.604   5.715 -0.4639 -0.6853 -0.2583
 1910TIP3    H127145   1.327   5.561   5.753  0.7060  0.1794 -1.5410
 1910TIP3    H227146   1.252   5.692   5.752 -0.4381 -0.4543 -0.7989
 1911TIP3   OH227147   0.200   1.244   2.902 -0.0587 -0.0605  0.3427
 1911TIP3    H127148   0.153   1.162   2.897 -0.1215  0.0226 -0.5174
 1911TIP3    H227149   0.142   1.308   2.861 -0.8817  0.8449  2.7303
 1912TIP3   OH227150   4.883   1.648  16.728 -0.4829  0.2610 -0.7410
 1912TIP3    H127151   4.860   1.579  16.665 -2.7459  0.3755 -0.1445
 1912TIP3    H227152   4.884   1.603  16.813  0.3445  0.5301 -0.6055
 1913TIP3   OH227153   3.457   1.308  15.131 -0.2143 -0.6967 -0.1639
 1913TIP3    H127154   3.514   1.243  15.089  1.2765 -1.1052  2.2504
 1913TIP3    H227155   3.436   1.269  15.216 -1.8135  0.6945  0.1181
 1914TIP3   OH227156   6.463   1.619   4.949  0.1326 -0.4687  0.3527
 1914TIP3    H127157   6.420   1.690   4.997  0.7126  0.8503 -0.9991
 1914TIP3    H227158   6.455   1.543   5.006 -1.5278  0.3996  1.3590
 1915TIP3   OH227159   3.051   6.285  11.795  0.1700 -0.0301  0.1824
 1915TIP3    H127160   3.055   6.208  11.853  0.6319 -0.3722 -0.2925
 1915TIP3    H227161   2.970   6.275  11.746  2.2743 -2.7383 -3.2437
 1916TIP3   OH227162   2.512   0.577   2.093 -0.2486 -0.0445  0.4849
 1916TIP3    H127163   2.562   0.618   2.023  0.9358 -3.0179 -0.5830
 1916TIP3    H227164   2.444   0.641   2.115 -2.2465  0.2812 -5.0069
 1917TIP3   OH227165   3.326   4.960   4.639 -0.2754 -0.3323  0.4497
 1917TIP3    H127166   3.280   4.904   4.701  2.6264 -1.3618  1.8786
 1917TIP3    H227167   3.357   4.901   4.571  2.1969 -0.5094  1.5952
 1918TIP3   OH227168   4.242   3.643  15.071 -0.3222  0.1050  0.0092
 1918TIP3    H127169   4.216   3.624  14.980  0.5594  0.8349 -0.4043
 1918TIP3    H227170   4.280   3.561  15.103  1.0387  0.3535 -0.8936
 1919TIP3   OH227171   0.420   3.032  13.603  0.0502 -0.5680  0.2914
 1919TIP3    H127172   0.469   2.964  13.558  1.5434 -0.2517  1.3605
 1919TIP3    H227173   0.470   3.049  13.683 -2.7043 -1.4323  2.3632
 1920TIP3   OH227174   1.042   1.885  14.818  0.3758 -1.1562 -0.5498
 1920TIP3    H127175   1.071   1.798  14.847  0.4312 -0.4347  1.7580
 1920TIP3    H227176   0.947   1.885  14.834  0.6432 -0.1775  1.4473
 1921TIP3   OH227177   5.150   4.228   5.660  0.3824  0.1925 -0.2600
 1921TIP3    H127178   5.205   4.188   5.728  0.3021  0.5747  0.0356
 1921TIP3    H227179   5.077   4.265   5.709 -0.1296 -0.2933 -0.6502
 1922TIP3   OH227180   3.615   5.792   4.538  0.6182 -0.0015  0.2364
 1922TIP3    H127181   3.539   5.737   4.559  1.1166  0.0010  2.2533
 1922TIP3    H227182   3.672   5.784   4.614  3.0268 -0.5764 -1.5276
 1923TIP3   OH227183   3.939   2.351  11.757  0.0081  0.1481  1.3037
 1923TIP3    H127184   3.944   2.285  11.688  4.2588 -0.1677  1.6432
 1923TIP3    H227185   3.985   2.427  11.720 -0.7763  1.2718  2.5503
 1924TIP3   OH227186   0.305   5.351  11.955 -0.1514 -0.6481 -0.0008
 1924TIP3    H127187   0.262   5.268  11.976  0.2346 -0.9921 -0.5501
 1924TIP3    H227188   0.342   5.338  11.868 -1.8681  0.7921 -1.0364
 1925TIP3   OH227189   0.047   5.862  14.605  0.2746  0.4612  0.5328
 1925TIP3    H127190   0.001   5.875  14.522 -0.2856 -1.5272  0.4951
 1925TIP3    H227191   0.139   5.878  14.585  0.2486 -0.8103 -0.6745
 1926TIP3   OH227192   4.086   1.363  13.055 -0.3474  0.6060 -0.2764
 1926TIP3    H127193   3.995   1.380  13.079  0.0605  2.5971  0.0375
 1926TIP3    H227194   4.084   1.277  13.012 -2.4264  0.7896 -0.6501
 1927TIP3   OH227195   3.775   4.735  11.475 -0.3903 -0.6201 -0.9689
 1927TIP3    H127196   3.701   4.796  11.478  0.3673  0.3819 -2.0182
 1927TIP3    H227197   3.844   4.779  11.525  0.2014 -0.5359 -1.8351
 1928TIP3   OH227198   4.125   5.389   5.006 -0.1711 -0.7619  0.2752
 1928TIP3    H127199   4.182   5.346   5.069  0.8639 -2.3028 -1.6087
 1928TIP3    H227200   4.179   5.401   4.928 -0.9821  2.3747  0.0552
 1929TIP3   OH227201   1.886   0.288   2.456  0.0882 -0.0241  0.0082
 1929TIP3    H127202   1.940   0.346   2.401 -1.5439  1.1847 -0.3896
 1929TIP3    H227203   1.895   0.202   2.415  1.6612  0.1352 -0.0582
 1930TIP3   OH227204   6.473   0.223  17.076  0.0484 -0.7026 -0.5377
 1930TIP3    H127205   6.501   0.275  17.151 -2.2043  0.5333 -0.5005
 1930TIP3    H227206   6.482   0.282  17.001  1.0585 -1.5241 -1.1045
 1931TIP3   OH227207   6.637   2.368  15.790  0.7606  0.2552  0.1742
 1931TIP3    H127208   6.583   2.403  15.860  0.7794 -1.7699  1.2732
 1931TIP3    H227209   6.726   2.392  15.813  0.7257 -0.0512  0.6297
 1932TIP3   OH227210   5.607   3.377  15.599 -0.0186  0.3593  0.0253
 1932TIP3    H127211   5.676   3.326  15.557 -0.5187 -0.6309  0.3835
 1932TIP3    H227212   5.626   3.468  15.575  0.0413 -0.1059 -1.8599
 1933TIP3   OH227213   1.327   5.891   5.150  0.0526  0.0419 -0.2095
 1933TIP3    H127214   1.255   5.869   5.092 -0.4216 -0.4808  0.5597
 1933TIP3    H227215   1.329   5.986   5.151 -1.2019  0.0819  0.4409
 1934TIP3   OH227216   5.283   5.670   0.426  0.0907 -0.2017 -0.2944
 1934TIP3    H127217   5.211   5.726   0.456 -0.2127 -0.5113 -0.4387
 1934TIP3    H227218   5.338   5.658   0.503  0.8311  1.3032 -0.5516
 1935TIP3   OH227219   1.256   4.783  16.203  0.5906 -0.3156 -0.6901
 1935TIP3    H127220   1.241   4.688  16.201  1.6643 -0.5245  0.1577
 1935TIP3    H227221   1.250   4.806  16.296  0.2719  0.4648 -0.8969
 1936TIP3   OH227222   5.254   5.624  13.669 -0.1704 -0.2069 -0.5792
 1936TIP3    H127223   5.320   5.604  13.603  1.1694  1.8799  0.0280
 1936TIP3    H227224   5.175   5.644  13.619  0.6274  0.6432 -1.5404
 1937TIP3   OH227225   3.214   1.622   3.407 -0.1018 -0.7117 -0.0432
 1937TIP3    H127226   3.162   1.670   3.472 -0.8364  0.2274 -1.2650
 1937TIP3    H227227   3.291   1.592   3.455 -0.5005  0.1515  1.1999
 1938TIP3   OH227228   1.148   0.039  12.428  0.0815 -0.2942 -0.4867
 1938TIP3    H127229   1.200   0.111  12.393  0.1384 -0.4096 -0.6396
 1938TIP3    H227230   1.140  -0.022  12.355  0.7052 -0.8156 -0.1271
 1939TIP3   OH227231   2.722   5.510   1.126 -0.3836 -0.2151  0.0097
 1939TIP3    H127232   2.753   5.421   1.112  3.3013  0.9952 -0.5840
 1939TIP3    H227233   2.709   5.545   1.038 -1.7747 -0.0932  0.2401
 1940TIP3   OH227234   2.701   1.903   6.178  0.8771  0.2875 -0.0028
 1940TIP3    H127235   2.793   1.911   6.205  0.9020 -0.9404  0.3377
 1940TIP3    H227236   2.652   1.948   6.247  1.1680  0.1474  0.3020
 1941TIP3   OH227237   5.543   2.713   2.876 -0.7577  0.1752  0.0270
 1941TIP3    H127238   5.478   2.782   2.889 -0.2714  0.7999 -0.7810
 1941TIP3    H227239   5.536   2.691   2.783  1.4542  1.5815 -0.5449
 1942TIP3   OH227240   3.938   4.879  14.609 -0.2725 -0.0555  0.3559
 1942TIP3    H127241   3.958   4.920  14.524 -0.5169  1.0415  0.8098
 1942TIP3    H227242   3.853   4.838  14.596 -1.0230  1.3902  0.4717
 1943TIP3   OH227243   4.563   5.490   4.739  0.2434 -0.1706 -0.4817
 1943TIP3    H127244   4.537   5.526   4.824 -2.6877 -0.5051 -1.1322
 1943TIP3    H227245   4.528   5.401   4.738  0.1656 -0.1581 -2.0387
 1944TIP3   OH227246   6.475   4.264  12.548  0.2141  0.0295  0.2136
 1944TIP3    H127247   6.447   4.238  12.635 -1.5264 -1.3365 -0.7028
 1944TIP3    H227248   6.571   4.268  12.554  0.0994  2.2615  2.7425
 1945TIP3   OH227249   3.001   5.559  16.051  0.0887 -0.1529 -0.1267
 1945TIP3    H127250   2.912   5.530  16.069  0.0660  0.3218  0.5709
 1945TIP3    H227251   3.050   5.478  16.035  0.2103 -0.7336  2.5878
 1946TIP3   OH227252   6.386   3.396   3.951 -0.1800 -0.2163  0.0601
 1946TIP3    H127253   6.377   3.312   3.995  1.3126 -0.4884 -0.1052
 1946TIP3    H227254   6.465   3.434   3.988  0.4598  0.0735 -1.5335
 1947TIP3   OH227255   4.890   4.257   5.865 -0.1724  0.8162 -0.0601
 1947TIP3    H127256   4.962   4.263   5.928  0.0765 -0.0466 -0.2518
 1947TIP3    H227257   4.874   4.348   5.838  2.4999  0.8540 -1.8830
 1948TIP3   OH227258   1.525   5.107  17.336 -0.2499 -0.4470 -0.1747
 1948TIP3    H127259   1.571   5.131  17.255  1.4744 -0.5491  0.7230
 1948TIP3    H227260   1.569   5.027  17.365 -0.4035 -0.0594  1.1921
 1949TIP3   OH227261   3.535   4.660  10.934 -0.2482  0.2689  0.7160
 1949TIP3    H127262   3.579   4.712  10.867 -1.1096  0.1626  0.0501
 1949TIP3    H227263   3.603   4.601  10.967  0.1501  0.1979 -0.1982
 1950TIP3   OH227264   3.034   3.190   1.461 -0.3867  0.0900  0.2949
 1950TIP3    H127265   2.998   3.158   1.378 -1.3032 -0.5004  0.8926
 1950TIP3    H227266   3.067   3.111   1.504  0.3301  0.4344  0.3835
 1951TIP3   OH227267   3.313   6.246   5.292  0.3775 -0.1049 -0.1617
 1951TIP3    H127268   3.370   6.319   5.267  0.5229 -0.7472 -1.9119
 1951TIP3    H227269   3.338   6.226   5.382  1.4507  0.9774 -0.1839
 1952TIP3   OH227270   6.284   4.958  17.324 -0.0288 -0.0635 -0.5586
 1952TIP3    H127271   6.358   4.950  17.265  0.2619  1.0340 -0.3752
 1952TIP3    H227272   6.299   4.891  17.391  1.3187  0.7638  0.0042
 1953TIP3   OH227273   0.875   1.969  13.284 -0.0173  0.2814  0.7921
 1953TIP3    H127274   0.806   1.999  13.344 -0.2277  1.0601  0.1707
 1953TIP3    H227275   0.831   1.963  13.199  0.7287  0.9674  0.3492
 1954TIP3   OH227276   5.454   3.494   1.432  0.5375 -0.2456 -0.2977
 1954TIP3    H127277   5.474   3.510   1.525  0.5135  0.5368 -0.4178
 1954TIP3    H227278   5.518   3.427   1.405 -1.1954 -2.5569  0.9594
 1955TIP3   OH227279   3.661   0.414   1.088 -0.0040 -0.4561 -0.4264
 1955TIP3    H127280   3.667   0.320   1.073 -0.2606 -0.3503 -1.2340
 1955TIP3    H227281   3.648   0.452   1.000  0.6229  0.3696 -0.1844
 1956TIP3   OH227282   2.218   3.084  11.724 -0.0174 -0.5463 -0.3840
 1956TIP3    H127283   2.151   3.029  11.684 -0.2479 -0.9028  0.4835
 1956TIP3    H227284   2.229   3.049  11.812  3.0549 -2.1277 -1.2261
 1957TIP3   OH227285   5.860   0.959  11.915  0.2528  0.0269  0.2126
 1957TIP3    H127286   5.772   0.943  11.948  0.1883 -0.4771 -0.1848
 1957TIP3    H227287   5.848   1.021  11.842  0.2318 -0.0317  0.1666
 1958TIP3   OH227288   1.332   5.646   5.433 -0.2490  0.0783  0.2887
 1958TIP3    H127289   1.329   5.738   5.461  3.2233  0.3604  0.2545
 1958TIP3    H227290   1.297   5.597   5.507 -2.4118  1.3914  0.2138
 1959TIP3   OH227291   6.262   1.889  14.445 -0.0096 -0.4106  0.2524
 1959TIP3    H127292   6.279   1.902  14.539 -1.4591  1.4429  0.3146
 1959TIP3    H227293   6.346   1.905  14.403 -0.0554  2.1394  1.0094
 1960TIP3   OH227294   4.288   0.143   1.746 -0.1233 -0.1502 -0.9057
 1960TIP3    H127295   4.354   0.077   1.724  0.1842 -0.1770  0.0104
 1960TIP3    H227296   4.206   0.094   1.752 -0.0568 -0.2879 -1.1117
 1961TIP3   OH227297   1.782   3.366   3.809 -0.2297  0.2665 -0.3072
 1961TIP3    H127298   1.793   3.407   3.895 -0.7264  0.8927 -0.5443
 1961TIP3    H227299   1.768   3.273   3.829 -1.6129  0.6010  0.3619
 1962TIP3   OH227300   0.230   3.771  12.535  0.0970  0.0507 -0.0108
 1962TIP3    H127301   0.304   3.769  12.596 -0.0568  1.1926  0.2519
 1962TIP3    H227302   0.265   3.736  12.453  0.4043 -1.1665  0.6272
 1963TIP3   OH227303   1.930   2.520   4.572 -0.0860 -0.0495  0.5890
 1963TIP3    H127304   1.900   2.573   4.645  1.8486 -1.5194  2.6228
 1963TIP3    H227305   1.886   2.435   4.584  2.1133 -1.1220  1.6392
 1964TIP3   OH227306   0.389   2.516   0.141  0.4469 -1.0398  0.2000
 1964TIP3    H127307   0.471   2.565   0.148 -0.3723  0.2820  1.0384
 1964TIP3    H227308   0.405   2.451   0.072  1.3930  0.7924 -1.3949
 1965TIP3   OH227309   0.761   6.745  16.156  0.4485 -0.2350  0.1640
 1965TIP3    H127310   0.818   6.803  16.106  1.0283 -1.5367 -0.7413
 1965TIP3    H227311   0.748   6.669  16.099  0.7545 -1.5738  1.8005
 1966TIP3   OH227312   1.413   5.663  14.965 -0.6019 -0.1172  0.0043
 1966TIP3    H127313   1.323   5.694  14.973 -0.2871  0.4940  1.5968
 1966TIP3    H227314   1.444   5.655  15.055  0.7823 -0.8069 -0.4948
 1967TIP3   OH227315   2.051   1.029  12.619  0.2241 -0.1959 -0.1321
 1967TIP3    H127316   2.108   0.965  12.577 -2.4402 -2.8388 -0.0384
 1967TIP3    H227317   2.061   1.108  12.564  0.2638 -2.0915 -3.0999
 1968TIP3   OH227318   1.590   1.909  15.996 -0.5281  0.1474  0.4879
 1968TIP3    H127319   1.516   1.955  15.957  0.8198  1.3664 -0.7457
 1968TIP3    H227320   1.652   1.978  16.019  0.5668 -0.8954  0.7590
 1969TIP3   OH227321   2.376   4.502  15.344  0.6548 -0.4282 -0.0950
 1969TIP3    H127322   2.328   4.538  15.269  1.1865 -0.8832 -0.6657
 1969TIP3    H227323   2.335   4.417  15.360 -0.7447  0.4845  1.3903
 1970TIP3   OH227324   1.716   2.138  12.936 -0.3166  0.2955 -0.6725
 1970TIP3    H127325   1.631   2.096  12.947  0.1529 -0.4488  0.2272
 1970TIP3    H227326   1.722   2.201  13.008  0.0859  0.0220 -0.4680
 1971TIP3   OH227327   2.922   1.847   0.505 -0.1979  0.2238 -0.3285
 1971TIP3    H127328   2.922   1.888   0.591 -3.3546 -1.7883  0.8161
 1971TIP3    H227329   2.901   1.918   0.444  0.8028  1.4271  0.6792
 1972TIP3   OH227330   2.103   3.469   4.123  0.6503  0.5329 -0.6114
 1972TIP3    H127331   2.081   3.376   4.115 -1.5220  0.8870  0.3801
 1972TIP3    H227332   2.198   3.471   4.120  0.7794 -1.7459 -0.4596
 1973TIP3   OH227333   3.759   4.727   4.544  0.4150 -0.1918  0.1327
 1973TIP3    H127334   3.683   4.733   4.602 -1.0680 -2.4705 -1.3907
 1973TIP3    H227335   3.796   4.640   4.563 -0.0867 -0.9813 -2.1739
 1974TIP3   OH227336   5.181   0.732   5.392 -0.0254 -0.2092 -0.4846
 1974TIP3    H127337   5.092   0.754   5.365 -0.3115 -0.6098  0.1103
 1974TIP3    H227338   5.173   0.646   5.434  0.2192  0.7443  1.6780
 1975TIP3   OH227339   1.811   5.091  15.138  0.6638 -0.2913 -0.3495
 1975TIP3    H127340   1.730   5.124  15.178  0.1822 -1.3052 -0.4610
 1975TIP3    H227341   1.866   5.067  15.212  1.6305  2.0769 -0.2141
 1976TIP3   OH227342   2.263   4.211   5.122 -0.1781 -0.0467 -0.0582
 1976TIP3    H127343   2.242   4.277   5.188 -0.8244 -1.7014  1.4699
 1976TIP3    H227344   2.210   4.235   5.046 -1.9563  0.0618  1.1670
 1977TIP3   OH227345   2.773   0.432  11.038  0.1697  0.6704  0.2520
 1977TIP3    H127346   2.861   0.420  11.003 -0.2021 -1.5078 -0.0689
 1977TIP3    H227347   2.738   0.506  10.988  1.9895  1.9713  0.8127
 1978TIP3   OH227348   2.740   5.148   3.439 -0.0176 -0.4679 -0.1921
 1978TIP3    H127349   2.813   5.204   3.413  0.7763 -1.5285 -0.3501
 1978TIP3    H227350   2.706   5.188   3.518  1.1749 -0.3145  0.2682
 1979TIP3   OH227351   1.802   2.930  16.929 -0.6118 -0.3727 -0.1468
 1979TIP3    H127352   1.730   2.989  16.950 -1.2876 -1.8761  2.1167
 1979TIP3    H227353   1.868   2.948  16.995  0.1552 -0.5463 -0.8559
 1980TIP3   OH227354   0.821   2.230   2.034 -0.2373 -0.0725  0.4066
 1980TIP3    H127355   0.825   2.323   2.012  0.1568  0.1318  1.3192
 1980TIP3    H227356   0.838   2.186   1.950  0.2844  0.6786  0.1029
 1981TIP3   OH227357   5.381   3.644   4.170 -0.1407 -0.0372 -0.2918
 1981TIP3    H127358   5.358   3.668   4.260  1.8319  0.6479  0.0757
 1981TIP3    H227359   5.476   3.653   4.166  0.0921 -2.3029 -1.8123
 1982TIP3   OH227360   6.294   5.169   1.852 -0.5852  0.2962  0.2319
 1982TIP3    H127361   6.209   5.200   1.885 -0.6518 -0.1083  0.4457
 1982TIP3    H227362   6.272   5.122   1.771 -0.4169  1.3260 -0.4274
 1983TIP3   OH227363   4.320   4.273  13.508  0.2314 -0.3998 -0.2400
 1983TIP3    H127364   4.322   4.369  13.509  0.5392 -0.4013 -0.4496
 1983TIP3    H227365   4.260   4.251  13.437 -0.4326 -0.3634  0.3023
 1984TIP3   OH227366   2.125   1.766  11.975 -0.4549  0.0930  0.7429
 1984TIP3    H127367   2.193   1.781  12.041 -1.3695 -0.6904  1.9150
 1984TIP3    H227368   2.079   1.688  12.006  0.1276 -1.3168 -1.7315
 1985TIP3   OH227369   6.479   2.967  14.258  0.3915  0.0062  0.3279
 1985TIP3    H127370   6.539   2.893  14.261  2.6486  1.6316 -1.2436
 1985TIP3    H227371   6.411   2.940  14.196  1.0686 -0.8205 -0.0703
 1986TIP3   OH227372   3.802   4.556   0.927  0.3124  0.8609  0.4252
 1986TIP3    H127373   3.838   4.539   1.015 -0.1244  1.5036  0.7295
 1986TIP3    H227374   3.728   4.614   0.942 -0.7636 -0.3064 -0.2176
 1987TIP3   OH227375   2.689   5.150  11.621  0.5765 -0.7548 -0.1468
 1987TIP3    H127376   2.605   5.109  11.604 -0.3049  0.2416  1.5646
 1987TIP3    H227377   2.708   5.200  11.541 -1.3756  0.4670  0.0813
 1988TIP3   OH227378   4.977   6.251   2.500 -0.3689 -0.3476  0.5788
 1988TIP3    H127379   5.072   6.261   2.511 -0.5017 -0.4366  1.9862
 1988TIP3    H227380   4.946   6.340   2.482  0.0978 -0.4895 -1.0864
 1989TIP3   OH227381   5.021   6.170   3.939  0.7032  0.2509 -0.5083
 1989TIP3    H127382   5.102   6.218   3.918  0.7426  0.2224 -0.4187
 1989TIP3    H227383   5.046   6.078   3.931  0.8287  0.2326  0.0878
 1990TIP3   OH227384   5.628   1.365  11.837  0.0006  0.3153 -0.1645
 1990TIP3    H127385   5.566   1.323  11.896 -0.4375  1.2767  0.0716
 1990TIP3    H227386   5.586   1.362  11.751  0.1722 -0.1321 -0.2354
 1991TIP3   OH227387   5.321   0.235  13.814  0.3799  0.5735  0.3851
 1991TIP3    H127388   5.239   0.275  13.784  0.4511  0.1735 -0.3823
 1991TIP3    H227389   5.387   0.301  13.797  0.6392 -0.1279 -1.7379
 1992TIP3   OH227390   4.103   3.169   0.574 -0.2790 -0.1921 -0.4050
 1992TIP3    H127391   4.115   3.219   0.493  0.1620 -1.7423 -1.3323
 1992TIP3    H227392   4.029   3.211   0.617 -1.0869  0.1315 -2.0415
 1993TIP3   OH227393   6.164   1.671  16.311 -0.1059 -0.1281  0.3061
 1993TIP3    H127394   6.137   1.587  16.348 -1.2633 -0.0195 -0.2555
 1993TIP3    H227395   6.205   1.648  16.228  0.1168 -0.1777  0.4290
 1994TIP3   OH227396   3.661   0.958   1.855  0.3207 -0.4652  0.6247
 1994TIP3    H127397   3.700   0.883   1.809  1.2466 -0.5139  1.4493
 1994TIP3    H227398   3.734   0.998   1.902 -0.2963  0.5471  0.7657
 1995TIP3   OH227399   3.742   4.894   5.557 -0.2630 -0.0721 -0.1452
 1995TIP3    H127400   3.730   4.984   5.527 -1.1144 -0.4526 -0.9983
 1995TIP3    H227401   3.793   4.902   5.638  0.0893  1.1336 -0.4701
 1996TIP3   OH227402   3.160   5.164  14.480 -0.4204 -0.1269  0.2715
 1996TIP3    H127403   3.225   5.219  14.436  0.3186  0.1593  1.6676
 1996TIP3    H227404   3.131   5.103  14.413 -0.2041  1.0368 -0.9296
 1997TIP3   OH227405   1.247   5.989   1.390 -0.0548 -0.7590 -0.3746
 1997TIP3    H127406   1.301   5.914   1.366  1.1268  0.2052 -0.8376
 1997TIP3    H227407   1.258   5.997   1.485  0.9271 -0.3772 -0.5018
 1998TIP3   OH227408   3.236   5.315  16.959  0.0191  0.2168  0.1728
 1998TIP3    H127409   3.238   5.320  17.055  1.1459 -2.7917  0.4027
 1998TIP3    H227410   3.285   5.392  16.931 -2.2232  2.4407  1.8425
 1999TIP3   OH227411   2.990   4.888   3.367 -0.2112  0.1269  0.0666
 1999TIP3    H127412   3.020   4.940   3.293 -0.3637 -0.8113 -0.6765
 1999TIP3    H227413   3.063   4.828   3.386 -0.5686 -0.3478 -0.0227
 2000TIP3   OH227414   4.182   4.104  13.249 -0.0163 -0.5825  0.3473
 2000TIP3    H127415   4.201   4.117  13.157 -0.2492 -0.9461  0.2462
 2000TIP3    H227416   4.198   4.011  13.264 -0.1206 -0.5537  0.6397
 2001TIP3   OH227417   6.545   5.553  14.487 -0.5942 -0.4904 -0.4880
 2001TIP3    H127418   6.471   5.570  14.428 -0.8270 -3.1566 -1.0799
 2001TIP3    H227419   6.520   5.474  14.535 -0.3036  1.3547  3.1102
 2002TIP3   OH227420   1.070   1.850  14.287  0.6118  0.2465 -0.6179
 2002TIP3    H127421   0.998   1.860  14.349  0.7920  0.5545 -0.4562
 2002TIP3    H227422   1.120   1.775  14.320 -0.6887 -1.1773 -1.7778
 2003TIP3   OH227423   3.167   4.094   2.979 -0.7253  0.4207  0.0822
 2003TIP3    H127424   3.218   4.140   3.045  0.4469  2.1708 -1.9307
 2003TIP3    H227425   3.232   4.064   2.915 -1.9747  0.7155 -1.3878
 2004TIP3   OH227426   2.275   4.993   0.393  0.3650 -0.2708  0.0979
 2004TIP3    H127427   2.306   5.017   0.480  0.9975 -1.7582  0.3029
 2004TIP3    H227428   2.187   4.960   0.407  0.4947 -0.5803  0.1855
 2005TIP3   OH227429   1.763   5.804   2.267  0.4234  0.0948 -0.2273
 2005TIP3    H127430   1.838   5.771   2.218  0.9943  0.9161  0.0608
 2005TIP3    H227431   1.712   5.726   2.289  1.3608 -0.5149 -0.1469
 2006TIP3   OH227432   3.838   1.547  16.151 -0.2474  0.4194  0.5155
 2006TIP3    H127433   3.817   1.601  16.075 -0.9781  0.4427  0.7208
 2006TIP3    H227434   3.754   1.506  16.174  0.3249 -0.9220  0.2647
 2007TIP3   OH227435   0.545   5.903   3.919  0.7260 -0.1978  0.6166
 2007TIP3    H127436   0.452   5.885   3.932  0.2979  1.0680 -0.4587
 2007TIP3    H227437   0.582   5.819   3.894 -0.8085 -0.0990 -2.3753
 2008TIP3   OH227438   6.466   4.270   2.640 -0.3487 -0.0641  0.3460
 2008TIP3    H127439   6.398   4.203   2.645  0.1961 -0.5565  1.6903
 2008TIP3    H227440   6.533   4.232   2.584 -0.4457 -0.2750  0.3729
 2009TIP3   OH227441   5.070   4.604   3.615 -0.2140  0.0527  0.5762
 2009TIP3    H127442   5.145   4.580   3.669 -0.6933 -0.0675  1.1967
 2009TIP3    H227443   5.046   4.523   3.570  0.6960  0.3396 -0.4761
 2010TIP3   OH227444   3.829   3.790   6.355  0.9559  0.0702  0.1888
 2010TIP3    H127445   3.869   3.711   6.390  1.2037  0.1055 -0.0133
 2010TIP3    H227446   3.750   3.804   6.409  0.4159 -0.8168 -0.3531
 2011TIP3   OH227447   4.497   1.288   0.390 -0.1028 -0.0530  0.3538
 2011TIP3    H127448   4.481   1.207   0.340 -1.0249  1.6703 -2.3588
 2011TIP3    H227449   4.421   1.295   0.447 -0.3105 -0.7948  0.1900
 2012TIP3   OH227450   2.991   0.059   0.014 -0.7420 -0.2582  0.4352
 2012TIP3    H127451   2.984   0.007  -0.067  0.0237  1.0115 -0.4821
 2012TIP3    H227452   3.046   0.006   0.072  0.8952 -0.0711 -0.8717
 2013TIP3   OH227453   1.353   1.291   3.283 -0.1770  0.0372  0.4518
 2013TIP3    H127454   1.431   1.254   3.326 -0.7959 -1.1452  0.5799
 2013TIP3    H227455   1.386   1.325   3.200  0.4177 -0.8167  0.3237
 2014TIP3   OH227456   3.831   2.315   4.635 -0.5289 -1.3838 -0.0524
 2014TIP3    H127457   3.838   2.292   4.543 -0.7167  1.2661 -0.8149
 2014TIP3    H227458   3.742   2.351   4.644  0.5267  1.3448  0.3399
 2015TIP3   OH227459   4.476   2.036  14.647  0.3225  0.3661 -0.3389
 2015TIP3    H127460   4.396   1.999  14.685  0.8816 -0.4211  0.0905
 2015TIP3    H227461   4.466   2.024  14.553 -0.2355  0.6336 -0.3206
 2016TIP3   OH227462   3.844   2.918  13.211  0.3183  0.0891 -0.0084
 2016TIP3    H127463   3.843   2.987  13.278 -1.0770  0.3197 -0.2493
 2016TIP3    H227464   3.934   2.884  13.214  0.8277  1.4098  0.6271
 2017TIP3   OH227465   2.985   4.193   3.922  0.1098 -0.2896  0.1878
 2017TIP3    H127466   3.074   4.178   3.890  0.4216  0.1444  0.8311
 2017TIP3    H227467   2.975   4.288   3.924 -0.7378 -0.3418 -0.8608
 2018TIP3   OH227468   6.547   4.817  14.074 -0.3677 -0.6674  0.0876
 2018TIP3    H127469   6.487   4.744  14.089  1.0186 -1.9279 -0.2883
 2018TIP3    H227470   6.611   4.810  14.145  0.9593 -1.1067 -1.1024
 2019TIP3   OH227471   6.710   3.782  15.714  0.4856  0.5880  0.3989
 2019TIP3    H127472   6.759   3.854  15.752 -1.6574  1.8844  0.9014
 2019TIP3    H227473   6.648   3.757  15.783 -0.7773  0.2728 -0.8086
 2020TIP3   OH227474   3.676   5.950   3.964 -0.1911  0.3287  0.5162
 2020TIP3    H127475   3.649   5.916   3.878  0.1608 -0.3424  0.6695
 2020TIP3    H227476   3.646   5.884   4.026  1.9204 -0.5457  0.6875
 2021TIP3   OH227477   5.954   6.309   2.863  0.5725 -0.5195  0.5449
 2021TIP3    H127478   5.895   6.375   2.899  1.2988  0.6258 -0.3055
 2021TIP3    H227479   6.021   6.359   2.817  1.4938 -1.8359  0.3965
 2022TIP3   OH227480   5.666   0.764   2.121 -0.8197 -0.4115  0.1509
 2022TIP3    H127481   5.664   0.772   2.217  0.6235  0.4057  0.1423
 2022TIP3    H227482   5.645   0.672   2.104 -2.3425 -0.2872  1.1650
 2023TIP3   OH227483   1.239   6.410   1.311 -0.1237 -0.0857  0.0008
 2023TIP3    H127484   1.256   6.472   1.241  3.3314 -0.2908  0.4822
 2023TIP3    H227485   1.277   6.450   1.389  2.3479 -2.6913  0.3141
 2024TIP3   OH227486   3.463   4.026  12.777 -0.2090  0.2603  0.2713
 2024TIP3    H127487   3.454   3.933  12.800 -2.5110  0.3911  0.1017
 2024TIP3    H227488   3.536   4.057  12.831 -1.1861 -0.9993  2.4496
 2025TIP3   OH227489   3.017   0.324   1.722  0.9018  0.1499 -0.1908
 2025TIP3    H127490   3.037   0.271   1.799  0.1672 -0.3476 -0.3288
 2025TIP3    H227491   3.070   0.403   1.733 -0.3500  0.7917  1.6130
 2026TIP3   OH227492   2.022   3.775  11.838 -0.0136 -0.1926  0.2964
 2026TIP3    H127493   2.083   3.849  11.828  3.3623 -2.6108  1.1840
 2026TIP3    H227494   2.013   3.740  11.749  0.7085 -0.3597  0.2788
 2027TIP3   OH227495   4.715   3.129   0.854  0.4484 -0.3375  1.1025
 2027TIP3    H127496   4.743   3.173   0.935  0.5347  0.8638  0.4484
 2027TIP3    H227497   4.795   3.118   0.803 -0.0417  2.5053 -0.4868
 2028TIP3   OH227498   0.882   4.941  10.386  0.6467  0.7308 -0.0387
 2028TIP3    H127499   0.858   5.030  10.413 -0.2264  0.6601 -0.5265
 2028TIP3    H227500   0.929   4.905  10.461 -0.7864  0.8989  0.9952
 2029TIP3   OH227501   3.725   4.431  10.912  0.1040  0.0915 -0.3794
 2029TIP3    H127502   3.794   4.367  10.892 -0.2671 -0.3552 -0.2285
 2029TIP3    H227503   3.684   4.449  10.828 -1.1666 -1.4557 -0.1197
 2030TIP3   OH227504   2.200   3.235  14.105  0.5152 -0.3044  0.1077
 2030TIP3    H127505   2.152   3.154  14.119 -0.2425  0.0722 -0.2543
 2030TIP3    H227506   2.266   3.213  14.040 -0.1872 -0.4509 -0.5704
 2031TIP3   OH227507   3.232   6.402  16.391  0.5419 -0.1511  0.1806
 2031TIP3    H127508   3.148   6.358  16.399  0.0551 -0.4226 -4.1792
 2031TIP3    H227509   3.251   6.434  16.479 -3.2687 -1.5105  1.6819
 2032TIP3   OH227510   2.881   3.818  15.756 -0.1553  0.0417 -0.0709
 2032TIP3    H127511   2.919   3.740  15.717 -0.4223 -1.1348  1.8771
 2032TIP3    H227512   2.879   3.800  15.850 -1.7692  1.7096  0.2915
 2033TIP3   OH227513   1.745   6.380  12.044 -0.1591 -0.4513 -0.0997
 2033TIP3    H127514   1.729   6.314  12.111  1.2539 -1.0123 -0.2791
 2033TIP3    H227515   1.705   6.460  12.078 -2.5411 -1.5270 -0.2121
 2034TIP3   OH227516   3.423   1.163   3.135  0.0524 -0.2389  0.0350
 2034TIP3    H127517   3.354   1.155   3.200  0.1514  1.0111  0.3273
 2034TIP3    H227518   3.500   1.191   3.185  0.7082 -1.3285 -0.3244
 2035TIP3   OH227519   1.907   1.180  17.303 -0.0685  0.1472 -0.0423
 2035TIP3    H127520   1.969   1.246  17.272  0.4206  0.5800  1.7425
 2035TIP3    H227521   1.834   1.185  17.241  0.6727  1.1976 -0.8791
 2036TIP3   OH227522   4.644   2.462  14.980 -0.5773  0.8226  0.0427
 2036TIP3    H127523   4.587   2.389  14.955 -0.5065  0.8196 -0.1141
 2036TIP3    H227524   4.693   2.429  15.055 -0.0469  0.4519 -0.4462
 2037TIP3   OH227525   1.129   0.001   1.822  0.3907  0.5433 -0.3365
 2037TIP3    H127526   1.147  -0.092   1.833 -1.1654  0.4258  1.8577
 2037TIP3    H227527   1.165   0.023   1.735  1.0330 -1.9978 -0.7801
 2038TIP3   OH227528   3.034   2.905  11.528  0.6122 -0.5479 -0.4365
 2038TIP3    H127529   3.125   2.906  11.557 -0.4004 -1.2378  3.1482
 2038TIP3    H227530   3.027   2.827  11.473  1.7406 -1.7268  1.0108
 2039TIP3   OH227531   2.360   4.373  12.563 -0.3943  0.5931 -0.3843
 2039TIP3    H127532   2.351   4.288  12.520 -0.0532 -0.1242  0.9039
 2039TIP3    H227533   2.425   4.358  12.632 -1.8614  1.3103  1.2331
 2040TIP3   OH227534   4.926   2.432  10.484 -0.3696 -0.3617 -0.0855
 2040TIP3    H127535   4.887   2.362  10.432  0.3629  0.7778 -2.3079
 2040TIP3    H227536   5.020   2.417  10.478 -0.2251  0.5254 -0.1962
 2041TIP3   OH227537   1.438   2.338   1.957 -0.5963  0.1832 -0.4090
 2041TIP3    H127538   1.345   2.361   1.966 -1.1306 -2.1111  0.8981
 2041TIP3    H227539   1.440   2.244   1.974  2.2036  0.4662  1.3975
 2042TIP3   OH227540   4.573   3.103   1.590  0.1114 -0.6119 -0.0697
 2042TIP3    H127541   4.584   3.022   1.640 -0.1193  0.6815  2.2418
 2042TIP3    H227542   4.661   3.124   1.559  0.0595 -2.0632 -1.3131
 2043TIP3   OH227543   3.315   3.657  13.897  0.0305  0.0620 -0.0035
 2043TIP3    H127544   3.236   3.617  13.859  0.3436 -1.7625  1.1631
 2043TIP3    H227545   3.366   3.583  13.931  2.1996  1.1997 -0.5819
 2044TIP3   OH227546   0.573   5.044   3.028 -0.0122 -0.3377  0.5044
 2044TIP3    H127547   0.549   5.136   3.019 -0.6378 -0.2826  2.4139
 2044TIP3    H227548   0.523   5.000   2.960  0.4823  0.7389 -0.6001
 2045TIP3   OH227549   1.596   3.631   3.829 -0.0771  0.3357 -0.2394
 2045TIP3    H127550   1.503   3.615   3.815 -0.4479  2.1121 -0.1216
 2045TIP3    H227551   1.599   3.720   3.864  1.6222  0.0321  0.4596
 2046TIP3   OH227552   3.920   4.892   4.680 -0.6562  0.2477  0.0886
 2046TIP3    H127553   3.870   4.826   4.632 -0.2570 -0.2416  0.3308
 2046TIP3    H227554   3.969   4.939   4.612 -0.2479 -0.3102 -0.0078
 2047TIP3   OH227555   2.649   4.604  13.686 -0.0378  0.1402 -0.4571
 2047TIP3    H127556   2.589   4.544  13.643  0.6422 -0.8907 -0.0213
 2047TIP3    H227557   2.716   4.547  13.724 -0.3152  1.0181  1.4914
 2048TIP3   OH227558   4.737   3.513  13.686  0.0411  0.3419  0.4518
 2048TIP3    H127559   4.748   3.454  13.760  1.8860  0.3868  0.2695
 2048TIP3    H227560   4.807   3.489  13.626  1.0775  2.8686  0.4979
 2049TIP3   OH227561   5.410   1.435  13.210 -0.9406 -0.0731  0.5746
 2049TIP3    H127562   5.492   1.481  13.193 -0.4633 -0.7302  1.0802
 2049TIP3    H227563   5.404   1.431  13.305 -1.0067 -0.9953  0.5377
 2050TIP3   OH227564   1.579   6.235   3.948 -0.3891 -0.4629 -0.4393
 2050TIP3    H127565   1.562   6.268   4.036 -0.3870 -0.9032 -0.2730
 2050TIP3    H227566   1.538   6.299   3.890 -0.4694 -0.2203 -0.1166
 2051TIP3   OH227567   5.540   0.188  12.824  0.1194  0.0064  0.0578
 2051TIP3    H127568   5.599   0.162  12.754 -0.6507  2.5481 -1.6844
 2051TIP3    H227569   5.553   0.282  12.833 -3.1897  0.5989 -0.0558
 2052TIP3   OH227570   2.460   6.552  14.139  0.1361 -0.1385  0.3322
 2052TIP3    H127571   2.466   6.572  14.046  0.7794 -0.1655  0.3639
 2052TIP3    H227572   2.550   6.530  14.165 -0.3168 -1.8998  0.5558
 2053TIP3   OH227573   3.941   3.175   5.474  0.9240  0.0667 -0.0586
 2053TIP3    H127574   3.992   3.169   5.393  0.9848 -1.0889  0.0364
 2053TIP3    H227575   3.878   3.103   5.467 -0.4390  1.2033  0.0200
 2054TIP3   OH227576   4.185   6.403   4.585 -0.7711  0.6533 -0.2791
 2054TIP3    H127577   4.268   6.449   4.598  0.0836 -1.0424  0.7163
 2054TIP3    H227578   4.195   6.355   4.503 -0.7038  0.3639 -0.1060
 2055TIP3   OH227579   4.177   5.721  11.796 -0.3605  0.1796  0.2032
 2055TIP3    H127580   4.100   5.778  11.803  0.5177  1.2664  1.8552
 2055TIP3    H227581   4.181   5.677  11.881  0.7362  0.0026  0.0689
 2056TIP3   OH227582   1.886   4.903  11.131  0.0836  0.4058  0.3595
 2056TIP3    H127583   1.970   4.891  11.087  0.4095  3.1331  0.0709
 2056TIP3    H227584   1.858   4.814  11.154  0.8050 -1.0512 -3.6347
 2057TIP3   OH227585   5.669   3.859  16.252 -0.1952  0.3284  0.1747
 2057TIP3    H127586   5.666   3.849  16.157  1.7131  2.5438 -0.2004
 2057TIP3    H227587   5.724   3.786  16.282 -0.0348  0.1493 -0.5298
 2058TIP3   OH227588   0.770   4.872   5.252  0.5578  0.6231  0.3293
 2058TIP3    H127589   0.776   4.962   5.222  0.1004  0.8032  0.7431
 2058TIP3    H227590   0.789   4.818   5.175 -1.7557  1.0439 -0.6385
 2059TIP3   OH227591   2.294   4.145   4.369  0.0884 -0.4388  0.1574
 2059TIP3    H127592   2.265   4.071   4.315  0.4427  0.0161 -0.6603
 2059TIP3    H227593   2.246   4.134   4.451  0.6971 -2.0087  0.3333
 2060TIP3   OH227594   0.707   1.120   4.245 -0.3326  0.3993 -0.4434
 2060TIP3    H127595   0.730   1.034   4.281  1.8862  1.2383  0.3334
 2060TIP3    H227596   0.622   1.106   4.203  0.0536 -2.2331 -0.5649
 2061TIP3   OH227597   0.757   6.454   3.490  0.3756  0.9053 -0.5497
 2061TIP3    H127598   0.769   6.547   3.508  1.2279  0.4550  1.5234
 2061TIP3    H227599   0.719   6.419   3.571  1.6452 -0.8308 -0.6462
 2062TIP3   OH227600   4.041   5.345  13.175 -0.0604 -0.2684  0.0981
 2062TIP3    H127601   4.069   5.328  13.085  0.0259  2.3767 -0.4454
 2062TIP3    H227602   3.947   5.327  13.174  0.1492 -1.4382 -0.1710
 2063TIP3   OH227603   2.761   3.408   4.880 -0.1733  0.2603 -0.3199
 2063TIP3    H127604   2.836   3.465   4.896 -0.7167  0.7183  0.6757
 2063TIP3    H227605   2.711   3.451   4.812  0.7713 -0.3600 -1.4472
 2064TIP3   OH227606   5.536   0.356   5.832  0.6344  0.0915 -0.1430
 2064TIP3    H127607   5.565   0.316   5.750  1.4371  1.9362 -0.8138
 2064TIP3    H227608   5.495   0.438   5.806 -1.3729 -0.4261  1.1451
 2065TIP3   OH227609   6.321   3.476   2.007  0.0903  0.3711 -0.2753
 2065TIP3    H127610   6.324   3.448   2.098  0.6224  0.1997 -0.3367
 2065TIP3    H227611   6.230   3.502   1.991  0.0195  0.4938  0.3288
 2066TIP3   OH227612   5.160   2.851  12.890 -0.2359  0.2102  0.3311
 2066TIP3    H127613   5.133   2.760  12.904  0.4854 -0.0609  0.0447
 2066TIP3    H227614   5.199   2.851  12.802 -0.6333  0.8977  0.1433
 2067TIP3   OH227615   1.684   3.044   5.972  0.5229  0.1555 -0.2155
 2067TIP3    H127616   1.761   3.028   6.027  1.0090 -0.4497 -1.0341
 2067TIP3    H227617   1.623   3.091   6.028 -0.3068 -3.1216  1.8600
 2068TIP3   OH227618   1.400   2.136  15.427 -0.3506 -0.0893  0.0399
 2068TIP3    H127619   1.415   2.227  15.404  1.9636 -0.5565 -0.5124
 2068TIP3    H227620   1.346   2.102  15.355  1.2584  0.1347 -1.3312
 2069TIP3   OH227621   0.761   0.300   2.810  0.1012 -0.0424  0.0420
 2069TIP3    H127622   0.739   0.320   2.901 -0.7039  0.8795 -0.3490
 2069TIP3    H227623   0.745   0.206   2.802 -2.8867  0.3690  0.0434
 2070TIP3   OH227624   4.637   0.358  15.822 -0.8783  0.0171 -0.3023
 2070TIP3    H127625   4.645   0.285  15.761 -0.7960 -0.1780 -0.0572
 2070TIP3    H227626   4.550   0.395  15.803 -0.7900  0.0507 -0.6410
 2071TIP3   OH227627   5.185   4.575   5.309 -0.0853 -0.7152 -0.0272
 2071TIP3    H127628   5.149   4.555   5.223 -0.2109 -0.7530  0.0332
 2071TIP3    H227629   5.275   4.543   5.306 -0.3273 -1.4384  0.1184
 2072TIP3   OH227630   0.620   1.256   3.965 -0.2065 -0.3639 -0.2799
 2072TIP3    H127631   0.561   1.221   4.032 -1.7140 -0.9126 -1.8208
 2072TIP3    H227632   0.564   1.312   3.911  1.3371  1.3965 -0.1360
 2073TIP3   OH227633   4.746   0.160  13.238 -0.0211 -0.1925  0.0589
 2073TIP3    H127634   4.730   0.133  13.329  0.8868 -1.7551 -0.2212
 2073TIP3    H227635   4.835   0.129  13.219  0.3877  1.4264 -0.9057
 2074TIP3   OH227636   3.076   4.522  13.718 -0.3419 -0.2692  0.1990
 2074TIP3    H127637   3.083   4.603  13.669  0.4797 -0.9102 -0.7802
 2074TIP3    H227638   2.990   4.486  13.695  0.1779 -0.7427 -1.0830
 2075TIP3   OH227639   4.803   3.546  14.028 -0.1486  0.3295  0.1043
 2075TIP3    H127640   4.892   3.521  14.054 -0.4652 -0.0599  0.8461
 2075TIP3    H227641   4.805   3.641  14.025 -0.1289  0.4082  1.7631
 2076TIP3   OH227642   1.409   6.552  15.744 -0.2280 -0.9431  0.0777
 2076TIP3    H127643   1.432   6.459  15.740 -0.0939 -0.9678  1.2661
 2076TIP3    H227644   1.458   6.592  15.672 -0.4021 -1.8077 -0.5374
 2077TIP3   OH227645   0.331   1.646   6.592 -0.0033  0.4715 -0.0451
 2077TIP3    H127646   0.365   1.557   6.605 -1.0269 -0.0026 -0.4834
 2077TIP3    H227647   0.409   1.700   6.580  0.6208 -0.5515 -0.8127
 2078TIP3   OH227648   0.298   6.037   3.749  0.0744  1.0558  0.2204
 2078TIP3    H127649   0.280   6.069   3.837  0.3451  0.5409  0.4651
 2078TIP3    H227650   0.257   5.951   3.746 -0.9890  1.5726 -0.5623
 2079TIP3   OH227651   2.862   6.264   1.792 -0.3004 -0.3102  0.0089
 2079TIP3    H127652   2.800   6.301   1.855 -2.0113 -1.9785 -0.5906
 2079TIP3    H227653   2.809   6.206   1.738  1.9819 -2.7334  0.1604
 2080TIP3   OH227654   3.140   3.502  15.476 -0.2143  0.1389 -0.1895
 2080TIP3    H127655   3.119   3.595  15.482  0.3072  0.2493  0.0067
 2080TIP3    H227656   3.224   3.499  15.430  0.5222 -0.1202  1.1139
 2081TIP3   OH227657   5.064   4.844   3.464 -0.1347  0.2400 -0.2214
 2081TIP3    H127658   4.993   4.883   3.516 -1.0148 -1.2350 -0.2642
 2081TIP3    H227659   5.083   4.761   3.507 -0.1070 -0.4918 -1.5972
 2082TIP3   OH227660   0.867   5.140   0.447  0.0538 -0.8103  0.5796
 2082TIP3    H127661   0.935   5.182   0.394 -0.1381 -0.5508  0.5356
 2082TIP3    H227662   0.814   5.213   0.479 -0.3093 -1.0215  0.4674
 2083TIP3   OH227663   6.266   0.994  15.129 -0.0748  0.0461 -0.1257
 2083TIP3    H127664   6.258   0.997  15.034  1.2154  0.2237 -0.2557
 2083TIP3    H227665   6.303   1.079  15.152 -1.1055  0.3069  0.6318
 2084TIP3   OH227666   2.341   0.559   1.020 -0.2030  0.3961  0.0886
 2084TIP3    H127667   2.341   0.467   0.993 -0.6719  0.5161 -0.3203
 2084TIP3    H227668   2.251   0.588   1.008  0.4350  1.6546 -2.3979
 2085TIP3   OH227669   4.518   1.399  15.355 -0.4119  0.2116  0.2263
 2085TIP3    H127670   4.497   1.438  15.269 -3.1702 -1.9764 -0.2263
 2085TIP3    H227671   4.588   1.337  15.336 -0.3225  0.4441 -0.2383
 2086TIP3   OH227672   2.889   3.650  14.902 -0.5934  0.0292 -0.0140
 2086TIP3    H127673   2.961   3.704  14.868  0.8524 -0.8566  1.4660
 2086TIP3    H227674   2.860   3.696  14.981  0.2436 -0.9718  0.9191
 2087TIP3   OH227675   6.460   2.212   0.723  0.2199 -0.7543  0.6982
 2087TIP3    H127676   6.383   2.237   0.672  1.4002  0.6606 -0.4819
 2087TIP3    H227677   6.455   2.265   0.802  0.9529  0.8363 -0.2676
 2088TIP3   OH227678   6.359   3.476   2.285 -0.5053  0.1018 -0.2532
 2088TIP3    H127679   6.280   3.519   2.317 -1.8124 -0.4828 -2.5003
 2088TIP3    H227680   6.366   3.396   2.338 -1.4505  0.1435 -0.0590
 2089TIP3   OH227681   5.730   1.673   5.916 -0.3523 -0.3299  0.8475
 2089TIP3    H127682   5.784   1.594   5.915 -0.5125 -0.4585 -1.0002
 2089TIP3    H227683   5.744   1.713   5.830 -0.1129  1.7930  1.7905
 2090TIP3   OH227684   5.038   4.986  15.148  0.4073 -0.2521  0.0046
 2090TIP3    H127685   5.088   5.035  15.213 -0.9446  0.3287  0.6354
 2090TIP3    H227686   4.972   5.048  15.117 -0.0361 -1.0523 -0.6805
 2091TIP3   OH227687   2.567   3.754   6.011  0.1507  0.8319  0.0393
 2091TIP3    H127688   2.490   3.811   6.003  0.7493  1.7144  0.4036
 2091TIP3    H227689   2.531   3.665   6.007 -1.0221  1.2026  1.3266
 2092TIP3   OH227690   1.407   5.700  12.979 -0.1198 -0.1034 -0.0121
 2092TIP3    H127691   1.485   5.679  13.031  0.6324  2.8144  0.1780
 2092TIP3    H227692   1.431   5.677  12.889  0.9299  0.6632  0.0583
 2093TIP3   OH227693   1.083   5.536  16.772 -0.1936  0.6463 -0.6835
 2093TIP3    H127694   1.170   5.533  16.811 -0.2536 -0.6705 -0.5913
 2093TIP3    H227695   1.090   5.599  16.700  0.8224  0.5556 -0.6755
 2094TIP3   OH227696   2.365   5.353  14.997  0.0719 -0.6220  0.1265
 2094TIP3    H127697   2.325   5.438  14.980  0.5597 -0.1438  1.2568
 2094TIP3    H227698   2.455   5.362  14.964  0.3221 -0.4678  0.8373
 2095TIP3   OH227699   1.129   4.968  10.587 -0.1841 -0.1065  0.3086
 2095TIP3    H127700   1.187   4.948  10.660  0.7662  0.3002 -0.3148
 2095TIP3    H227701   1.090   5.052  10.610 -0.7834 -0.5324  0.8772
 2096TIP3   OH227702   0.449   6.501  15.913 -0.3293 -0.0163  0.0726
 2096TIP3    H127703   0.374   6.444  15.929 -0.7579  0.3578 -0.5567
 2096TIP3    H227704   0.475   6.481  15.823  0.2590 -0.0595  0.2474
 2097TIP3   OH227705   0.064   1.505   3.713 -0.1963  0.1193  0.1995
 2097TIP3    H127706  -0.026   1.534   3.725 -0.2949  0.9226 -1.9776
 2097TIP3    H227707   0.117   1.585   3.720  0.0748  0.0463 -0.7410
 2098TIP3   OH227708   0.397   3.939  13.754 -0.6957 -0.4453 -0.5704
 2098TIP3    H127709   0.371   3.896  13.836 -1.9723 -0.8136 -1.1354
 2098TIP3    H227710   0.314   3.953  13.707 -0.0892  0.6506 -1.3741
 2099TIP3   OH227711   6.682   2.807   1.914 -0.0612 -0.1401  0.0952
 2099TIP3    H127712   6.634   2.726   1.896 -0.1845  0.3102 -1.7242
 2099TIP3    H227713   6.766   2.796   1.871  0.0790  0.5424  0.1819
 2100TIP3   OH227714   1.799   5.366   2.600 -0.2313  0.2092 -0.0564
 2100TIP3    H127715   1.870   5.410   2.646 -0.9395 -0.6729  1.9828
 2100TIP3    H227716   1.839   5.334   2.519  1.9590 -1.0113  1.3941
 2101TIP3   OH227717   3.028   3.285  12.628  0.1422  0.4358 -0.2475
 2101TIP3    H127718   2.953   3.232  12.651 -0.9294  2.4363  1.2048
 2101TIP3    H227719   3.103   3.240  12.668 -0.9125  0.6841  2.2208
 2102TIP3   OH227720   6.021   0.777   4.922 -0.1691 -0.0083  0.3998
 2102TIP3    H127721   5.975   0.777   5.006  0.0920  1.0664  0.5500
 2102TIP3    H227722   6.098   0.722   4.937  0.1384  0.5772  1.0171
 2103TIP3   OH227723   5.440   5.302  11.664  0.1590 -0.0864  0.5987
 2103TIP3    H127724   5.376   5.331  11.599  0.6024  4.0979  1.7174
 2103TIP3    H227725   5.520   5.287  11.613  0.1019  1.6459 -0.0853
 2104TIP3   OH227726   1.966   5.632   2.218 -0.0715  0.1955 -0.2882
 2104TIP3    H127727   1.912   5.554   2.204 -2.6391  1.6262  0.8107
 2104TIP3    H227728   2.008   5.618   2.302 -0.2788 -0.1223 -0.2377
 2105TIP3   OH227729   4.854   2.805  11.405 -0.5652 -0.1698 -0.6020
 2105TIP3    H127730   4.940   2.820  11.364 -0.2456 -3.8479 -1.6335
 2105TIP3    H227731   4.794   2.796  11.331 -1.8298  1.9129  0.1099
 2106TIP3   OH227732   6.700   1.840  12.769 -0.1391 -0.0725  0.0771
 2106TIP3    H127733   6.652   1.818  12.849 -1.2122  0.4298 -0.3975
 2106TIP3    H227734   6.631   1.860  12.705  0.7099  0.8248 -0.5925
 2107TIP3   OH227735   3.723   3.462  15.302  0.1320 -0.2770  0.5278
 2107TIP3    H127736   3.700   3.409  15.226  0.2896  1.2742 -0.6517
 2107TIP3    H227737   3.817   3.447  15.315  0.1333 -0.4300  0.3351
 2108TIP3   OH227738   5.878   3.124  16.788  0.3974  0.4351  0.5721
 2108TIP3    H127739   5.903   3.151  16.699 -0.0712 -0.0056  0.3051
 2108TIP3    H227740   5.838   3.202  16.826  0.1253  0.4761  0.2124
 2109TIP3   OH227741   5.230   6.051  12.763 -0.1963 -0.6534 -0.4906
 2109TIP3    H127742   5.232   6.095  12.678  0.8089  3.0394  1.2328
 2109TIP3    H227743   5.146   6.007  12.765 -1.3793  1.2889 -2.4824
 2110TIP3   OH227744   0.699   4.712  11.440  0.6251 -0.2585 -0.6050
 2110TIP3    H127745   0.716   4.769  11.365 -1.8193 -0.3399 -1.3039
 2110TIP3    H227746   0.649   4.767  11.500 -3.0498 -1.8619 -1.9053
 2111TIP3   OH227747   1.579   0.311  13.573 -0.3183  0.1622  0.0745
 2111TIP3    H127748   1.508   0.318  13.637 -0.7591  0.2728 -0.4168
 2111TIP3    H227749   1.604   0.218  13.575 -1.5782 -0.2247 -0.8977
 2112TIP3   OH227750   2.034   2.029  13.056  0.4935 -1.2731  0.3892
 2112TIP3    H127751   2.062   1.938  13.068  0.6981 -1.0160  2.0130
 2112TIP3    H227752   2.114   2.080  13.066 -0.1296 -0.6852  2.9265
 2113TIP3   OH227753   1.782   5.846   5.623  0.1687 -0.1842 -0.8946
 2113TIP3    H127754   1.800   5.753   5.631 -2.8359 -0.6915  2.6031
 2113TIP3    H227755   1.713   5.852   5.556  0.3402 -0.4586 -1.0961
 2114TIP3   OH227756   2.142   0.141   1.807 -0.3817  0.1703  0.0658
 2114TIP3    H127757   2.096   0.154   1.724  0.7066 -1.1479 -0.7844
 2114TIP3    H227758   2.075   0.158   1.874 -1.9459 -1.0764 -1.0982
 2115TIP3   OH227759   0.736   6.407   0.847 -0.6968  0.1824 -0.3398
 2115TIP3    H127760   0.663   6.397   0.908  0.0249  1.8338  0.8969
 2115TIP3    H227761   0.722   6.493   0.808  0.1724  0.1903 -0.6536
 2116TIP3   OH227762   0.489   6.580   4.554 -0.9487  0.4798 -0.4507
 2116TIP3    H127763   0.479   6.640   4.628  2.1631  0.0223  0.4994
 2116TIP3    H227764   0.448   6.626   4.481 -0.8554  2.6787  0.7616
 2117TIP3   OH227765   5.293   2.257  13.887 -0.3225  0.1438  0.0628
 2117TIP3    H127766   5.339   2.231  13.808  0.7443  1.7563  0.1142
 2117TIP3    H227767   5.210   2.209  13.883 -0.2715  0.1535 -1.9819
 2118TIP3   OH227768   2.715   2.548  15.996 -0.3744 -0.3098  0.3261
 2118TIP3    H127769   2.629   2.521  15.964  0.6087 -1.1407 -1.8127
 2118TIP3    H227770   2.730   2.497  16.076 -1.3236 -1.1047  0.0001
 2119TIP3   OH227771   6.288   1.659  15.604 -0.3277  0.4205 -0.0964
 2119TIP3    H127772   6.200   1.645  15.570  0.2656  1.2808 -2.1515
 2119TIP3    H227773   6.293   1.753  15.621  0.3851  0.5134 -0.7194
 2120TIP3   OH227774   3.576   2.977   5.032 -0.5037  0.0636 -0.3677
 2120TIP3    H127775   3.597   2.950   5.121 -2.2710  1.3154  0.4912
 2120TIP3    H227776   3.621   3.060   5.021  2.0232 -1.3468 -1.7425
 2121TIP3   OH227777   0.894   2.456  13.769  0.0069  0.3633  0.2202
 2121TIP3    H127778   0.800   2.442  13.760  0.1889 -0.6951 -0.1609
 2121TIP3    H227779   0.928   2.373  13.803  0.6328  1.1762  1.6612
 2122TIP3   OH227780   0.342   4.145  16.717 -0.3171 -0.4860  0.5051
 2122TIP3    H127781   0.428   4.170  16.751  0.1999 -1.1042 -0.3009
 2122TIP3    H227782   0.361   4.090  16.642 -1.4193  0.3237 -0.4159
 2123TIP3   OH227783   4.068   4.568   4.513  0.3456 -0.0817  0.4007
 2123TIP3    H127784   4.054   4.663   4.512 -0.0578 -0.1051 -1.6614
 2123TIP3    H227785   4.005   4.535   4.577 -1.1937  0.8819 -0.5202
 2124TIP3   OH227786   5.962   0.754  15.731  0.2238 -0.1260  0.0404
 2124TIP3    H127787   5.970   0.664  15.761 -0.4555 -0.2968 -0.2737
 2124TIP3    H227788   6.044   0.795  15.757  0.3657 -0.7223  0.5610
 2125TIP3   OH227789   5.932   2.197  12.688  0.2475  0.2722  0.5102
 2125TIP3    H127790   5.978   2.229  12.611 -1.0511 -0.1605 -0.4803
 2125TIP3    H227791   5.860   2.259  12.701  2.0934  2.0760  3.1985
 2126TIP3   OH227792   3.974   3.930   5.394 -0.7076  0.6393  0.1119
 2126TIP3    H127793   4.025   3.883   5.460  0.1513  1.3734 -0.0166
 2126TIP3    H227794   3.884   3.928   5.427 -0.2803  1.0691  1.3392
 2127TIP3   OH227795   4.511   6.062  14.460  0.3595  0.9969 -0.5212
 2127TIP3    H127796   4.571   6.068  14.535  0.4614  0.9705 -0.6012
 2127TIP3    H227797   4.516   6.148  14.418  1.4282  0.5358 -1.3666
 2128TIP3   OH227798   6.685   4.217  13.492  0.1741 -0.1029  0.4515
 2128TIP3    H127799   6.707   4.307  13.514 -0.0130 -0.1626  0.9012
 2128TIP3    H227800   6.742   4.195  13.418  0.3378  0.3266  0.4499
 2129TIP3   OH227801   1.592   3.594  11.878  0.3559  0.3135 -0.2974
 2129TIP3    H127802   1.564   3.676  11.918 -0.4468 -0.4472  0.7545
 2129TIP3    H227803   1.685   3.587  11.898  0.6505  1.3841 -1.1778
 2130TIP3   OH227804   5.253   1.720   6.095 -0.1091 -0.8842  0.3916
 2130TIP3    H127805   5.279   1.802   6.138  1.4590 -0.6993 -0.7975
 2130TIP3    H227806   5.328   1.662   6.107 -1.1779 -2.1499  1.1599
 2131TIP3   OH227807   6.126   4.806  14.552  0.1754  0.8054 -0.5351
 2131TIP3    H127808   6.042   4.841  14.581  0.3871  0.7440  0.1819
 2131TIP3    H227809   6.104   4.744  14.483 -0.4951 -0.2098  0.5450
 2132TIP3   OH227810   0.221   1.917   2.771 -0.5568  0.2904 -0.3371
 2132TIP3    H127811   0.261   1.867   2.699  0.4885  0.0301  0.4085
 2132TIP3    H227812   0.236   1.863   2.848 -0.1669  1.3553  0.3531
 2133TIP3   OH227813   3.604   3.222   5.515  0.4166  0.9833  0.1037
 2133TIP3    H127814   3.555   3.169   5.578  0.2880  0.5460 -0.3572
 2133TIP3    H227815   3.621   3.304   5.561  1.0560  0.3596  1.0019
 2134TIP3   OH227816   0.235   4.301   0.307  0.3182  0.3166  0.0365
 2134TIP3    H127817   0.169   4.256   0.254  1.3048  0.6640 -1.5171
 2134TIP3    H227818   0.232   4.391   0.278  1.4161  0.3587  0.0238
 2135TIP3   OH227819   4.537   1.519  14.617  0.2009  0.7287 -0.0478
 2135TIP3    H127820   4.543   1.548  14.525 -0.3358 -0.6168 -0.5274
 2135TIP3    H227821   4.514   1.599  14.665  0.8307  1.5345 -1.0288
 2136TIP3   OH227822   0.378   4.565  12.850 -0.5969  0.0034 -0.0835
 2136TIP3    H127823   0.429   4.540  12.772  1.1568 -0.0647  1.0222
 2136TIP3    H227824   0.441   4.557  12.922 -2.2300 -0.1198  1.3730
 2137TIP3   OH227825   2.710   0.174   5.953 -0.1218  0.1370  0.1064
 2137TIP3    H127826   2.730   0.247   5.895 -0.5896  0.5179  0.4226
 2137TIP3    H227827   2.642   0.207   6.012 -1.0497 -0.8484 -0.3706
 2138TIP3   OH227828   1.194   2.388  14.341 -0.3991 -0.1562 -0.0220
 2138TIP3    H127829   1.233   2.412  14.257 -2.4635 -0.5779 -1.1589
 2138TIP3    H227830   1.259   2.331  14.382  0.1965 -0.8746 -1.8472
 2139TIP3   OH227831   3.407   5.971  13.477  0.6518  0.0841  0.2541
 2139TIP3    H127832   3.483   5.986  13.421  1.7553  2.2256  2.1663
 2139TIP3    H227833   3.413   6.039  13.543 -3.2600  0.6481  0.2071
 2140TIP3   OH227834   0.315   4.333   3.592 -0.0412  0.4372  0.0117
 2140TIP3    H127835   0.305   4.405   3.529 -0.8017 -1.6844 -2.4541
 2140TIP3    H227836   0.391   4.285   3.561  0.3738  0.0589  1.5495
 2141TIP3   OH227837   0.620   1.517   2.499  0.3738 -0.2356 -0.1784
 2141TIP3    H127838   0.530   1.533   2.526  0.6003  1.3236 -0.2495
 2141TIP3    H227839   0.614   1.495   2.406  0.1328  1.1167 -0.5133
 2142TIP3   OH227840   2.211   2.058  17.280 -0.0268 -0.3182 -0.2065
 2142TIP3    H127841   2.244   1.984  17.331  0.7404  0.2517  0.1632
 2142TIP3    H227842   2.121   2.070  17.311  0.3253 -0.1732  0.8233
 2143TIP3   OH227843   3.814   3.230   3.495 -0.1425 -0.0092 -0.0937
 2143TIP3    H127844   3.749   3.165   3.469 -0.3641  0.4544 -0.7228
 2143TIP3    H227845   3.769   3.314   3.488 -0.9851  0.0629  4.0233
 2144TIP3   OH227846   6.491   4.419   3.952  0.1869  0.2580 -0.2697
 2144TIP3    H127847   6.434   4.386   4.021  0.7623 -1.8956 -0.7458
 2144TIP3    H227848   6.578   4.419   3.991  0.1658  1.5221 -0.1987
 2145TIP3   OH227849   3.964   1.928  15.200  0.0388 -0.1912 -0.6025
 2145TIP3    H127850   3.921   2.008  15.231  0.8019 -0.2655  0.7316
 2145TIP3    H227851   3.924   1.911  15.115 -0.8181  1.0774 -0.4877
 2146TIP3   OH227852   0.078   3.775  11.980  0.2314  0.1449 -0.3038
 2146TIP3    H127853   0.042   3.686  11.985 -0.8670  0.6355  0.7337
 2146TIP3    H227854   0.170   3.761  11.957  0.1519 -1.2742  0.1148
 2147TIP3   OH227855   5.829   2.180   0.318 -0.4109 -0.3466  0.1380
 2147TIP3    H127856   5.843   2.175   0.223 -1.3810  0.1495 -0.0410
 2147TIP3    H227857   5.750   2.232   0.328 -1.0836 -1.5191  1.1682
 2148TIP3   OH227858   3.082   1.352   2.667  0.4834 -0.1685 -0.3826
 2148TIP3    H127859   3.169   1.315   2.682  0.7880  0.2752 -1.0080
 2148TIP3    H227860   3.099   1.434   2.621 -0.2910 -0.3239 -0.9503
 2149TIP3   OH227861   0.178   5.090   6.781  0.1573 -0.0460 -0.1648
 2149TIP3    H127862   0.110   5.110   6.844 -2.1145  0.5116 -2.6022
 2149TIP3    H227863   0.150   5.009   6.739 -0.3010  1.3075 -2.7090
 2150TIP3   OH227864   2.254   6.372   5.689  0.1215  0.8084 -0.5177
 2150TIP3    H127865   2.322   6.317   5.726 -0.9558 -1.1419 -1.2697
 2150TIP3    H227866   2.253   6.351   5.596 -1.8958  0.2755 -0.4328
 2151TIP3   OH227867   1.084   1.923   0.076  0.4209  0.1967 -0.3694
 2151TIP3    H127868   1.002   1.971   0.070  0.3242 -0.0039 -0.6230
 2151TIP3    H227869   1.124   1.956   0.157  0.1387  0.3637 -0.2953
 2152TIP3   OH227870   1.041   4.736  13.823 -0.2330  0.0509 -0.1257
 2152TIP3    H127871   0.957   4.693  13.838 -0.0456 -0.0144  0.8281
 2152TIP3    H227872   1.026   4.827  13.848 -0.1406  0.1346 -0.3759
 2153TIP3   OH227873   1.162   2.255  17.131  0.4516  0.3347 -0.2627
 2153TIP3    H127874   1.118   2.319  17.187  1.1120 -0.1179  0.7924
 2153TIP3    H227875   1.107   2.250  17.053 -2.6014 -1.7425  1.8271
 2154TIP3   OH227876   5.403   3.144   4.998  0.0477 -0.2614 -0.0473
 2154TIP3    H127877   5.365   3.069   5.044 -0.3564 -0.6388 -0.9749
 2154TIP3    H227878   5.329   3.184   4.954  0.0638  1.3552  1.3109
 2155TIP3   OH227879   4.449   1.617   4.066 -0.2204  0.0332 -0.2219
 2155TIP3    H127880   4.499   1.595   3.988 -2.3348  0.6081 -1.8159
 2155TIP3    H227881   4.374   1.667   4.034 -0.9244  0.7177  2.2352
 2156TIP3   OH227882   1.593   1.792   4.370 -0.5282  0.5422  0.8142
 2156TIP3    H127883   1.565   1.743   4.292  1.0934  2.0664 -0.8267
 2156TIP3    H227884   1.566   1.738   4.444 -1.5866 -1.2719 -0.8195
 2157TIP3   OH227885   3.413   3.727  12.825  0.4890 -0.7669 -0.0724
 2157TIP3    H127886   3.490   3.691  12.868  0.6331  0.7501  0.9932
 2157TIP3    H227887   3.341   3.708  12.885  0.5504  0.5657  0.4497
 2158TIP3   OH227888   2.268   0.248  14.577 -0.3946 -0.4455  0.1288
 2158TIP3    H127889   2.346   0.192  14.578  0.4707  0.7041  0.7781
 2158TIP3    H227890   2.245   0.255  14.485  0.6614 -0.3272 -0.1453
 2159TIP3   OH227891   5.283   2.737  16.491 -0.3068  0.7009 -0.0630
 2159TIP3    H127892   5.344   2.703  16.425 -1.7309  0.1093 -1.1208
 2159TIP3    H227893   5.319   2.707  16.574 -0.2484 -1.4279 -0.8040
 2160TIP3   OH227894   4.722   4.755   4.851 -0.2326 -0.0155 -0.2015
 2160TIP3    H127895   4.665   4.689   4.812 -1.2394 -0.2426  1.5662
 2160TIP3    H227896   4.741   4.816   4.779 -1.0149 -1.0548 -1.3241
 2161TIP3   OH227897   4.005   1.127  13.260 -0.0805  0.3240  0.0792
 2161TIP3    H127898   4.033   1.112  13.170 -1.2590  0.0168 -0.2529
 2161TIP3    H227899   3.910   1.117  13.258  0.0498 -2.0935  1.8001
 2162TIP3   OH227900   5.909   5.919   3.655 -0.3710 -0.3492 -0.1594
 2162TIP3    H127901   5.963   5.899   3.578  0.4331 -1.4055  0.6433
 2162TIP3    H227902   5.899   5.835   3.700 -1.3039  0.1463  0.5950
 2163TIP3   OH227903   6.702   3.690  14.921 -0.2534  0.3772 -0.3903
 2163TIP3    H127904   6.741   3.613  14.880  0.4083  0.5849 -0.1584
 2163TIP3    H227905   6.620   3.657  14.959  0.8108 -0.6272  1.1800
 2164TIP3   OH227906   3.560   2.117  14.408  0.3888  0.0798  0.1131
 2164TIP3    H127907   3.603   2.151  14.330 -1.0456  1.3725 -0.1830
 2164TIP3    H227908   3.509   2.191  14.440 -0.0408 -0.8104  1.5501
 2165TIP3   OH227909   0.615   1.923  17.187 -0.6516 -0.0913  0.1511
 2165TIP3    H127910   0.681   1.916  17.118 -0.3609 -1.7451  0.5453
 2165TIP3    H227911   0.550   1.857  17.164 -2.1483  1.4403 -0.1673
 2166TIP3   OH227912   3.698   4.215   3.596  0.2767 -0.2866 -0.4166
 2166TIP3    H127913   3.782   4.180   3.566  0.3300  0.3290 -0.9931
 2166TIP3    H227914   3.652   4.241   3.516 -0.8668 -1.4736 -0.1855
 2167TIP3   OH227915   3.935   0.735   1.260 -1.0308  0.2367  0.1567
 2167TIP3    H127916   3.858   0.714   1.313 -0.2015 -0.0730  1.2758
 2167TIP3    H227917   3.915   0.698   1.174 -3.0930  2.1119 -0.2816
 2168TIP3   OH227918   2.189   5.491  14.436  0.4181  0.4693  0.5473
 2168TIP3    H127919   2.207   5.428  14.366  0.1328  0.5714  0.3807
 2168TIP3    H227920   2.219   5.447  14.516  0.5910  0.2853  0.3821
 2169TIP3   OH227921   4.499   5.505   1.313  0.0741  0.4348 -0.5308
 2169TIP3    H127922   4.517   5.511   1.219  1.4624  0.1567 -0.3008
 2169TIP3    H227923   4.454   5.422   1.323  0.9593 -0.1005 -0.8225
 2170TIP3   OH227924   4.241   2.912  15.781  0.2893 -0.4075  0.1677
 2170TIP3    H127925   4.273   2.900  15.691  0.2328  0.2454  0.0558
 2170TIP3    H227926   4.170   2.975  15.772  0.6310  0.0604  0.7445
 2171TIP3   OH227927   5.317   4.737  12.997 -0.1377  0.1206 -0.0094
 2171TIP3    H127928   5.346   4.828  12.990  1.9363 -0.4009  1.0724
 2171TIP3    H227929   5.359   4.693  12.924 -0.1838 -0.1952  0.1543
 2172TIP3   OH227930   3.950   4.923   2.964 -0.0121  0.5033 -0.9245
 2172TIP3    H127931   3.899   4.850   2.928 -3.1048  0.5222  2.8065
 2172TIP3    H227932   3.886   4.991   2.982  1.5155  1.2027  2.5710
 2173TIP3   OH227933   2.973   2.113   3.838  0.0282 -0.0427  0.5381
 2173TIP3    H127934   3.016   2.126   3.753 -1.0283  0.6619  0.0940
 2173TIP3    H227935   3.030   2.157   3.901  0.7481 -0.4480  0.1820
 2174TIP3   OH227936   6.552   1.556  14.131 -0.0815 -0.2942  0.0246
 2174TIP3    H127937   6.498   1.529  14.205  0.0977 -1.5754 -0.2711
 2174TIP3    H227938   6.637   1.578  14.170  0.4513 -2.2779  0.1307
 2175TIP3   OH227939   6.528   2.581   5.572 -0.2845 -0.2161 -0.0860
 2175TIP3    H127940   6.608   2.608   5.617 -0.1557  0.5765 -0.7658
 2175TIP3    H227941   6.473   2.659   5.574 -0.7193 -0.5147 -0.3339
 2176TIP3   OH227942   0.374   0.983   0.449  0.0695 -0.0740 -0.4195
 2176TIP3    H127943   0.413   0.987   0.537 -0.1908 -0.2887 -0.2929
 2176TIP3    H227944   0.296   1.038   0.455  0.8233  1.1024 -0.9267
 2177TIP3   OH227945   3.238   2.285  10.784 -0.3808 -0.1289 -0.1278
 2177TIP3    H127946   3.167   2.221  10.794  0.1063 -0.5289  1.0268
 2177TIP3    H227947   3.206   2.364  10.828 -0.6290  0.1293 -0.7687
 2178TIP3   OH227948   5.543   1.317   2.354  0.7858 -0.2393 -0.1333
 2178TIP3    H127949   5.543   1.233   2.399 -0.6445  0.0299  0.4444
 2178TIP3    H227950   5.582   1.378   2.417 -0.7126  0.0316  0.5752
 2179TIP3   OH227951   5.369   1.203   1.752  0.0971 -0.1087 -0.2594
 2179TIP3    H127952   5.289   1.157   1.727 -0.3778  1.2781 -1.3827
 2179TIP3    H227953   5.346   1.247   1.834 -0.1916  0.0323 -0.4147
 2180TIP3   OH227954   2.228   5.318   1.670 -0.4118  0.1612  0.2922
 2180TIP3    H127955   2.320   5.297   1.684 -0.5259 -0.4825  0.1043
 2180TIP3    H227956   2.186   5.234   1.652 -1.1344  0.3711  0.9141
 2181TIP3   OH227957   2.024   5.642   4.468  0.0969  0.2640 -0.1832
 2181TIP3    H127958   2.077   5.628   4.546  0.8474  2.4643 -0.2156
 2181TIP3    H227959   2.056   5.725   4.432 -0.6567 -0.3671 -2.4866
 2182TIP3   OH227960   2.210   0.858  12.499 -0.1732  0.1082  0.0823
 2182TIP3    H127961   2.252   0.778  12.467 -1.0884  0.0186 -0.9762
 2182TIP3    H227962   2.254   0.929  12.452 -1.1583  0.0137 -1.0348
 2183TIP3   OH227963   6.490   1.729  13.013 -0.9172 -0.1475  0.0930
 2183TIP3    H127964   6.449   1.710  12.928 -1.5979  0.4579  0.2799
 2183TIP3    H227965   6.516   1.643  13.046  0.9211 -0.2636 -1.4891
 2184TIP3   OH227966   4.097   3.143  14.560 -0.0344 -0.0366  0.3959
 2184TIP3    H127967   4.117   3.131  14.653  1.2337 -0.1963  0.1200
 2184TIP3    H227968   4.086   3.238  14.550 -0.3632 -0.0363  0.7404
 2185TIP3   OH227969   2.237   3.224  15.133 -0.3895 -0.4366  0.0706
 2185TIP3    H127970   2.231   3.308  15.088  0.2124 -0.6131 -0.3578
 2185TIP3    H227971   2.224   3.158  15.065  1.5614 -0.7308 -0.0956
 2186TIP3   OH227972   0.442   4.521  16.303  0.4505  0.4103 -0.6598
 2186TIP3    H127973   0.451   4.560  16.391 -0.4621  0.5524 -0.6252
 2186TIP3    H227974   0.499   4.575  16.248  1.6621 -0.1643 -0.0250
 2187TIP3   OH227975   0.219   2.081   4.377 -0.1507  0.1476  0.5283
 2187TIP3    H127976   0.243   2.080   4.284 -1.3982  0.7185  0.1761
 2187TIP3    H227977   0.235   1.992   4.407 -1.5319 -0.5804 -0.7406
 2188TIP3   OH227978   1.554   4.689   5.521  0.0214 -0.4092 -0.1888
 2188TIP3    H127979   1.510   4.745   5.585  1.5734  0.8114 -0.1238
 2188TIP3    H227980   1.645   4.688   5.549  0.1646 -2.4262 -0.6146
 2189TIP3   OH227981   6.588   2.917  16.039 -0.0648  0.0768  0.1027
 2189TIP3    H127982   6.618   2.837  16.082  1.0169  1.6635  2.5386
 2189TIP3    H227983   6.501   2.896  16.007  0.4447 -2.2508  0.0913
 2190TIP3   OH227984   5.725   5.172   4.170  0.3958 -0.2477  0.3344
 2190TIP3    H127985   5.687   5.104   4.227  0.9930 -0.5868  0.3310
 2190TIP3    H227986   5.758   5.238   4.231  0.4847 -0.3171  0.3615
 2191TIP3   OH227987   0.439   2.094   4.961  0.5626  0.0317  0.4788
 2191TIP3    H127988   0.492   2.015   4.971  1.2188  0.2600 -1.0049
 2191TIP3    H227989   0.369   2.068   4.901  0.0061  0.2266  1.0314
 2192TIP3   OH227990   4.019   0.702   2.884  0.3672 -0.7073  0.1851
 2192TIP3    H127991   3.945   0.648   2.910 -0.4374  0.5469  0.5606
 2192TIP3    H227992   4.066   0.720   2.966  0.5251 -0.6770  0.0887
 2193TIP3   OH227993   4.184   6.345  11.670  0.4659 -0.2155 -0.4483
 2193TIP3    H127994   4.271   6.318  11.700  0.9650  0.8032 -0.8953
 2193TIP3    H227995   4.190   6.343  11.575  0.1469  0.2763 -0.4840
 2194TIP3   OH227996   0.985   1.891   5.806 -0.0932 -0.4431  0.0291
 2194TIP3    H127997   0.997   1.884   5.900  1.0926  1.1658  0.0522
 2194TIP3    H227998   0.980   1.801   5.775  1.6336 -1.0655  1.3898
 2195TIP3   OH227999   3.236   1.415   0.881 -0.0375 -0.0652  0.1783
 2195TIP3    H128000   3.234   1.365   0.800 -0.6041  0.9338 -0.4573
 2195TIP3    H228001   3.273   1.500   0.856 -0.2013  0.2454  0.9577
 2196TIP3   OH228002   1.381   0.247  12.387  0.1472 -0.3132  0.2580
 2196TIP3    H128003   1.401   0.256  12.294 -1.4909  0.6054 -0.0380
 2196TIP3    H228004   1.402   0.332  12.425 -2.1913  0.4174  0.0798
 2197TIP3   OH228005   2.551   0.532   0.811  0.1296 -0.8298  0.7965
 2197TIP3    H128006   2.461   0.561   0.829 -0.3151 -0.6829 -1.3556
 2197TIP3    H228007   2.606   0.589   0.865 -0.9969  0.1531  0.9480
 2198TIP3   OH228008   0.121   2.420  15.926 -0.7908 -0.7844 -0.4440
 2198TIP3    H128009   0.205   2.465  15.924 -0.6907 -0.9859 -1.5312
 2198TIP3    H228010   0.103   2.406  16.019 -0.4909  0.8676 -0.0984
 2199TIP3   OH228011   5.514   0.151  15.829 -0.5039  0.1304 -0.2394
 2199TIP3    H128012   5.501   0.233  15.878 -1.1378  0.0151 -0.1972
 2199TIP3    H228013   5.489   0.082  15.891  2.2663 -0.2776  0.5368
 2200TIP3   OH228014   6.380   2.125   0.098 -0.3434  0.2770 -0.5383
 2200TIP3    H128015   6.455   2.069   0.118  0.2130  1.4492  0.7651
 2200TIP3    H228016   6.335   2.136   0.182 -2.8696 -1.5953 -1.5161
 2201TIP3   OH228017   5.089   6.523   1.012  0.4172 -0.8549  0.0634
 2201TIP3    H128018   5.154   6.532   0.942  1.2766 -1.0483  0.8186
 2201TIP3    H228019   5.027   6.593   0.995  2.1160  0.9042  0.6686
 2202TIP3   OH228020   5.737   5.530  15.693  0.0790  0.2234  0.0666
 2202TIP3    H128021   5.825   5.507  15.723  0.4017 -1.8481 -2.2308
 2202TIP3    H228022   5.687   5.449  15.699 -1.2907  1.0306 -0.0083
 2203TIP3   OH228023   0.182   0.145  15.871 -0.1673  0.1768 -0.3767
 2203TIP3    H128024   0.153   0.069  15.922  1.1867  0.9629  1.7089
 2203TIP3    H228025   0.254   0.113  15.818  1.9748  0.3376  2.2023
 2204TIP3   OH228026   3.984   3.061   2.739  0.6734 -0.3061 -0.6248
 2204TIP3    H128027   3.940   3.142   2.712  1.9688  0.5117 -0.3804
 2204TIP3    H228028   4.030   3.086   2.820  2.4194 -0.8218 -1.4275
 2205TIP3   OH228029   6.649   2.038  15.650 -1.0105 -0.3841  0.6264
 2205TIP3    H128030   6.619   2.103  15.586 -1.5355 -1.6702 -0.4604
 2205TIP3    H228031   6.740   2.062  15.667 -0.2087 -1.1781 -2.1297
 2206TIP3   OH228032   5.971   4.434  16.610  0.6567  0.5052 -0.1111
 2206TIP3    H128033   6.030   4.476  16.672  0.5720 -1.7280  1.6179
 2206TIP3    H228034   5.888   4.427  16.657  0.0305  0.4246 -1.1903
 2207TIP3   OH228035   3.149   3.823   4.841 -0.0319  0.0633  0.4653
 2207TIP3    H128036   3.115   3.903   4.881 -1.6854 -0.2028 -0.2850
 2207TIP3    H228037   3.212   3.789   4.904  0.1982  1.5824  1.1097
 2208TIP3   OH228038   4.695   6.065  16.022 -0.6464 -0.5751  0.1290
 2208TIP3    H128039   4.790   6.074  16.032 -0.6592 -1.5803  1.3025
 2208TIP3    H228040   4.685   6.000  15.952 -0.4896 -0.1104 -0.3359
 2209TIP3   OH228041   2.300   2.388  13.382 -0.0214 -0.1500  0.2831
 2209TIP3    H128042   2.327   2.479  13.375 -0.4264 -0.0151  0.4338
 2209TIP3    H228043   2.218   2.383  13.333 -0.4406 -0.2427  0.9825
 2210TIP3   OH228044   2.252   3.850   6.173  0.3024 -0.3518 -0.0661
 2210TIP3    H128045   2.324   3.913   6.177 -0.3902  0.6933 -2.3707
 2210TIP3    H228046   2.226   3.838   6.264  1.9388  0.9525  0.6305
 2211TIP3   OH228047   5.246   3.481  11.949  0.8966 -0.1109 -0.2468
 2211TIP3    H128048   5.318   3.461  12.009 -0.3308  0.8455  1.6330
 2211TIP3    H228049   5.178   3.418  11.972  0.4412  0.2125 -0.7051
 2212TIP3   OH228050   5.234   6.062  12.120  0.3274 -0.0393  0.1261
 2212TIP3    H128051   5.215   5.987  12.176  0.7330 -0.6701 -0.5603
 2212TIP3    H228052   5.311   6.103  12.159 -0.4363  0.5845  1.0325
 2213TIP3   OH228053   3.867   5.039  13.271 -0.5674  0.0382  0.3130
 2213TIP3    H128054   3.936   5.028  13.205 -0.9509  1.4602 -0.3674
 2213TIP3    H228055   3.915   5.059  13.351 -0.1449  0.6444 -0.0726
 2214TIP3   OH228056   5.424   5.531   1.332 -0.3635  0.5922  0.6779
 2214TIP3    H128057   5.502   5.523   1.278 -0.1887  1.4315  0.7922
 2214TIP3    H228058   5.438   5.471   1.405 -0.0668  0.3483  0.4201
 2215TIP3   OH228059   4.519   5.762  17.271 -0.0586 -0.3170  0.0133
 2215TIP3    H128060   4.479   5.782  17.187  0.2711  0.3493  0.0093
 2215TIP3    H228061   4.504   5.668  17.283 -1.7862 -0.0556  0.1196
 2216TIP3   OH228062   3.187   4.815  11.986 -0.0917  0.8170  0.3986
 2216TIP3    H128063   3.218   4.742  11.933 -1.1106  1.6439 -1.4327
 2216TIP3    H228064   3.267   4.852  12.025  0.5242 -0.6866  0.6136
 2217TIP3   OH228065   3.202   6.049   3.880  0.1707  0.0229  0.1086
 2217TIP3    H128066   3.252   6.129   3.897  0.8518 -0.2112 -0.7325
 2217TIP3    H228067   3.255   6.000   3.817 -1.2225 -0.1300 -0.9856
 2218TIP3   OH228068   2.205   3.718   2.795 -0.1618 -0.4430  0.1312
 2218TIP3    H128069   2.204   3.623   2.811  1.0446 -0.4403  0.3450
 2218TIP3    H228070   2.298   3.738   2.779 -0.5929  0.4573 -1.4291
 2219TIP3   OH228071   1.894   5.736   1.721  0.6955  0.6586  0.0983
 2219TIP3    H128072   1.967   5.794   1.745  0.3946  1.6853 -1.3004
 2219TIP3    H228073   1.933   5.672   1.662  0.9715 -0.4733  1.4389
 2220TIP3   OH228074   3.498   1.223  11.287  0.3531 -0.3892 -0.0548
 2220TIP3    H128075   3.428   1.259  11.342  1.1691  0.6423  0.3612
 2220TIP3    H228076   3.564   1.192  11.350  0.5547 -0.7560 -0.4422
 2221TIP3   OH228077   3.546   3.019  12.073 -0.0851 -1.2595  0.0547
 2221TIP3    H128078   3.604   3.019  12.149  0.0698  1.7300  0.0360
 2221TIP3    H228079   3.496   3.101  12.080 -1.0529 -1.5502 -2.3481
 2222TIP3   OH228080   5.785   5.243  13.086  0.1674  0.1658  0.7559
 2222TIP3    H128081   5.802   5.328  13.128  2.2643 -0.5554  1.4734
 2222TIP3    H228082   5.807   5.178  13.153 -1.3973 -0.9719  0.2152
 2223TIP3   OH228083   3.507   6.034   2.241 -0.3194  0.2162  0.6653
 2223TIP3    H128084   3.494   6.119   2.285  0.1520  1.2492 -1.1005
 2223TIP3    H228085   3.543   6.057   2.156 -2.8248 -1.5852 -1.0033
 2224TIP3   OH228086   2.962   0.679  16.756  0.1398 -0.1341 -0.0379
 2224TIP3    H128087   3.035   0.618  16.746  0.5488 -0.0334  1.8356
 2224TIP3    H228088   3.001   0.766  16.747 -0.3410 -0.0856 -2.1283
 2225TIP3   OH228089   4.753   5.490  13.713  0.1129 -0.2575 -0.3707
 2225TIP3    H128090   4.693   5.537  13.654  0.8590 -0.7015 -1.5158
 2225TIP3    H228091   4.812   5.558  13.745 -0.2337 -0.0286 -0.2072
 2226TIP3   OH228092   6.728   2.045  13.006  0.4862 -0.3586 -0.0563
 2226TIP3    H128093   6.746   2.136  13.032  1.4144 -0.2590 -0.9787
 2226TIP3    H228094   6.803   2.020  12.952  0.9038 -2.1369  1.2498
 2227TIP3   OH228095   4.009   5.875   2.392  0.3502  0.1005  0.3573
 2227TIP3    H128096   3.941   5.882   2.325  0.0263 -1.0872  0.5368
 2227TIP3    H228097   3.969   5.909   2.471  1.0935  2.5508 -0.2486
 2228TIP3   OH228098   6.394   2.889  11.925 -0.7822 -1.0069  0.2012
 2228TIP3    H128099   6.309   2.847  11.910 -0.8233 -0.5424 -0.9422
 2228TIP3    H228100   6.393   2.966  11.869  0.6334 -1.3281 -0.2984
 2229TIP3   OH228101   1.831   3.749  15.045 -0.5089  0.3112 -0.4595
 2229TIP3    H128102   1.831   3.668  14.993 -2.1320 -0.7346  1.0482
 2229TIP3    H228103   1.816   3.819  14.981 -0.0795 -0.6587 -1.6664
 2230TIP3   OH228104   0.861   4.382   6.482 -0.2522 -0.8397  0.4196
 2230TIP3    H128105   0.868   4.353   6.573  2.2418  2.2037  1.3998
 2230TIP3    H228106   0.810   4.463   6.488 -0.0109 -0.5749 -0.8863
 2231TIP3   OH228107   2.503   4.655   4.537  0.2466 -0.4490 -0.8593
 2231TIP3    H128108   2.411   4.676   4.518 -0.0134  0.2805  1.0405
 2231TIP3    H228109   2.543   4.740   4.557  0.4279 -1.0995  1.9030
 2232TIP3   OH228110   5.917   6.571   2.220  0.5458 -0.6567  0.8964
 2232TIP3    H128111   5.989   6.507   2.219  0.4252 -0.8445 -1.6793
 2232TIP3    H228112   5.961   6.656   2.222  0.8178 -0.7920  0.7499
 2233TIP3   OH228113   5.082   6.164   3.142  0.4855  0.1342 -0.2268
 2233TIP3    H128114   5.147   6.096   3.127  2.0247  1.0502  1.8333
 2233TIP3    H228115   5.108   6.236   3.085  0.9706  0.2926  0.1880
 2234TIP3   OH228116   2.984   0.733  14.978  0.2656  0.0861  0.1494
 2234TIP3    H128117   2.995   0.682  14.897  0.1130  1.8881 -1.0755
 2234TIP3    H228118   3.071   0.735  15.017  0.1744 -1.4953  0.4967
 2235TIP3   OH228119   1.261   0.731   1.399  0.5998 -0.0443 -0.4766
 2235TIP3    H128120   1.264   0.795   1.327 -1.3590  1.4221  0.6420
 2235TIP3    H228121   1.336   0.755   1.454  0.1081  1.1188 -0.2674
 2236TIP3   OH228122   4.584   4.380   3.264 -0.4211  0.0311  0.5025
 2236TIP3    H128123   4.570   4.459   3.212  0.1448  1.8281  2.9281
 2236TIP3    H228124   4.655   4.403   3.324  0.4168 -2.6659  0.6669
 2237TIP3   OH228125   1.184   2.595  17.005  0.0426 -0.9273  0.3271
 2237TIP3    H128126   1.153   2.685  17.014  1.5176 -0.4003  0.4614
 2237TIP3    H228127   1.242   2.581  17.080  0.7112 -1.5994 -0.2893
 2238TIP3   OH228128   6.289   3.970   4.151 -0.0171 -0.5695  0.0509
 2238TIP3    H128129   6.280   4.013   4.236  1.9296  0.1269 -0.0552
 2238TIP3    H228130   6.317   3.881   4.171 -1.3523 -0.9952  0.1630
 2239TIP3   OH228131   4.719   5.670   2.574 -0.4154  0.3199 -0.1470
 2239TIP3    H128132   4.757   5.602   2.518  0.8829  1.9413 -1.3396
 2239TIP3    H228133   4.765   5.662   2.657  0.0190  0.0035 -0.4146
 2240TIP3   OH228134   4.869   5.908  16.518  0.2790 -0.1334  0.5230
 2240TIP3    H128135   4.846   5.875  16.605  1.3236 -1.1017  0.4586
 2240TIP3    H228136   4.795   5.963  16.493 -0.4279 -0.5217  1.6632
 2241TIP3   OH228137   5.435   2.295   2.033 -0.0468  0.1237  0.3027
 2241TIP3    H128138   5.451   2.253   1.949  0.4409  0.6181  0.1475
 2241TIP3    H228139   5.462   2.230   2.098 -1.3741 -0.6600  0.1133
 2242TIP3   OH228140   4.914   3.906   0.076  0.7776  0.1511  0.5770
 2242TIP3    H128141   4.983   3.955   0.031  0.2580  0.1707 -0.2164
 2242TIP3    H228142   4.956   3.871   0.155  1.7949 -0.1975 -0.1138
 2243TIP3   OH228143   6.266   5.086  11.090  0.1569 -0.3286 -0.1383
 2243TIP3    H128144   6.246   5.010  11.143  1.8660 -1.4035 -0.9436
 2243TIP3    H228145   6.201   5.084  11.019 -0.6427 -0.2286  0.5724
 2244TIP3   OH228146   5.680   3.633  15.541 -0.0397  0.4222  0.0312
 2244TIP3    H128147   5.769   3.625  15.507  0.0117  0.3472  0.1824
 2244TIP3    H228148   5.686   3.700  15.609  0.4159 -1.3328  1.7823
 2245TIP3   OH228149   5.269   3.767  14.198  0.2446  0.5159  0.0997
 2245TIP3    H128150   5.194   3.708  14.198  1.1238 -0.6635 -0.6985
 2245TIP3    H228151   5.235   3.849  14.162 -0.7812  0.1802  0.2768
 2246TIP3   OH228152   3.964   1.382  13.338  0.6939 -0.2380 -0.5186
 2246TIP3    H128153   3.968   1.287  13.331  2.3400 -0.3194  0.8169
 2246TIP3    H228154   4.055   1.411  13.333  0.3285  1.1587  0.2504
 2247TIP3   OH228155   2.971   3.905  11.989  0.0505 -0.3320  0.6171
 2247TIP3    H128156   2.943   3.907  12.081 -1.1697 -3.5194  0.4291
 2247TIP3    H228157   2.890   3.915  11.939  0.5802  0.2907 -0.1429
 2248TIP3   OH228158   1.922   3.079   2.041 -0.0211 -0.3570  0.5551
 2248TIP3    H128159   1.876   3.074   2.124  1.7732  0.7095  1.6926
 2248TIP3    H228160   1.919   3.172   2.017 -1.3501 -0.7693 -1.1333
 2249TIP3   OH228161   4.972   0.062   5.886  0.6013  0.5424  0.3869
 2249TIP3    H128162   4.905   0.124   5.857  0.1084 -0.1933 -0.0716
 2249TIP3    H228163   5.020   0.109   5.954  0.3004  1.4654 -0.0138
 2250TIP3   OH228164   2.438   2.780  15.223 -0.2648  0.1009  0.4712
 2250TIP3    H128165   2.510   2.824  15.267 -1.2415  1.3009  0.9573
 2250TIP3    H228166   2.479   2.719  15.162  1.1568  1.3999  0.0872
 2251TIP3   OH228167   1.638   6.268   0.372  0.4842 -0.1272 -0.1883
 2251TIP3    H128168   1.605   6.337   0.314 -0.3951 -1.1450 -0.9377
 2251TIP3    H228169   1.560   6.222   0.401  1.1085 -1.3258 -0.3642
 2252TIP3   OH228170   4.958   5.234   5.319  0.4602  0.3071 -0.2989
 2252TIP3    H128171   4.951   5.153   5.370  1.3021  0.0376 -0.5832
 2252TIP3    H228172   5.048   5.264   5.334  0.6398  0.3620 -1.3921
 2253TIP3   OH228173   1.468   2.359   2.861 -0.1793  0.7692 -0.2600
 2253TIP3    H128174   1.429   2.308   2.931 -1.0465  1.0249 -0.5475
 2253TIP3    H228175   1.406   2.352   2.789  1.8345 -1.5967 -1.9377
 2254TIP3   OH228176   5.732   5.417   5.296  0.6290  0.1695 -0.8796
 2254TIP3    H128177   5.658   5.357   5.305 -0.2960  1.2040 -1.3850
 2254TIP3    H228178   5.809   5.361   5.307 -0.1992 -1.0780 -1.1424
 2255TIP3   OH228179   5.580   3.207   2.142  0.0817  0.5019 -0.1638
 2255TIP3    H128180   5.613   3.118   2.135  1.6933  1.1237 -0.9431
 2255TIP3    H228181   5.626   3.244   2.217  1.4716  1.4754 -1.4406
 2256TIP3   OH228182   1.569   2.901   2.961 -0.2378  0.0428  0.1894
 2256TIP3    H128183   1.601   2.864   3.043 -1.0781 -0.3529  0.3491
 2256TIP3    H228184   1.574   2.995   2.974  2.1607  0.0570 -0.3092
 2257TIP3   OH228185   4.983   1.072   5.583 -0.3792  0.2322  0.0027
 2257TIP3    H128186   4.972   1.071   5.488  2.0619  0.4774 -0.3453
 2257TIP3    H228187   4.940   1.153   5.611 -0.7835  0.3548 -0.9310
 2258TIP3   OH228188   4.183   2.449   4.738 -0.0287 -0.7806  0.4802
 2258TIP3    H128189   4.119   2.510   4.701  0.5976  0.5988  1.5280
 2258TIP3    H228190   4.250   2.441   4.671 -0.7478 -1.3611 -0.1846
 2259TIP3   OH228191   1.285   1.147   3.883  0.4827  0.2764 -0.4050
 2259TIP3    H128192   1.334   1.226   3.859  2.0363 -0.9682 -1.5193
 2259TIP3    H228193   1.306   1.133   3.975  0.3713  1.0191 -0.2562
 2260TIP3   OH228194   0.169   0.570  11.515 -0.1404 -0.4226 -0.0947
 2260TIP3    H128195   0.096   0.522  11.477 -0.6868  0.7344 -0.5377
 2260TIP3    H228196   0.131   0.616  11.590 -0.4728  2.0521 -1.6715
 2261TIP3   OH228197   5.513   3.248   4.419 -0.0286  0.3467 -0.4928
 2261TIP3    H128198   5.603   3.225   4.394 -0.0381  1.3543 -1.5168
 2261TIP3    H228199   5.461   3.234   4.340 -0.6073  0.6497 -0.1736
 2262TIP3   OH228200   0.515   1.683  16.892  0.0084 -0.8177 -0.0561
 2262TIP3    H128201   0.601   1.681  16.850 -0.4003 -2.1377 -0.8825
 2262TIP3    H228202   0.453   1.685  16.820 -0.7288 -3.7815  0.3453
 2263TIP3   OH228203   4.069   4.116  15.286 -0.7272 -0.1470  0.2051
 2263TIP3    H128204   4.083   4.029  15.250 -0.0896  0.0715 -0.0819
 2263TIP3    H228205   4.127   4.173  15.236 -2.6808  0.8131 -1.1097
 2264TIP3   OH228206   0.659   5.921  12.215 -0.2966  0.1262 -0.0435
 2264TIP3    H128207   0.612   5.865  12.153 -1.6162  1.8552 -0.6974
 2264TIP3    H228208   0.748   5.926  12.181 -0.6561 -0.0533 -1.0341
 2265TIP3   OH228209   6.573   1.382  16.947  0.1061  0.4445 -0.4925
 2265TIP3    H128210   6.491   1.346  16.913 -0.2843  0.4082  0.4564
 2265TIP3    H228211   6.577   1.470  16.911  0.5023 -0.1329 -1.9133
 2266TIP3   OH228212   1.107   4.092   2.565 -0.1181 -0.4327  0.3333
 2266TIP3    H128213   1.054   4.117   2.490  0.2748 -0.7031 -0.0373
 2266TIP3    H228214   1.096   4.164   2.628  0.8939  0.6120 -0.6517
 2267TIP3   OH228215   4.884   1.455  12.106  0.1295  0.0293  0.0289
 2267TIP3    H128216   4.858   1.449  12.198  1.9820 -0.3457  0.5679
 2267TIP3    H228217   4.871   1.367  12.071 -2.5092  0.6106 -0.6902
 2268TIP3   OH228218   0.422   6.024  10.884 -0.9944  0.0919 -0.2423
 2268TIP3    H128219   0.503   6.023  10.834 -1.7349  1.3669 -1.5354
 2268TIP3    H228220   0.367   5.958  10.842 -0.7713 -0.5038  0.3934
 2269TIP3   OH228221   4.529   4.149   3.843 -0.2380  1.0671 -0.1718
 2269TIP3    H128222   4.564   4.190   3.922  1.4581  2.4764 -1.5673
 2269TIP3    H228223   4.502   4.223   3.787 -0.3383  0.1604 -1.3708
 2270TIP3   OH228224   1.810   5.134  12.201 -0.0935 -0.3817  0.0515
 2270TIP3    H128225   1.883   5.142  12.261  0.0686  0.8246 -0.2817
 2270TIP3    H228226   1.849   5.139  12.113 -0.6296  1.3291 -0.1350
 2271TIP3   OH228227   2.487   0.317   0.637 -0.0818 -0.0682  0.5165
 2271TIP3    H128228   2.517   0.385   0.697  0.4596  1.5084 -1.4508
 2271TIP3    H228229   2.393   0.334   0.625  0.3813  1.5279 -1.3293
 2272TIP3   OH228230   5.683   4.837  16.601 -0.0522 -0.1437  0.5240
 2272TIP3    H128231   5.601   4.807  16.562  1.3354 -0.6121 -2.3068
 2272TIP3    H228232   5.716   4.761  16.649 -0.7348 -0.3263  0.7142
 2273TIP3   OH228233   5.109   1.648   3.218  0.5037 -0.2302 -0.6775
 2273TIP3    H128234   5.068   1.605   3.143 -1.7179 -0.4109  0.5678
 2273TIP3    H228235   5.092   1.591   3.292 -2.8950  2.7376  1.1326
 2274TIP3   OH228236   0.759   4.668  16.958 -0.0148  0.8831  0.1294
 2274TIP3    H128237   0.670   4.690  16.929 -0.3238  0.0210  0.3918
 2274TIP3    H228238   0.765   4.573  16.947  0.6313  0.8386  0.7670
 2275TIP3   OH228239   0.771   2.456   4.839 -0.1852 -0.6156 -0.2455
 2275TIP3    H128240   0.731   2.386   4.890 -1.8723  0.6992  0.3126
 2275TIP3    H228241   0.700   2.490   4.785  0.1993  1.6291  0.5665
 2276TIP3   OH228242   5.647   5.520  15.431  0.1995 -0.1686  0.1561
 2276TIP3    H128243   5.670   5.500  15.522 -0.9371 -1.8933  0.1107
 2276TIP3    H228244   5.575   5.582  15.437 -1.7641 -2.3606  0.5795
 2277TIP3   OH228245   1.919   4.287   4.004  0.4328 -0.4039  0.0665
 2277TIP3    H128246   1.999   4.239   4.021  0.5699  0.2321  1.2987
 2277TIP3    H228247   1.946   4.359   3.947  0.6976 -0.3412  0.2675
 2278TIP3   OH228248   5.916   1.615   3.311 -0.6680 -0.0808 -0.2186
 2278TIP3    H128249   5.885   1.703   3.329 -1.7050 -0.4410 -0.2054
 2278TIP3    H228250   5.874   1.560   3.377 -0.7181 -0.7070 -0.7565
 2279TIP3   OH228251   5.169   5.914   3.873 -0.1331  0.3176 -0.4839
 2279TIP3    H128252   5.215   5.831   3.861 -0.8414  0.1013 -1.9011
 2279TIP3    H228253   5.237   5.974   3.906  0.8684 -0.2942 -1.3660
 2280TIP3   OH228254   2.225   4.049  14.013  0.3702  0.1440  0.1915
 2280TIP3    H128255   2.276   4.105  13.956 -0.3723  2.9364  2.0485
 2280TIP3    H228256   2.135   4.056  13.980  0.5634 -1.8842 -0.9213
 2281TIP3   OH228257   1.501   1.161  14.198  0.5646  0.1540  0.5918
 2281TIP3    H128258   1.592   1.132  14.206  0.4687  0.1790  1.9179
 2281TIP3    H228259   1.449   1.083  14.217  0.3089  0.4002  0.9028
 2282TIP3   OH228260   1.135   0.376  11.082  0.1835 -0.2935  0.1055
 2282TIP3    H128261   1.188   0.307  11.123 -0.0198 -1.1929 -1.0767
 2282TIP3    H228262   1.192   0.452  11.079 -0.3031  0.3599  3.4988
 2283TIP3   OH228263   6.553   5.834   0.583  0.7005  0.8494  0.2177
 2283TIP3    H128264   6.547   5.741   0.563  1.5643  0.7080  0.5637
 2283TIP3    H228265   6.509   5.844   0.668  2.7336  0.3157  1.3816
 2284TIP3   OH228266   6.674   6.608   3.732  0.2107  0.6124  0.4370
 2284TIP3    H128267   6.645   6.627   3.821  2.1328 -0.5735  1.3789
 2284TIP3    H228268   6.617   6.538   3.702 -0.0420  0.5780  0.9855
 2285TIP3   OH228269   4.871   0.168   3.252  0.1214  0.3090 -0.3350
 2285TIP3    H128270   4.917   0.107   3.194  0.1705  1.5090 -1.6124
 2285TIP3    H228271   4.801   0.116   3.291  0.4373 -0.6716 -1.0415
 2286TIP3   OH228272   5.771   5.996   0.213 -0.3324  0.1821  0.6676
 2286TIP3    H128273   5.702   5.933   0.230  0.0782  0.0325  1.8131
 2286TIP3    H228274   5.729   6.082   0.224 -1.4900  0.2995 -3.0173
 2287TIP3   OH228275   2.641   3.560  14.637  0.5439 -1.1432  0.0924
 2287TIP3    H128276   2.661   3.647  14.600  2.1874 -1.4989  0.0534
 2287TIP3    H228277   2.630   3.504  14.561  1.1282 -1.3032  0.1248
 2288TIP3   OH228278   6.383   4.174  10.395  0.0398  0.7526  0.1607
 2288TIP3    H128279   6.305   4.184  10.340 -0.9850  0.9317  1.5674
 2288TIP3    H228280   6.378   4.248  10.456  1.6678  1.1174 -0.1167
 2289TIP3   OH228281   0.535   6.401  15.670 -0.1765 -0.0274 -0.4062
 2289TIP3    H128282   0.579   6.318  15.692  0.8886  1.3531  3.4778
 2289TIP3    H228283   0.589   6.438  15.599 -0.1347 -2.1421 -1.5718
 2290TIP3   OH228284   4.323   6.074   0.322  0.4924 -0.0921  0.4543
 2290TIP3    H128285   4.317   5.994   0.270  1.0397  0.8268 -1.0658
 2290TIP3    H228286   4.414   6.103   0.312  0.1224  1.1146  0.3880
 2291TIP3   OH228287   1.304   6.154   5.109  0.3724 -0.1043  0.2717
 2291TIP3    H128288   1.310   6.183   5.017 -2.1511  2.0572  0.6648
 2291TIP3    H228289   1.213   6.127   5.120  0.8447 -1.1574  1.9540
 2292TIP3   OH228290   2.561   6.603   3.365  0.0878  0.3960 -0.3068
 2292TIP3    H128291   2.598   6.634   3.283  2.0126 -1.2986 -0.1577
 2292TIP3    H228292   2.587   6.511   3.370 -1.5170 -0.0288  1.3630
 2293TIP3   OH228293   5.562   6.752  16.291 -0.1740  0.0514 -0.0328
 2293TIP3    H128294   5.582   6.666  16.327  1.8309  0.7773  0.7220
 2293TIP3    H228295   5.556   6.809  16.368  0.9111  1.0187 -0.6246
 2294TIP3   OH228296   5.712   6.136  12.204 -0.2846  0.1606  0.2475
 2294TIP3    H128297   5.754   6.050  12.202  0.9008  0.7303 -1.4772
 2294TIP3    H228298   5.619   6.117  12.212 -0.0373 -1.2792 -0.0314
 2295TIP3   OH228299   6.637   6.546   1.918  0.3648 -0.4438 -0.8991
 2295TIP3    H128300   6.582   6.558   1.840 -0.3535 -0.7831 -0.4588
 2295TIP3    H228301   6.726   6.550   1.885  0.0750 -1.7569 -1.9247
 2296TIP3   OH228302   0.309   0.577   1.923  0.7812 -0.5823  0.6292
 2296TIP3    H128303   0.341   0.589   2.012 -2.0608  0.0853  1.6916
 2296TIP3    H228304   0.255   0.498   1.927 -1.1335  0.6126  0.1348
 2297TIP3   OH228305   1.146   2.431   5.141  0.2365 -0.2472 -0.0508
 2297TIP3    H128306   1.206   2.358   5.157  1.9170  0.8675 -0.9712
 2297TIP3    H228307   1.121   2.461   5.229 -0.1000 -1.5816  0.3388
 2298TIP3   OH228308   6.139   1.828  11.677 -0.2946 -0.1706  0.3315
 2298TIP3    H128309   6.178   1.787  11.755  2.8427 -0.5774 -1.2899
 2298TIP3    H228310   6.123   1.754  11.618 -0.0185  0.3846 -0.4453
 2299TIP3   OH228311   3.890   5.732   4.158 -0.3681  0.4875  0.8284
 2299TIP3    H128312   3.842   5.804   4.201  0.8344  0.6771  1.9201
 2299TIP3    H228313   3.857   5.653   4.201  0.4765  0.6411  1.8106
 2300TIP3   OH228314   5.823   0.501  16.109  0.3369 -0.6231 -0.4625
 2300TIP3    H128315   5.876   0.561  16.057 -0.1219  1.3649  1.2060
 2300TIP3    H228316   5.749   0.554  16.139 -0.3659 -2.1686  0.7046
 2301TIP3   OH228317   5.874   0.279  15.269  0.0043  0.1635 -0.6814
 2301TIP3    H128318   5.781   0.296  15.259 -0.0621  0.8540  0.9457
 2301TIP3    H228319   5.898   0.319  15.352  1.2184 -2.1670  0.1937
 2302TIP3   OH228320   1.288   6.312   1.768  0.1394 -1.0161 -0.2238
 2302TIP3    H128321   1.365   6.305   1.712  0.1222  0.9467 -0.5685
 2302TIP3    H228322   1.278   6.225   1.806  2.5898 -1.3080 -0.0924
 2303TIP3   OH228323   4.555   4.983  12.310 -0.0911  0.0133  0.7335
 2303TIP3    H128324   4.475   4.931  12.301  0.7434 -1.4210  1.2453
 2303TIP3    H228325   4.541   5.059  12.254 -0.4836 -1.8283 -1.8172
 2304TIP3   OH228326   1.819   6.175   3.053  0.6194  0.0652 -0.3313
 2304TIP3    H128327   1.864   6.120   2.989  0.7003 -1.8637  1.2908
 2304TIP3    H228328   1.890   6.222   3.098  0.6944  0.0598 -0.4422
 2305TIP3   OH228329   0.815   0.223  11.548  0.1602 -0.0360  0.0549
 2305TIP3    H128330   0.844   0.227  11.457  0.3364  0.0027  0.1137
 2305TIP3    H228331   0.756   0.298  11.557  0.2272  0.0225  0.0031
 2306TIP3   OH228332   3.473   5.358   5.058 -0.2246 -0.5567 -0.1009
 2306TIP3    H128333   3.525   5.325   4.985  0.2586  0.1103 -0.0610
 2306TIP3    H228334   3.445   5.445   5.030 -0.9275 -0.7155  0.0782
 2307TIP3   OH228335   6.497   2.630  12.095 -0.2472  0.2045  0.3845
 2307TIP3    H128336   6.500   2.575  12.017 -0.8454 -1.1784  1.3096
 2307TIP3    H228337   6.409   2.668  12.094 -0.8371 -1.0631  1.1798
 2308TIP3   OH228338   1.281   2.876   5.472  0.1298 -0.2401 -0.0349
 2308TIP3    H128339   1.293   2.915   5.385 -0.9371 -0.1850 -0.1670
 2308TIP3    H228340   1.338   2.928   5.529  0.5342 -0.0208 -0.6281
 2309TIP3   OH228341   5.048   4.341  15.879  0.0972  0.0472 -0.8579
 2309TIP3    H128342   5.130   4.390  15.880 -0.4206  0.9742 -1.7498
 2309TIP3    H228343   4.982   4.405  15.905 -0.1342 -1.2318  2.1999
 2310TIP3   OH228344   4.243   3.962   1.133  0.1182  0.8816 -0.2315
 2310TIP3    H128345   4.332   3.988   1.109  0.6718  0.4879  1.2733
 2310TIP3    H228346   4.203   3.935   1.050  1.4038  1.0594 -0.9380
 2311TIP3   OH228347   0.045   4.216  15.249 -0.3741  0.3070 -0.2646
 2311TIP3    H128348   0.064   4.280  15.181  0.2182  1.7362  1.1848
 2311TIP3    H228349   0.047   4.132  15.204 -3.4494  1.3498 -2.7365
 2312TIP3   OH228350   6.743   1.854   2.125 -0.1006  0.1147 -0.9322
 2312TIP3    H128351   6.653   1.886   2.136 -1.3799 -3.7934  1.8793
 2312TIP3    H228352   6.797   1.923   2.164 -2.0140  1.6551 -0.8127
 2313TIP3   OH228353   2.675   5.701  10.943 -0.2251 -0.3221  0.0549
 2313TIP3    H128354   2.725   5.663  10.870 -0.5851  1.1617 -1.0232
 2313TIP3    H228355   2.710   5.659  11.021 -0.5333 -2.7436 -1.0335
 2314TIP3   OH228356   6.125   4.996   3.144 -0.5780  0.0752 -0.5342
 2314TIP3    H128357   6.130   4.931   3.215 -0.3680  0.4314 -0.2123
 2314TIP3    H228358   6.059   5.058   3.174 -0.8490 -0.0407 -0.8872
 2315TIP3   OH228359   0.453   2.258   4.673 -0.4561  0.3623  0.0091
 2315TIP3    H128360   0.438   2.173   4.634 -0.3071  0.5158 -0.3869
 2315TIP3    H228361   0.366   2.298   4.679 -0.4990  0.2699 -0.0051
 2316TIP3   OH228362   3.949   1.506  15.739 -0.1991  0.0150 -0.1913
 2316TIP3    H128363   3.881   1.439  15.742 -0.1732  0.0114  0.6537
 2316TIP3    H228364   3.960   1.526  15.646 -2.7004  1.4290 -0.2581
 2317TIP3   OH228365   0.582   2.706   2.346  0.3626  0.3378 -0.2453
 2317TIP3    H128366   0.513   2.761   2.310 -0.4026 -1.3889 -1.5534
 2317TIP3    H228367   0.565   2.620   2.309  2.3075 -0.4846  0.6714
 2318TIP3   OH228368   3.152   5.817  16.769  0.3266 -0.2983 -0.2833
 2318TIP3    H128369   3.076   5.797  16.824 -1.3447  0.4139 -2.1632
 2318TIP3    H228370   3.197   5.733  16.758 -1.0232 -1.0532 -0.2675
 2319TIP3   OH228371   4.142   0.542   3.236 -0.0972  0.2415 -0.3725
 2319TIP3    H128372   4.073   0.499   3.287 -2.0461  2.4374 -0.9916
 2319TIP3    H228373   4.205   0.472   3.218 -2.2973 -1.9834 -0.0273
 2320TIP3   OH228374   2.314   4.961   1.756 -0.1856 -0.3896 -0.4672
 2320TIP3    H128375   2.373   4.885   1.759 -0.5194 -0.6368  2.0593
 2320TIP3    H228376   2.333   5.009   1.837 -3.1704 -0.3142  0.3141
 2321TIP3   OH228377   3.014   3.124   2.567  0.2230  0.2210 -0.2792
 2321TIP3    H128378   2.983   3.121   2.477  0.1277 -0.0098 -0.2390
 2321TIP3    H228379   3.104   3.091   2.563 -0.0955 -0.7018 -0.1559
 2322TIP3   OH228380   1.069   4.581  16.357  0.3242 -0.4898 -0.8960
 2322TIP3    H128381   1.122   4.578  16.437 -0.6165 -1.3082 -0.2847
 2322TIP3    H228382   1.123   4.539  16.290  0.8643 -0.3721 -0.5398
 2323TIP3   OH228383   0.802   2.001   5.478 -0.5874  0.4804 -0.2700
 2323TIP3    H128384   0.768   1.946   5.407  1.7948 -1.6355  0.0823
 2323TIP3    H228385   0.895   1.978   5.483 -0.2124  2.1989  2.1127
 2324TIP3   OH228386   3.695   0.386   2.101 -0.3276  0.2326  0.1052
 2324TIP3    H128387   3.611   0.359   2.140  0.5192 -1.1707  1.0664
 2324TIP3    H228388   3.718   0.314   2.042 -0.4887  1.3013 -1.2930
 2325TIP3   OH228389   1.147   3.094   4.584 -0.1300 -0.0904 -0.2807
 2325TIP3    H128390   1.130   3.145   4.504  0.5898  1.3308  0.4479
 2325TIP3    H228391   1.235   3.059   4.571  0.3708  0.9411  0.2965
 2326TIP3   OH228392   1.695   5.401   5.279  0.3973  0.7164  0.2663
 2326TIP3    H128393   1.616   5.404   5.225  0.7482  1.5373 -0.2298
 2326TIP3    H228394   1.663   5.397   5.369 -0.2000 -0.2281  0.0287
 2327TIP3   OH228395   1.426   5.771   1.379 -0.2378 -0.4295 -0.4013
 2327TIP3    H128396   1.498   5.769   1.442  0.2559 -0.2426 -0.9405
 2327TIP3    H228397   1.413   5.679   1.355  2.0381 -0.3018 -2.6971
 2328TIP3   OH228398   4.195   3.821  10.581  0.0977 -0.4978 -0.2052
 2328TIP3    H128399   4.272   3.837  10.527  1.9641 -3.1201  1.4533
 2328TIP3    H228400   4.175   3.729  10.567  1.1508 -1.5746  3.9130
 2329TIP3   OH228401   1.916   0.907  10.480 -0.9354  0.5842 -0.0837
 2329TIP3    H128402   1.875   0.828  10.515  1.3326 -0.4277  0.4975
 2329TIP3    H228403   1.874   0.979  10.527 -1.3601 -0.4439  1.1602
 2330TIP3   OH228404   5.592   6.235  12.524  0.0610 -0.0103 -0.4181
 2330TIP3    H128405   5.648   6.246  12.600  0.2261  0.2522 -0.5737
 2330TIP3    H228406   5.616   6.308  12.466  0.3727 -0.5646 -0.9933
 2331TIP3   OH228407   4.072   5.401  11.451  0.2821 -0.1665 -0.4207
 2331TIP3    H128408   4.014   5.464  11.494  0.9841 -1.0847  2.0701
 2331TIP3    H228409   4.158   5.444  11.452  0.5974 -0.7869  0.5255
 2332TIP3   OH228410   4.181   0.424   4.939  0.2067 -0.3343 -0.4572
 2332TIP3    H128411   4.147   0.341   4.907  0.5858  0.1942 -2.3051
 2332TIP3    H228412   4.268   0.403   4.974 -0.4006 -0.9938  0.7381
 2333TIP3   OH228413   0.888   4.422  12.400  0.0923  0.3803 -0.5039
 2333TIP3    H128414   0.979   4.430  12.371  0.8386  0.0544  1.5928
 2333TIP3    H228415   0.846   4.501  12.366  0.3835 -0.7108 -3.8489
 2334TIP3   OH228416   4.184   1.692   2.899  0.2568 -0.0192 -0.6796
 2334TIP3    H128417   4.207   1.658   2.985  0.4693  0.3064 -0.6081
 2334TIP3    H228418   4.268   1.697   2.852  0.0524 -0.9500 -1.1823
 2335TIP3   OH228419   3.346   4.391  14.387  0.1069 -0.0020  0.3367
 2335TIP3    H128420   3.330   4.426  14.474  0.2345  0.2660  0.2537
 2335TIP3    H228421   3.258   4.379  14.350  0.0743  0.9881  0.0718
 2336TIP3   OH228422   2.823   4.116  10.503 -0.1433  0.3687  0.5160
 2336TIP3    H128423   2.744   4.073  10.535  0.9500 -1.1916  1.2831
 2336TIP3    H228424   2.792   4.192  10.456 -2.0384  0.5462  1.9341
 2337TIP3   OH228425   0.802   5.404  15.774  0.1298  0.3581 -0.0869
 2337TIP3    H128426   0.806   5.475  15.710 -2.7902 -0.7961 -1.7248
 2337TIP3    H228427   0.803   5.324  15.722  1.7501 -0.8209  1.6279
 2338TIP3   OH228428   3.310   3.905   2.477 -0.8205 -0.6317 -0.0885
 2338TIP3    H128429   3.386   3.848   2.472  1.4487  2.2317 -1.4029
 2338TIP3    H228430   3.321   3.953   2.559 -0.2595  0.8709 -0.9922
 2339TIP3   OH228431   6.009   3.288  12.368 -0.0565  0.7368 -0.0437
 2339TIP3    H128432   6.008   3.325  12.280 -1.3216  0.0736 -0.3363
 2339TIP3    H228433   5.918   3.261  12.383  0.2171  0.5349  1.3337
 2340TIP3   OH228434   2.586   6.651  14.772  0.1978  0.1487  0.5702
 2340TIP3    H128435   2.601   6.740  14.803 -0.7868  0.5568 -0.0490
 2340TIP3    H228436   2.568   6.601  14.851  1.9463  0.2111  1.0501
 2341TIP3   OH228437   6.388   5.910   4.162  0.4410  0.5337  0.3623
 2341TIP3    H128438   6.326   5.850   4.202  0.7089  0.1912  0.2668
 2341TIP3    H228439   6.462   5.912   4.223  0.4053  0.8209  0.4001
 2342TIP3   OH228440   2.231   3.393   1.637 -0.5509  0.3758  0.1159
 2342TIP3    H128441   2.262   3.353   1.556 -2.0716 -0.7360  0.0455
 2342TIP3    H228442   2.152   3.344   1.660 -0.6347  1.2193  1.8220
 2343TIP3   OH228443   5.681   3.456   3.430  0.1506  0.3033  0.2074
 2343TIP3    H128444   5.619   3.445   3.358 -0.1541 -0.4843  0.5787
 2343TIP3    H228445   5.767   3.448   3.388  0.1656  3.7516 -0.7279
 2344TIP3   OH228446   6.162   5.103   4.844  0.2746 -1.3135 -0.3138
 2344TIP3    H128447   6.238   5.160   4.835 -0.7246  0.1675  0.2150
 2344TIP3    H228448   6.137   5.111   4.936 -2.1476  0.4716 -1.0171
 2345TIP3   OH228449   5.147   1.693   1.894  0.3659  0.7138 -0.3833
 2345TIP3    H128450   5.102   1.742   1.825 -0.4058  0.3788 -0.1210
 2345TIP3    H228451   5.232   1.736   1.902  0.5371  0.6553 -1.6613
 2346TIP3   OH228452   4.055   2.396  10.728  0.1576 -0.1867  1.0772
 2346TIP3    H128453   4.144   2.420  10.752  0.9003 -2.6557  1.0701
 2346TIP3    H228454   4.052   2.404  10.633 -0.7864  3.2707  1.2757
 2347TIP3   OH228455   4.988   4.654   2.211  0.2662  0.1475 -0.2957
 2347TIP3    H128456   4.941   4.663   2.128 -0.8735  1.8702  0.4834
 2347TIP3    H228457   4.971   4.564   2.238 -1.4665  0.2964 -0.7412
 2348TIP3   OH228458   6.736   5.121   3.327 -0.1240  0.8102 -0.6073
 2348TIP3    H128459   6.777   5.205   3.349 -0.4427  1.4032 -2.1228
 2348TIP3    H228460   6.690   5.095   3.406  2.2260  0.6643  0.8260
 2349TIP3   OH228461   3.352   1.286  16.286  0.4027 -0.1783  0.2168
 2349TIP3    H128462   3.378   1.255  16.199  0.7456  1.8237 -0.4534
 2349TIP3    H228463   3.313   1.210  16.328  0.9264 -1.4052 -1.4044
 2350TIP3   OH228464   5.936   6.240  12.048  0.0640  0.0131  0.4542
 2350TIP3    H128465   5.858   6.203  12.089  0.0332 -0.8224 -0.3417
 2350TIP3    H228466   5.994   6.165  12.035  1.0101  0.6256  1.0418
 2351TIP3   OH228467   6.399   4.408  13.471 -0.0849  0.2931  0.3832
 2351TIP3    H128468   6.320   4.454  13.442 -0.0908  1.3370  1.9449
 2351TIP3    H228469   6.448   4.391  13.391 -0.0363  3.1552 -0.2950
 2352TIP3   OH228470   1.211   5.160   0.092 -0.4278 -0.9274  0.1188
 2352TIP3    H128471   1.121   5.133   0.073 -0.3348 -1.2582  0.1543
 2352TIP3    H228472   1.224   5.238   0.038 -0.4684 -1.3418 -0.5004
 2353TIP3   OH228473   3.148   5.081   4.472 -0.6801 -0.1356 -0.2504
 2353TIP3    H128474   3.230   5.053   4.512  0.3271  1.3539 -1.1688
 2353TIP3    H228475   3.080   5.034   4.521  0.6428 -0.5783  1.2460
 2354TIP3   OH228476   0.091   1.419  16.136 -0.3388  0.0485  0.2952
 2354TIP3    H128477  -0.004   1.426  16.142 -0.5869 -0.7487 -1.9111
 2354TIP3    H228478   0.108   1.388  16.047  1.9742 -0.2349  0.7591
 2355TIP3   OH228479   0.452   4.203  13.379  0.3414 -0.1978 -0.5358
 2355TIP3    H128480   0.420   4.258  13.308  0.2181 -0.2566 -0.5262
 2355TIP3    H228481   0.446   4.258  13.457 -0.4029 -0.4349 -0.4144
 2356TIP3   OH228482   1.676   6.537   5.192  0.3422  0.3725 -0.0029
 2356TIP3    H128483   1.636   6.457   5.227  0.1459 -0.3422 -1.7780
 2356TIP3    H228484   1.681   6.596   5.267 -3.3890  0.2571  0.5147
 2357TIP3   OH228485   5.613   5.704   4.595 -0.0859  0.6574 -0.2054
 2357TIP3    H128486   5.655   5.690   4.511  1.1260  0.8018  0.3494
 2357TIP3    H228487   5.550   5.632   4.604  1.9732 -1.2072  0.1133
 2358TIP3   OH228488   2.698   3.733   0.331  0.4117 -0.2492 -0.4651
 2358TIP3    H128489   2.686   3.650   0.284 -0.2463 -0.7702  0.5868
 2358TIP3    H228490   2.637   3.728   0.404  0.4501  1.1306 -0.3216
 2359TIP3   OH228491   6.214   4.628  15.356 -0.5174  0.0283  0.1269
 2359TIP3    H128492   6.303   4.634  15.391 -0.2035  0.0641 -0.6668
 2359TIP3    H228493   6.212   4.689  15.283 -0.7243 -1.0746 -0.8202
 2360TIP3   OH228494   3.359   3.555   3.710 -0.3901 -0.1018 -0.1659
 2360TIP3    H128495   3.408   3.473   3.714  0.3164  0.2545 -1.0500
 2360TIP3    H228496   3.275   3.532   3.672  0.1709 -0.2878 -1.3572
 2361TIP3   OH228497   4.878   3.298   5.211 -0.6632  0.1336  0.3192
 2361TIP3    H128498   4.934   3.323   5.138 -0.1925 -0.3691  0.5050
 2361TIP3    H228499   4.808   3.364   5.211 -1.7350 -0.8980 -1.7510
 2362TIP3   OH228500   1.209   4.529  16.119  0.0755 -0.2667 -0.2662
 2362TIP3    H128501   1.245   4.441  16.104 -1.1905 -0.7892 -0.3251
 2362TIP3    H228502   1.209   4.569  16.032 -3.2140 -1.7468 -1.1002
 2363TIP3   OH228503   1.800   1.761   2.828 -0.3095 -0.3422  0.2507
 2363TIP3    H128504   1.870   1.711   2.869 -1.0879  0.2381  2.4436
 2363TIP3    H228505   1.755   1.698   2.771  0.2538 -1.4699  1.0155
 2364TIP3   OH228506   3.404   2.483   1.367 -0.1628 -0.3528 -0.7698
 2364TIP3    H128507   3.411   2.414   1.433 -0.8266  0.1137 -0.1977
 2364TIP3    H228508   3.424   2.439   1.284  0.9741 -0.8839 -0.2448
 2365TIP3   OH228509   0.413   0.348  10.928  0.5762 -0.0035 -0.3145
 2365TIP3    H128510   0.416   0.419  10.863 -0.7282 -0.0296 -0.4217
 2365TIP3    H228511   0.342   0.373  10.987  2.3032  0.4755  1.6684
 2366TIP3   OH228512   3.813   0.971  16.583  0.4156  0.3146 -0.4822
 2366TIP3    H128513   3.833   1.059  16.615  0.9742 -0.2314  0.7425
 2366TIP3    H228514   3.732   0.947  16.627  0.9166 -0.2421  0.1737
 2367TIP3   OH228515   6.459   3.673   5.285  0.2251 -0.2713  0.4948
 2367TIP3    H128516   6.455   3.580   5.307  2.1905 -0.9773 -1.7060
 2367TIP3    H228517   6.422   3.679   5.197  2.3678  0.5545 -0.4257
 2368TIP3   OH228518   3.220   6.173  15.736 -0.3347  0.5082  0.2349
 2368TIP3    H128519   3.178   6.093  15.706 -1.1540  0.3948  1.6016
 2368TIP3    H228520   3.301   6.178  15.686 -0.4418 -0.9775 -0.1308
 2369TIP3   OH228521   2.833   5.254   3.176 -0.2313  0.6122  0.2716
 2369TIP3    H128522   2.745   5.218   3.174  0.7559 -2.0613 -1.4844
 2369TIP3    H228523   2.842   5.300   3.092  0.2732  0.1836  0.0824
 2370TIP3   OH228524   1.261   2.941  15.942 -0.6137  0.3895 -0.3043
 2370TIP3    H128525   1.190   2.997  15.908 -1.6262 -1.1552 -0.8361
 2370TIP3    H228526   1.337   2.967  15.890 -0.7937  1.9538  0.1448
 2371TIP3   OH228527   4.340   1.342   0.610  0.6006  0.5199  0.3562
 2371TIP3    H128528   4.259   1.350   0.661 -0.4230  0.1761 -1.1391
 2371TIP3    H228529   4.389   1.422   0.631 -1.3207  2.0764 -0.6520
 2372TIP3   OH228530   2.835   5.915  11.366 -0.4926  0.5658  0.1410
 2372TIP3    H128531   2.876   5.840  11.323  0.9774  0.9764  0.7917
 2372TIP3    H228532   2.908   5.970  11.394 -1.5539  2.4330 -0.6420
 2373TIP3   OH228533   1.174   3.349   2.396 -0.3158 -1.1109 -0.1850
 2373TIP3    H128534   1.255   3.357   2.347 -0.3525  0.7046 -0.0243
 2373TIP3    H228535   1.108   3.326   2.331 -1.0387  4.4263 -1.8751
 2374TIP3   OH228536   1.445   1.938   2.515 -0.1692  0.3231 -0.6447
 2374TIP3    H128537   1.425   1.847   2.492 -0.4138 -0.1119  1.1008
 2374TIP3    H228538   1.411   1.990   2.442  1.6312 -1.0677 -2.5553
 2375TIP3   OH228539   0.702   0.760  13.820  0.2381 -0.1134  0.2239
 2375TIP3    H128540   0.797   0.776  13.820  0.0951  0.9093 -0.9961
 2375TIP3    H228541   0.664   0.843  13.790 -1.1226 -0.1883  1.6338
 2376TIP3   OH228542   1.123   1.623  16.872 -0.1756  0.5015 -0.1159
 2376TIP3    H128543   1.204   1.615  16.923 -1.4882 -0.5004  1.9468
 2376TIP3    H228544   1.143   1.580  16.789  0.4889 -2.6561  1.5501
 2377TIP3   OH228545   2.812   6.617  16.930 -0.5295  0.5843 -0.3860
 2377TIP3    H128546   2.905   6.642  16.924 -0.6755  1.5864  1.1647
 2377TIP3    H228547   2.814   6.524  16.954  0.1721  1.2046  2.3141
 2378TIP3   OH228548   0.460   3.992   2.913 -0.3383  0.5726  0.5622
 2378TIP3    H128549   0.497   3.981   2.826 -1.7334  0.4053 -0.0374
 2378TIP3    H228550   0.495   4.076   2.943 -0.1014  0.7963 -0.3079
 2379TIP3   OH228551   0.500   5.831   4.364 -0.1096 -0.3346 -0.1328
 2379TIP3    H128552   0.498   5.749   4.414  0.6347  0.7081  1.7328
 2379TIP3    H228553   0.579   5.824   4.311  0.4505 -0.4825  0.6889
 2380TIP3   OH228554   1.304   6.684  15.074 -0.4270 -0.1699  0.0143
 2380TIP3    H128555   1.263   6.605  15.038 -1.7247  0.0948  0.8395
 2380TIP3    H228556   1.324   6.738  14.998  1.0906 -1.5419 -0.6314
 2381TIP3   OH228557   4.621   3.115  16.163  0.4935  0.2830  0.2644
 2381TIP3    H128558   4.618   3.041  16.102  0.8225 -0.9013  1.6200
 2381TIP3    H228559   4.533   3.120  16.199 -0.3588  2.4324 -1.8756
 2382TIP3   OH228560   2.896   1.032   4.755 -0.5380  0.6188 -0.5930
 2382TIP3    H128561   2.865   0.987   4.834  0.9223  1.3517  0.4594
 2382TIP3    H228562   2.924   1.118   4.787 -1.0079  1.3776 -2.1364
 2383TIP3   OH228563   1.805   4.346  13.613 -0.1357  0.8077 -0.0757
 2383TIP3    H128564   1.788   4.402  13.538 -0.1362  1.2431  0.2435
 2383TIP3    H228565   1.788   4.402  13.689  1.8093  0.9806  0.2642
 2384TIP3   OH228566   1.421   2.906  13.326  0.0876 -0.6746  0.5016
 2384TIP3    H128567   1.397   2.866  13.242 -1.7014  1.8545 -0.3140
 2384TIP3    H228568   1.497   2.855  13.356 -1.8766 -4.5703 -0.3813
 2385TIP3   OH228569   5.784   0.619   2.729  0.2249  0.1340  0.7018
 2385TIP3    H128570   5.716   0.602   2.794  0.5832  0.0391  1.0539
 2385TIP3    H228571   5.764   0.707   2.697 -1.0111 -0.5064 -0.3696
 2386TIP3   OH228572   5.048   5.500  11.144 -0.0189  0.2974 -0.4132
 2386TIP3    H128573   5.099   5.434  11.191 -0.7816 -0.2894 -0.3935
 2386TIP3    H228574   4.981   5.527  11.207 -0.5946  0.0391 -0.9046
 2387TIP3   OH228575   3.918   6.352   0.210  0.1853  0.2677 -0.0483
 2387TIP3    H128576   4.010   6.337   0.233  0.7438  1.4398 -1.3807
 2387TIP3    H228577   3.917   6.352   0.115 -1.1558  0.5926 -0.0570
 2388TIP3   OH228578   0.501   2.219   6.099  0.4569  0.1740  0.0708
 2388TIP3    H128579   0.439   2.192   6.167  0.1615 -0.3425 -0.3957
 2388TIP3    H228580   0.527   2.137   6.057  0.8698  0.4613 -0.2422
 2389TIP3   OH228581   0.579   5.135  13.799  0.1291 -0.5846 -0.3103
 2389TIP3    H128582   0.582   5.197  13.873  0.3796 -0.1308 -0.6926
 2389TIP3    H228583   0.620   5.183  13.727  0.7620 -1.3852 -0.4866
 2390TIP3   OH228584   6.284   4.278  14.609 -0.3639  0.5474  0.4052
 2390TIP3    H128585   6.189   4.270  14.606 -0.2243 -2.6111  0.7924
 2390TIP3    H228586   6.308   4.313  14.523 -1.8138  1.0715  0.1792
 2391TIP3   OH228587   1.968   0.656   4.115 -0.0636 -0.1559  0.6187
 2391TIP3    H128588   1.986   0.724   4.051  2.1103 -0.9802  0.2591
 2391TIP3    H228589   1.913   0.593   4.068  1.2063 -0.5766 -0.3493
 2392TIP3   OH228590   1.668   5.211  13.704  0.1562 -0.4219 -0.1434
 2392TIP3    H128591   1.601   5.271  13.671 -1.2795 -0.4631  2.4276
 2392TIP3    H228592   1.740   5.218  13.641 -1.7253  0.5833 -2.3465
 2393TIP3   OH228593   1.027   6.090  12.292  0.3018  0.2600 -0.2731
 2393TIP3    H128594   1.050   6.182  12.285 -2.7529  1.1738  0.0155
 2393TIP3    H228595   0.976   6.072  12.213  1.3317 -1.3792 -0.6084
 2394TIP3   OH228596   2.457   3.504   3.452  0.1015  0.4839  0.3227
 2394TIP3    H128597   2.487   3.513   3.542  0.8214 -2.3705  0.4761
 2394TIP3    H228598   2.469   3.411   3.432  0.3796  1.0820 -2.8670
 2395TIP3   OH228599   1.175   3.529   5.618  0.0904  0.4870 -0.5178
 2395TIP3    H128600   1.262   3.566   5.608  0.1033  0.0355 -2.5286
 2395TIP3    H228601   1.119   3.584   5.563 -0.8518  0.5789  0.4980
 2396TIP3   OH228602   4.431   2.239  16.273  0.1249  0.1171 -0.1571
 2396TIP3    H128603   4.371   2.296  16.320  0.6756 -0.3819  1.1869
 2396TIP3    H228604   4.449   2.167  16.333 -0.7358 -1.6403 -1.8769
 2397TIP3   OH228605   0.582   1.590  16.465 -0.1547 -0.0436  0.0638
 2397TIP3    H128606   0.536   1.523  16.414  2.2577 -0.8678 -1.1965
 2397TIP3    H228607   0.672   1.589  16.430  1.3573  0.1820  3.5462
 2398TIP3   OH228608   4.263   4.833   2.378 -0.2083  0.2698 -0.8039
 2398TIP3    H128609   4.353   4.799   2.386  0.2437  1.4281 -0.7627
 2398TIP3    H228610   4.271   4.926   2.397 -1.3590  0.4767 -1.2542
 2399TIP3   OH228611   0.178   5.089  12.049  0.7319  0.1945  0.0754
 2399TIP3    H128612   0.263   5.046  12.059  0.4608 -0.0243  1.5258
 2399TIP3    H228613   0.114   5.025  12.078  0.3720  1.7736  3.1796
 2400TIP3   OH228614   4.457   2.808  16.460  0.0561 -0.1237 -0.4255
 2400TIP3    H128615   4.492   2.747  16.395 -0.4307  0.0681 -0.8754
 2400TIP3    H228616   4.509   2.791  16.539  3.3001  2.1940 -1.8205
 2401TIP3   OH228617   3.079   1.704   5.006 -0.1823 -0.1019 -0.7586
 2401TIP3    H128618   3.114   1.615   5.001 -2.2629 -1.0908  0.6646
 2401TIP3    H228619   3.048   1.713   5.096  1.5549  2.7772 -0.3312
 2402TIP3   OH228620   3.409   3.368   1.202 -0.6439  0.5201  0.3797
 2402TIP3    H128621   3.337   3.306   1.190 -0.3348 -0.0519  1.3824
 2402TIP3    H228622   3.433   3.395   1.113 -1.0345 -0.5087 -0.0489
 2403TIP3   OH228623   3.485   1.073   3.763  0.3977  0.0458  0.0794
 2403TIP3    H128624   3.504   1.150   3.709 -1.5793  0.0973 -0.6361
 2403TIP3    H228625   3.506   1.100   3.852  2.7906  0.3000 -0.5104
 2404TIP3   OH228626   0.042   2.777  14.840  0.1634  0.0065  0.7465
 2404TIP3    H128627   0.102   2.832  14.789 -0.7801 -2.2083 -3.1532
 2404TIP3    H228628  -0.045   2.812  14.820 -0.4604 -2.5464 -1.8193
 2405TIP3   OH228629   1.721   5.876   0.984 -0.5944  0.9543  0.3558
 2405TIP3    H128630   1.657   5.806   0.968 -0.6541  0.9858  0.4558
 2405TIP3    H228631   1.766   5.848   1.063  2.0814 -0.9700 -1.6517
 2406TIP3   OH228632   5.071   2.437   4.050 -0.2378 -0.1331  0.5155
 2406TIP3    H128633   5.072   2.359   3.995 -0.1880 -0.3990  0.8854
 2406TIP3    H228634   5.162   2.465   4.055  0.4440 -2.3594  3.5704
 2407TIP3   OH228635   2.753   4.278  14.379  0.6852  0.0610  0.4534
 2407TIP3    H128636   2.832   4.309  14.423  0.1837  2.9709 -0.4454
 2407TIP3    H228637   2.688   4.271  14.448  1.2161 -0.4783  0.9078
 2408TIP3   OH228638   5.880   4.308   1.964 -0.1911  0.1306 -0.2059
 2408TIP3    H128639   5.802   4.319   2.018 -0.5974  0.1916 -0.7900
 2408TIP3    H228640   5.926   4.233   2.003 -1.7761 -1.4905 -1.2477
 2409TIP3   OH228641   3.057   6.534   1.311  0.5058 -0.1437  0.4895
 2409TIP3    H128642   3.139   6.521   1.359  1.1523 -1.5260 -0.9087
 2409TIP3    H228643   3.005   6.455   1.331  1.1841 -1.2398 -1.7538
 2410TIP3   OH228644   4.645   1.128   1.179 -0.2983  1.1305  0.1493
 2410TIP3    H128645   4.582   1.153   1.111 -0.9207  1.2317  0.7475
 2410TIP3    H228646   4.731   1.142   1.138 -0.6463  2.0780 -0.3105
 2411TIP3   OH228647   3.633   5.771  12.482 -0.6319 -0.1606  0.1381
 2411TIP3    H128648   3.542   5.801  12.477 -1.4607 -2.2938  1.0962
 2411TIP3    H228649   3.676   5.836  12.538 -1.4479  1.0868 -0.6298
 2412TIP3   OH228650   5.672   1.275   0.184 -0.4405  0.2610  0.2473
 2412TIP3    H128651   5.619   1.225   0.247 -0.1671 -0.5957 -0.1859
 2412TIP3    H228652   5.623   1.356   0.171 -0.9370  0.0816  0.9123
 2413TIP3   OH228653   6.321   2.665   3.480 -0.3047 -0.4107 -0.4892
 2413TIP3    H128654   6.312   2.717   3.401  0.5932  0.9030  0.2226
 2413TIP3    H228655   6.249   2.693   3.536 -0.1597 -0.3586 -0.3272
 2414TIP3   OH228656   2.345   2.362  16.690 -0.0414  0.1365 -0.0326
 2414TIP3    H128657   2.297   2.373  16.609  1.1427  0.7117 -0.6842
 2414TIP3    H228658   2.411   2.431  16.688  0.2729 -0.1046  1.2246
 2415TIP3   OH228659   0.913   3.016   2.081 -0.1262 -0.2035 -0.1620
 2415TIP3    H128660   0.834   2.990   2.033 -1.2201  1.3976  0.6946
 2415TIP3    H228661   0.897   2.986   2.171  0.1112  0.3760  0.0749
 2416TIP3   OH228662   2.522   4.219   2.507  0.4366  0.1303 -0.1505
 2416TIP3    H128663   2.466   4.142   2.517  0.1341  0.4089  0.3066
 2416TIP3    H228664   2.574   4.221   2.587  1.7821 -0.6582 -0.9660
 2417TIP3   OH228665   1.948   6.075   5.631 -0.5548  0.1567  0.0357
 2417TIP3    H128666   2.009   6.101   5.700 -3.4295  1.4101  2.3301
 2417TIP3    H228667   1.911   5.992   5.662 -2.6424  1.2531  0.6133
 2418TIP3   OH228668   3.178   5.241  12.728 -0.5733  0.7715 -0.3835
 2418TIP3    H128669   3.271   5.222  12.738 -0.5955  1.0214  0.2927
 2418TIP3    H228670   3.145   5.170  12.672 -0.2730 -0.1319  0.5639
 2419TIP3   OH228671   6.115   4.520  14.715 -1.0539 -0.4255  0.1737
 2419TIP3    H128672   6.154   4.606  14.699 -1.5836 -0.0748  0.7321
 2419TIP3    H228673   6.109   4.514  14.810 -0.7640 -1.2020  0.1514
 2420TIP3   OH228674   3.368   3.718   4.533 -0.1517  0.5413 -0.5920
 2420TIP3    H128675   3.439   3.781   4.532 -0.0962  0.6144  2.0664
 2420TIP3    H228676   3.406   3.639   4.571 -1.6461  0.9458  2.0072
 2421TIP3   OH228677   1.580   4.971  12.856  0.1357 -0.2471 -0.0625
 2421TIP3    H128678   1.511   4.908  12.876  1.2159 -0.9412  1.7097
 2421TIP3    H228679   1.536   5.056  12.856 -0.9991 -0.8159 -0.6364
 2422TIP3   OH228680   3.120   1.261  15.552 -0.5605 -1.1757  0.1784
 2422TIP3    H128681   3.028   1.262  15.524 -0.4950  1.1778 -0.1640
 2422TIP3    H228682   3.120   1.307  15.636  0.1629 -2.1975  0.7462
 2423TIP3   OH228683   4.390   5.955  11.296 -0.4420 -0.3708 -0.2116
 2423TIP3    H128684   4.457   5.886  11.295 -0.3017 -0.3992  2.6495
 2423TIP3    H228685   4.375   5.975  11.203  1.4850 -2.3147 -1.0402
 2424TIP3   OH228686   2.890   5.371   2.921 -0.4051 -0.1971 -0.3784
 2424TIP3    H128687   2.960   5.396   2.862 -0.5627  0.0530 -0.4612
 2424TIP3    H228688   2.812   5.414   2.885 -1.0582 -2.2227 -1.5778
 2425TIP3   OH228689   5.299   3.775   0.769  0.3813  0.0544  0.0288
 2425TIP3    H128690   5.232   3.707   0.772  0.5370 -0.1719 -1.2375
 2425TIP3    H228691   5.268   3.842   0.829 -0.6391 -0.3490 -0.0298
 2426TIP3   OH228692   6.542   5.105   3.551 -0.3599 -0.2629 -0.7429
 2426TIP3    H128693   6.562   5.185   3.599  0.6254 -0.1381 -1.3189
 2426TIP3    H228694   6.471   5.130   3.491 -0.7233 -0.0859 -0.2398
 2427TIP3   OH228695   5.076   6.334  14.643  0.0873  0.2944 -0.0252
 2427TIP3    H128696   5.155   6.280  14.650 -1.6699 -2.6197 -0.6650
 2427TIP3    H228697   5.064   6.372  14.730  1.3268 -0.5278  0.5308
 2428TIP3   OH228698   3.410   4.957  12.069 -0.1260  0.0297 -0.1548
 2428TIP3    H128699   3.454   4.958  12.155  1.0789 -1.5332 -0.7047
 2428TIP3    H228700   3.480   4.936  12.007 -0.8885  1.5604 -1.6087
 2429TIP3   OH228701   4.437   6.350   1.400  0.0143  0.0097  0.0010
 2429TIP3    H128702   4.507   6.306   1.449 -0.5912 -0.0358  0.8424
 2429TIP3    H228703   4.385   6.394   1.467 -1.8624 -1.4857 -0.3893
 2430TIP3   OH228704   0.286   4.294  14.526  0.6652 -0.4035 -0.4412
 2430TIP3    H128705   0.367   4.310  14.573 -0.2311 -0.5589  1.2539
 2430TIP3    H228706   0.305   4.218  14.470  0.8146 -2.7284  2.4878
 2431TIP3   OH228707   2.128   1.045  12.150  1.1631 -0.1439  0.5692
 2431TIP3    H128708   2.160   1.036  12.060  1.7272  3.4057  0.2599
 2431TIP3    H228709   2.197   1.008  12.204  0.7363 -2.5009 -0.3871
 2432TIP3   OH228710   2.071   3.930  16.710  0.2118  0.1530  0.6916
 2432TIP3    H128711   2.067   3.859  16.646  0.8562 -0.5411  1.4066
 2432TIP3    H228712   2.161   3.929  16.742 -0.2765  0.0180  2.1312
 2433TIP3   OH228713   4.124   1.793  11.966 -1.3852  0.5299 -0.2227
 2433TIP3    H128714   4.063   1.731  12.006 -1.3698  0.8874  0.3501
 2433TIP3    H228715   4.082   1.816  11.883 -1.3849 -0.2564 -0.4553
 2434TIP3   OH228716   6.041   3.967  11.272 -0.0341  0.2074 -0.1670
 2434TIP3    H128717   6.001   3.989  11.356 -0.9984  2.1040 -1.0718
 2434TIP3    H228718   6.130   3.941  11.295 -0.7478 -0.9152  1.5792
 2435TIP3   OH228719   5.683   0.360  16.857 -0.4412 -0.1834  0.4314
 2435TIP3    H128720   5.735   0.302  16.802 -1.6854 -0.3831 -0.5799
 2435TIP3    H228721   5.612   0.304  16.890 -1.5767  0.6774 -0.4480
 2436TIP3   OH228722   3.249   1.532  12.300 -0.2475  0.0066 -0.2043
 2436TIP3    H128723   3.258   1.607  12.358 -4.0039  1.6410 -1.3807
 2436TIP3    H228724   3.241   1.456  12.358  1.8449  0.6869  1.0638
 2437TIP3   OH228725   4.424   1.034  13.117  0.3674  0.1163 -0.2213
 2437TIP3    H128726   4.466   1.012  13.200  1.8251 -1.9874 -1.4501
 2437TIP3    H228727   4.359   0.964  13.104  0.8997 -0.1822 -1.3489
 2438TIP3   OH228728   4.829   2.243   5.204  0.1890  1.1660 -0.5166
 2438TIP3    H128729   4.811   2.157   5.167  0.0725  1.2561 -0.6700
 2438TIP3    H228730   4.925   2.251   5.202  0.1641  1.3690 -1.2493
 2439TIP3   OH228731   5.178   6.203   4.269  0.1183 -0.1367 -0.1087
 2439TIP3    H128732   5.170   6.147   4.347 -2.2187 -1.1148 -0.9446
 2439TIP3    H228733   5.100   6.258   4.272  1.9592  2.6618  0.2518
 2440TIP3   OH228734   2.551   2.471  11.709 -0.4323 -0.3293 -0.2218
 2440TIP3    H128735   2.582   2.561  11.699  1.2201 -0.8751 -0.2859
 2440TIP3    H228736   2.505   2.453  11.627  0.5083 -0.0133 -0.8386
 2441TIP3   OH228737   2.596   0.428  15.446 -0.1399 -0.5133  0.6817
 2441TIP3    H128738   2.591   0.341  15.486 -0.3161 -1.7683 -1.8228
 2441TIP3    H228739   2.514   0.471  15.471 -0.4103 -1.3777  1.3353
 2442TIP3   OH228740   2.492   0.491   2.385 -0.0798  0.6186 -0.4572
 2442TIP3    H128741   2.473   0.497   2.291 -0.7776 -0.0529 -0.3636
 2442TIP3    H228742   2.567   0.550   2.397 -1.1355  2.1897 -1.1086
 2443TIP3   OH228743   3.080   4.251   2.011 -0.1363 -0.1275 -0.3353
 2443TIP3    H128744   3.119   4.166   2.033 -0.2522 -0.6139 -1.8872
 2443TIP3    H228745   2.989   4.244   2.042  0.5878  0.5774  2.2242
 2444TIP3   OH228746   0.440   6.132   4.213 -1.2219  0.1535  0.2783
 2444TIP3    H128747   0.366   6.098   4.264 -1.6326 -0.8964 -0.9508
 2444TIP3    H228748   0.476   6.055   4.170  0.0862  0.7851  0.1897
 2445TIP3   OH228749   2.701   2.313  14.256 -0.0820  0.1943 -0.1073
 2445TIP3    H128750   2.642   2.264  14.313  0.7588 -0.4042  0.2746
 2445TIP3    H228751   2.646   2.380  14.215 -1.3538 -1.2471 -0.8769
 2446TIP3   OH228752   0.752   4.545  14.346  0.2951 -0.2736  0.1556
 2446TIP3    H128753   0.686   4.545  14.276  1.5823 -2.3006 -1.1543
 2446TIP3    H228754   0.832   4.575  14.302  0.9293 -0.7382  0.9855
 2447TIP3   OH228755   6.358   1.403  11.965  0.4168 -0.2456  0.5959
 2447TIP3    H128756   6.406   1.344  12.024  2.0006 -0.1523 -0.5412
 2447TIP3    H228757   6.425   1.437  11.905 -0.9128  0.7225 -0.3978
 2448TIP3   OH228758   0.618   3.747   6.426 -0.3440 -0.1777  0.2886
 2448TIP3    H128759   0.580   3.659   6.428  0.3757 -0.4950  0.2196
 2448TIP3    H228760   0.554   3.801   6.472 -1.7942 -0.3416 -1.3938
 2449TIP3   OH228761   4.940   5.917  14.120 -0.3717  0.4298 -0.7159
 2449TIP3    H128762   4.905   5.828  14.119 -0.6426  0.5395 -0.9951
 2449TIP3    H228763   4.872   5.969  14.162  0.2870  0.3001  0.5655
 2450TIP3   OH228764   1.225   3.905  16.698  0.0570 -0.2772 -0.0559
 2450TIP3    H128765   1.223   3.957  16.617  1.7815  0.2902  0.2338
 2450TIP3    H228766   1.159   3.944  16.754 -0.7665 -0.3254 -0.9734
 2451TIP3   OH228767   2.627   3.428   3.006  0.9838 -0.1497 -0.0240
 2451TIP3    H128768   2.677   3.392   3.079  0.2840 -1.1554 -0.0224
 2451TIP3    H228769   2.552   3.471   3.047 -0.4742 -2.4017 -0.1854
 2452TIP3   OH228770   3.755   1.814   4.404  0.0496 -0.0269  0.2863
 2452TIP3    H128771   3.792   1.787   4.320 -0.3018  1.1544 -0.2706
 2452TIP3    H228772   3.831   1.831   4.459  0.4833  2.8629 -0.9960
 2453TIP3   OH228773   1.109   2.526   1.557  0.0134 -0.5899 -0.0656
 2453TIP3    H128774   1.085   2.515   1.465 -1.3989 -0.4081  0.2691
 2453TIP3    H228775   1.157   2.446   1.579  0.8969 -0.3649 -1.1126
 2454TIP3   OH228776   0.287   5.084  12.936 -0.2825  0.4061 -0.2810
 2454TIP3    H128777   0.269   5.173  12.966 -0.1695  0.0945  0.7504
 2454TIP3    H228778   0.376   5.088  12.901 -0.3083  0.7064 -0.3181
 2455TIP3   OH228779   1.688   3.675   5.851  0.8226  0.2374  0.5249
 2455TIP3    H128780   1.597   3.699   5.834  0.6531 -0.2431  0.7286
 2455TIP3    H228781   1.735   3.698   5.771  0.7348  1.5659  0.8383
 2456TIP3   OH228782   0.055   0.488  17.334 -0.0848 -0.7003  0.6373
 2456TIP3    H128783   0.063   0.502  17.240 -0.3210  1.4203  0.8870
 2456TIP3    H228784   0.016   0.400  17.342 -1.3470 -0.3795 -1.2877
 2457TIP3   OH228785   5.140   3.755  16.402 -0.6286 -0.0349 -0.1308
 2457TIP3    H128786   5.188   3.750  16.485  2.6647  1.8049 -1.7481
 2457TIP3    H228787   5.115   3.664  16.384  1.2167 -0.9408  1.4581
 2458TIP3   OH228788   0.091   0.806  14.794  0.5741 -0.2728  0.0006
 2458TIP3    H128789   0.128   0.894  14.788  1.1209 -0.4633  0.5338
 2458TIP3    H228790   0.157   0.749  14.755  0.1135 -0.4230 -0.5684
 2459TIP3   OH228791   1.793   1.905   4.579 -0.1390  0.3017  0.2442
 2459TIP3    H128792   1.868   1.859   4.540  0.7688 -0.1165  2.3387
 2459TIP3    H228793   1.756   1.956   4.507  1.1013 -0.8259 -1.2631
 2460TIP3   OH228794   5.060   0.306  12.709 -0.2953 -0.4322  0.0956
 2460TIP3    H128795   5.018   0.324  12.625  0.5904  0.0785 -0.2508
 2460TIP3    H228796   5.130   0.244  12.688 -0.8102 -1.2330  0.6585
 2461TIP3   OH228797   2.683   3.737  13.544  0.3132 -0.3269 -0.1948
 2461TIP3    H128798   2.661   3.759  13.454 -0.0618 -1.3586 -0.3738
 2461TIP3    H228799   2.666   3.643  13.550  0.7922 -0.3590  0.8183
 2462TIP3   OH228800   1.204   0.153  12.736 -0.1275 -0.7968 -0.5714
 2462TIP3    H128801   1.244   0.092  12.673 -1.1987 -0.8770 -1.2067
 2462TIP3    H228802   1.157   0.216  12.681  2.3585  1.7112 -0.0245
 2463TIP3   OH228803   2.024   5.152  14.890  0.6786  0.2575 -0.0496
 2463TIP3    H128804   2.066   5.102  14.820  1.0228  1.6944 -0.9270
 2463TIP3    H228805   1.932   5.156  14.864  0.4880 -0.6508  0.4800
 2464TIP3   OH228806   1.333   4.484   4.928 -0.0025 -0.4575  0.5538
 2464TIP3    H128807   1.351   4.570   4.889  0.3990 -0.3540  0.9619
 2464TIP3    H228808   1.382   4.484   5.010  0.5440 -1.3259  0.2480
 2465TIP3   OH228809   3.710   3.390   3.755 -0.5104  0.3857 -0.0673
 2465TIP3    H128810   3.646   3.340   3.705  1.6301 -1.0793 -1.4655
 2465TIP3    H228811   3.753   3.446   3.691  2.8870 -2.1408 -0.2260
 2466TIP3   OH228812   3.272   3.046   2.575 -0.0794 -0.6465 -0.1626
 2466TIP3    H128813   3.318   3.119   2.533  4.2933 -2.7193  0.5226
 2466TIP3    H228814   3.302   3.048   2.666 -1.4348 -2.1584  0.3603
 2467TIP3   OH228815   2.641   6.651   1.096 -0.0694  0.9729  0.3900
 2467TIP3    H128816   2.683   6.612   1.173  0.9719  1.3560  0.0372
 2467TIP3    H228817   2.705   6.714   1.063 -0.6869  1.1397 -0.5306
 2468TIP3   OH228818   4.126   5.185   1.373 -0.6650  0.0025 -0.5461
 2468TIP3    H128819   4.067   5.135   1.317 -1.7738  0.9999 -0.3332
 2468TIP3    H228820   4.068   5.226   1.438  0.4453 -0.1658  0.5993
 2469TIP3   OH228821   0.725   1.834   3.863  0.0634 -0.4128 -0.2287
 2469TIP3    H128822   0.803   1.889   3.877  0.9009 -1.3298 -1.1239
 2469TIP3    H228823   0.743   1.754   3.912 -0.0022 -0.8926 -0.9674
 2470TIP3   OH228824   4.710   1.761   3.649  0.1366  0.7421  0.3144
 2470TIP3    H128825   4.778   1.826   3.662 -0.7332  1.5350  1.1055
 2470TIP3    H228826   4.639   1.808   3.606  0.1272 -0.1054 -0.6456
 2471TIP3   OH228827   4.391   5.229  16.242  0.5800 -0.0122 -0.0960
 2471TIP3    H128828   4.431   5.227  16.155  2.9203 -0.5912  0.9241
 2471TIP3    H228829   4.428   5.307  16.283 -0.8934  0.5404  0.2441
 2472TIP3   OH228830   5.464   1.364  14.798  0.3227 -0.5740  0.3471
 2472TIP3    H128831   5.471   1.453  14.832 -1.0811  0.8631 -2.6662
 2472TIP3    H228832   5.407   1.318  14.860 -2.0398  1.8091  0.1179
 2473TIP3   OH228833   2.798   4.715  11.850  0.1787  0.4580 -0.7558
 2473TIP3    H128834   2.841   4.769  11.783 -0.5582  1.2694 -0.5962
 2473TIP3    H228835   2.814   4.625  11.822  1.6790  0.7319 -0.8878
 2474TIP3   OH228836   5.037   6.457   4.899  0.4035  0.2408  0.2103
 2474TIP3    H128837   4.980   6.381   4.893 -0.0507  0.6315 -0.5671
 2474TIP3    H228838   4.989   6.518   4.956 -0.1980  0.7581 -0.8182
 2475TIP3   OH228839   2.278   5.653   6.300 -0.0605 -0.2128  0.2769
 2475TIP3    H128840   2.331   5.591   6.350 -0.4409 -1.1650 -0.4766
 2475TIP3    H228841   2.214   5.598   6.254  0.4818  0.6064 -1.5105
 2476TIP3   OH228842   2.409   2.373  10.896 -0.0325  0.0600  0.2030
 2476TIP3    H128843   2.457   2.450  10.926 -0.1235 -0.0666  0.6860
 2476TIP3    H228844   2.373   2.398  10.811  0.4707  0.3254  0.0686
 2477TIP3   OH228845   2.562   1.701   5.152 -0.3160 -0.0056 -0.1294
 2477TIP3    H128846   2.617   1.623   5.162 -0.9148 -0.4951 -0.5542
 2477TIP3    H228847   2.519   1.711   5.236 -0.5518 -0.3809 -0.2025
 2478TIP3   OH228848   3.491   1.596  11.495 -0.2742  0.2287  0.6193
 2478TIP3    H128849   3.507   1.536  11.568  0.8770  0.3738  0.5041
 2478TIP3    H228850   3.513   1.683  11.530 -2.8206  0.7620  1.0804
 2479TIP3   OH228851   5.693   4.893   1.659 -0.5521 -0.6656  0.0680
 2479TIP3    H128852   5.732   4.818   1.704 -0.6000 -0.5930  0.2308
 2479TIP3    H228853   5.658   4.947   1.729 -0.3913 -0.4197 -0.0407
 2480TIP3   OH228854   4.309   0.471   0.267  0.3798 -0.8162  0.2177
 2480TIP3    H128855   4.280   0.441   0.181  1.3175 -1.0743 -0.0128
 2480TIP3    H228856   4.256   0.549   0.285  0.7437 -0.2839 -0.9547
 2481TIP3   OH228857   5.156   1.346  11.307  0.2296  0.3441  0.1703
 2481TIP3    H128858   5.196   1.276  11.359 -3.3979 -0.5024  2.1802
 2481TIP3    H228859   5.137   1.306  11.223  0.3430 -0.3200  0.4584
 2482TIP3   OH228860   0.119   3.490  12.169 -0.4337 -0.2993 -0.4324
 2482TIP3    H128861   0.097   3.496  12.076 -0.3073 -0.9433 -0.5072
 2482TIP3    H228862   0.166   3.572  12.188 -0.6984 -0.0435 -0.8662
 2483TIP3   OH228863   5.781   1.610  11.848  0.8297 -0.5658  0.1820
 2483TIP3    H128864   5.728   1.530  11.850  1.6679 -1.1268  0.5341
 2483TIP3    H228865   5.775   1.640  11.757 -0.9937  0.0223  0.4589
 2484TIP3   OH228866   0.470   2.893  13.054  0.4316  0.2695 -1.0139
 2484TIP3    H128867   0.558   2.899  13.092 -0.0644  0.6308  0.1231
 2484TIP3    H228868   0.422   2.966  13.094 -0.4525 -0.0626 -1.4514
 2485TIP3   OH228869   0.997   6.014   0.872  0.0854  0.3796 -0.3381
 2485TIP3    H128870   0.909   6.052   0.866 -0.4902 -0.9630 -0.9974
 2485TIP3    H228871   1.008   5.993   0.964 -0.5583 -0.0256 -0.3459
 2486TIP3   OH228872   0.404   5.116  15.052  0.2091 -0.1072 -0.0671
 2486TIP3    H128873   0.313   5.106  15.022  0.7658 -1.1944 -1.5199
 2486TIP3    H228874   0.396   5.130  15.146 -1.4818 -0.0155 -0.1829
 2487TIP3   OH228875   0.521   5.262  16.919 -0.0055  0.0068 -0.0398
 2487TIP3    H128876   0.429   5.248  16.894  0.0284  1.0401 -0.7735
 2487TIP3    H228877   0.518   5.275  17.014 -0.5903 -0.1797 -0.0279
 2488TIP3   OH228878   1.747   2.622   4.373  0.0060  0.3230 -0.4828
 2488TIP3    H128879   1.818   2.583   4.425 -2.1573  0.4489  2.8657
 2488TIP3    H228880   1.722   2.553   4.311  2.5853  0.0853 -1.3714
 2489TIP3   OH228881   6.302   1.066  13.923 -0.3155 -0.3797 -0.4922
 2489TIP3    H128882   6.351   1.145  13.948 -0.5322 -0.3302 -0.2239
 2489TIP3    H228883   6.300   1.013  14.003 -0.8617 -0.3011 -0.4552
 2490TIP3   OH228884   6.488   2.981   0.953 -0.3784  0.1730 -0.2354
 2490TIP3    H128885   6.535   2.950   1.031 -1.4802  1.3241  0.9221
 2490TIP3    H228886   6.431   2.908   0.929 -1.0344  0.2927  0.8841
 2491TIP3   OH228887   4.366   3.425  11.410 -0.2003 -0.3759 -0.0057
 2491TIP3    H128888   4.437   3.462  11.357 -0.0125 -0.9321 -0.1532
 2491TIP3    H228889   4.407   3.353  11.458 -0.0564  0.9264  1.9100
 2492TIP3   OH228890   6.067   0.351   4.270  0.1599 -0.4028  0.2108
 2492TIP3    H128891   6.147   0.403   4.278  0.1937 -0.0660 -1.7699
 2492TIP3    H228892   6.092   0.277   4.215 -0.5655 -1.0563  0.7312
 2493TIP3   OH228893   0.118   4.343  12.319  0.7241 -0.0632  0.6744
 2493TIP3    H128894   0.101   4.426  12.365  1.7817  0.4629  0.1419
 2493TIP3    H228895   0.064   4.348  12.241  1.3157  0.4475  0.2906
 2494TIP3   OH228896   3.747   0.038   2.514 -0.0519  0.8923  0.1672
 2494TIP3    H128897   3.833   0.021   2.555 -0.9656 -1.0329  1.4774
 2494TIP3    H228898   3.762   0.025   2.421  0.9249 -0.4433  0.4678
 2495TIP3   OH228899   6.384   1.498   4.441 -0.2140 -0.2763 -0.0314
 2495TIP3    H128900   6.479   1.503   4.454 -0.0347 -1.6833 -0.6755
 2495TIP3    H228901   6.361   1.410   4.471 -1.0758 -0.4974 -1.3122
 2496TIP3   OH228902   2.982   6.030  13.972 -0.2067  0.6410 -0.5456
 2496TIP3    H128903   3.032   5.949  13.957 -0.7424  0.5442 -1.9771
 2496TIP3    H228904   2.962   6.029  14.065  1.5498  0.1576 -0.1298
 2497TIP3   OH228905   4.423   2.727   2.403 -0.9589 -0.5207  0.1457
 2497TIP3    H128906   4.513   2.720   2.369  0.0875 -0.8416  2.7401
 2497TIP3    H228907   4.382   2.793   2.348  0.2567 -1.6535 -2.2992
 2498TIP3   OH228908   2.489   3.632   4.998 -0.6046  0.9045  0.4138
 2498TIP3    H128909   2.480   3.681   4.917  0.9302  0.5679 -0.0092
 2498TIP3    H228910   2.551   3.683   5.050  0.6403 -0.2903  0.1632
 2499TIP3   OH228911   5.647   0.691   1.157  0.7821 -0.4138  0.0536
 2499TIP3    H128912   5.576   0.639   1.196 -1.5228  1.8458 -0.8316
 2499TIP3    H228913   5.673   0.641   1.080 -1.6602 -0.1868 -1.0220
 2500TIP3   OH228914   2.831   6.033  14.466  0.3537 -0.0139  0.2931
 2500TIP3    H128915   2.873   5.959  14.511  2.4274  0.8663 -0.0985
 2500TIP3    H228916   2.861   6.110  14.514  1.1203  0.8126 -1.4472
 2501TIP3   OH228917   3.703   2.164   5.925 -0.0066 -0.2363  0.2253
 2501TIP3    H128918   3.791   2.202   5.923 -0.3416  0.5183 -1.2867
 2501TIP3    H228919   3.697   2.113   5.845 -1.0896  0.0338  0.1199
 2502TIP3   OH228920   2.980   2.145   3.281 -0.2018  0.6835  0.1701
 2502TIP3    H128921   3.063   2.100   3.297  1.1064  1.7818 -2.7393
 2502TIP3    H228922   2.996   2.235   3.306 -1.2031  0.5388  1.4100
 2503TIP3   OH228923   1.041   3.124   3.634 -0.0969 -0.5972 -0.5041
 2503TIP3    H128924   1.044   3.028   3.642 -1.3323 -0.5341  1.5346
 2503TIP3    H228925   1.032   3.154   3.724 -0.1629  1.4415 -1.1610
 2504TIP3   OH228926   6.194   0.584   2.506  0.3448  0.3557  0.2251
 2504TIP3    H128927   6.125   0.602   2.570 -0.0726  0.2091 -0.1793
 2504TIP3    H228928   6.198   0.663   2.452 -0.9522 -0.3951 -1.0580
 2505TIP3   OH228929   3.028   6.425  14.840  0.0051  0.2630  0.7545
 2505TIP3    H128930   2.975   6.476  14.902 -1.2267  0.5214 -0.4722
 2505TIP3    H228931   3.078   6.490  14.791 -0.6481  0.2241  0.0207
 2506TIP3   OH228932   1.331   5.199   2.642 -0.1178 -0.4525  0.2332
 2506TIP3    H128933   1.353   5.116   2.599 -1.7225  0.7472 -3.3474
 2506TIP3    H228934   1.394   5.262   2.606 -0.7394  0.4049  0.6047
 2507TIP3   OH228935   5.333   2.059  13.308 -0.0716  0.2950 -0.4053
 2507TIP3    H128936   5.394   2.035  13.238  0.8966  1.2096  0.0999
 2507TIP3    H228937   5.254   2.009  13.289  0.7815 -0.8128 -1.1544
 2508TIP3   OH228938   2.339   6.697   0.410 -0.1666 -0.3417  0.1466
 2508TIP3    H128939   2.410   6.698   0.475 -0.2815  1.9800  0.3278
 2508TIP3    H228940   2.383   6.691   0.326  0.2362  0.4266  0.2909
 2509TIP3   OH228941   3.549   6.012   2.791 -0.7240  0.4702  0.2934
 2509TIP3    H128942   3.487   6.020   2.863  0.6803 -1.0688  1.7442
 2509TIP3    H228943   3.555   5.918   2.774  1.3756  0.5404  0.3733
 2510TIP3   OH228944   0.015   5.089  13.085  0.7201 -0.1083 -0.2676
 2510TIP3    H128945  -0.072   5.086  13.124  0.5326 -0.1139 -0.6729
 2510TIP3    H228946   0.038   4.997  13.069  1.4751 -0.2178  1.2732
 2511TIP3   OH228947   1.288   6.101   4.351  0.3575  0.0526 -0.6448
 2511TIP3    H128948   1.258   6.116   4.262 -1.3538 -0.5983 -0.2183
 2511TIP3    H228949   1.222   6.141   4.406  0.4760 -1.0470  0.3457
 2512TIP3   OH228950   1.041   1.417  15.117  0.6952 -0.3278  0.3127
 2512TIP3    H128951   1.101   1.344  15.132  0.8347 -0.3521 -0.3429
 2512TIP3    H228952   0.968   1.379  15.069  1.5290  0.2620 -1.4884
 2513TIP3   OH228953   1.446   5.763   2.503 -0.4202  0.4843  0.2064
 2513TIP3    H128954   1.504   5.838   2.496 -0.6743  0.6989  0.3928
 2513TIP3    H228955   1.462   5.713   2.423 -0.0787  0.6111  0.1934
 2514TIP3   OH228956   0.513   4.205  13.723 -0.3782 -0.0577  0.1234
 2514TIP3    H128957   0.450   4.133  13.737 -1.7471  1.4067  2.0928
 2514TIP3    H228958   0.460   4.276  13.686  0.8925  0.0942 -1.5047
 2515TIP3   OH228959   5.122   5.393   3.308  0.1903  0.4268 -0.0552
 2515TIP3    H128960   5.050   5.455   3.300 -1.2151 -1.3225 -1.9843
 2515TIP3    H228961   5.088   5.323   3.364  0.8901  0.2496  0.1621
 2516TIP3   OH228962   6.239   1.280   0.286  0.1885 -0.2367  0.3680
 2516TIP3    H128963   6.219   1.225   0.210  1.7555 -1.2453  0.6359
 2516TIP3    H228964   6.323   1.321   0.264  0.0620  0.4104  1.0650
 2517TIP3   OH228965   5.444   5.948  13.652  0.2336  0.5766  0.4019
 2517TIP3    H128966   5.456   5.861  13.613 -1.3697  0.3271  0.4018
 2517TIP3    H228967   5.384   5.993  13.593  0.4957  1.4384  0.7797
 2518TIP3   OH228968   3.502   5.247  13.687  0.5674 -0.2286 -0.0282
 2518TIP3    H128969   3.533   5.313  13.748  0.5102 -0.8192  0.6579
 2518TIP3    H228970   3.418   5.280  13.656 -0.0887 -0.5936  1.3238
 2519TIP3   OH228971   3.733   2.215  14.911 -0.0027 -0.2270 -0.5465
 2519TIP3    H128972   3.679   2.272  14.858 -1.4695 -1.8723 -0.9104
 2519TIP3    H228973   3.735   2.132  14.864  1.4370 -0.7322  0.3224
 2520TIP3   OH228974   5.208   5.917  14.152  0.4046  0.2913  0.4199
 2520TIP3    H128975   5.235   5.939  14.063  0.3378 -0.7622  0.1330
 2520TIP3    H228976   5.115   5.897  14.144  0.5852 -0.6262  0.5704
 2521TIP3   OH228977   2.825   3.285  11.499  0.5185 -0.3823  0.6461
 2521TIP3    H128978   2.740   3.312  11.464 -0.1640 -3.3023 -0.2823
 2521TIP3    H228979   2.878   3.364  11.498 -0.3030  0.4786 -4.5601
 2522TIP3   OH228980   6.179   1.473   1.636  0.3012 -1.2640  0.0472
 2522TIP3    H128981   6.270   1.444   1.641  0.0244 -2.5304 -1.3806
 2522TIP3    H228982   6.156   1.462   1.544 -1.7723 -2.5356  0.6419
 2523TIP3   OH228983   5.857   0.960  13.510  0.1013  0.4044  0.1051
 2523TIP3    H128984   5.764   0.941  13.524  0.1140  0.2491 -0.0234
 2523TIP3    H228985   5.903   0.896  13.565  0.1150  1.4272  1.3411
 2524TIP3   OH228986   5.423   6.563   1.774 -0.2320  0.5238 -0.1074
 2524TIP3    H128987   5.392   6.490   1.827  1.3719 -1.3251 -1.5532
 2524TIP3    H228988   5.478   6.615   1.833  1.5465 -1.5054  0.1128
 2525TIP3   OH228989   2.620   0.889  12.741  0.2760  0.3481  0.7669
 2525TIP3    H128990   2.662   0.872  12.657  0.2239  1.1048  0.5807
 2525TIP3    H228991   2.688   0.931  12.794  0.6069 -0.9827  1.4477
 2526TIP3   OH228992   3.801   4.048  14.989  0.8085  0.2252 -0.1417
 2526TIP3    H128993   3.743   4.074  14.918  0.2906  0.5067  0.3685
 2526TIP3    H228994   3.880   4.017  14.946  0.6417  0.7206 -0.8282
 2527TIP3   OH228995   2.668   3.481  10.879 -0.2802  0.0348  0.2795
 2527TIP3    H128996   2.659   3.522  10.793 -1.8752  0.8263  0.7998
 2527TIP3    H228997   2.730   3.409  10.864 -0.8385 -0.1105 -1.6248
 2528TIP3   OH228998   0.890   4.113   5.930 -0.4084 -0.0645  0.1398
 2528TIP3    H128999   0.812   4.169   5.931  1.7694  3.3024 -1.1776
 2528TIP3    H229000   0.905   4.093   6.022 -2.2702 -0.0189  0.5059
 2529TIP3   OH229001   2.430   4.645  12.272 -0.5220  0.6578 -0.1449
 2529TIP3    H129002   2.525   4.655  12.278 -0.1538 -2.5576  0.9826
 2529TIP3    H229003   2.399   4.732  12.245  2.7465  1.6425 -1.2235
 2530TIP3   OH229004   5.832   6.343   0.920  0.4589  0.2196  0.3292
 2530TIP3    H129005   5.837   6.317   1.012 -0.2652  2.2960  1.0012
 2530TIP3    H229006   5.837   6.439   0.922 -2.2171  0.4848 -1.5565
 2531TIP3   OH229007   3.077   2.201   4.074 -0.1075 -0.4238 -0.0555
 2531TIP3    H129008   2.995   2.222   4.118  0.0366  1.7048 -0.7346
 2531TIP3    H229009   3.122   2.284   4.064 -0.2594 -0.5891 -4.4750
 2532TIP3   OH229010   6.649   5.372   5.067 -0.5710  0.0871 -0.0297
 2532TIP3    H129011   6.650   5.375   4.971 -0.7464 -2.6518 -0.1706
 2532TIP3    H229012   6.569   5.419   5.091  1.4288  4.4332 -0.9003
 2533TIP3   OH229013   1.605   4.461   2.323 -0.0915  0.1956  0.0580
 2533TIP3    H129014   1.645   4.499   2.401  1.0040  0.8054 -0.7837
 2533TIP3    H229015   1.590   4.535   2.264 -1.2075 -0.2117 -0.2027
 2534TIP3   OH229016   6.712   1.520  17.251 -0.3298  0.3258 -0.2410
 2534TIP3    H129017   6.742   1.470  17.176  1.0681  0.3179  0.2968
 2534TIP3    H229018   6.684   1.454  17.315  2.3259  0.0823  0.8120
 2535TIP3   OH229019   3.432   1.596  14.110  0.0432  0.2826  0.7824
 2535TIP3    H129020   3.507   1.556  14.155  1.0088 -0.2335 -1.1722
 2535TIP3    H229021   3.355   1.553  14.148  0.9180 -1.5274  0.6332
 2536TIP3   OH229022   2.360   6.737  13.620 -0.1087 -0.1819 -0.4760
 2536TIP3    H129023   2.455   6.746  13.624 -0.0883  0.5580 -1.8232
 2536TIP3    H229024   2.342   6.649  13.652  0.7246  0.7289  2.8967
 2537TIP3   OH229025   5.150   5.000   3.263 -0.7274 -0.3951  0.0072
 2537TIP3    H129026   5.101   4.951   3.329  0.6071 -0.9504  0.6263
 2537TIP3    H229027   5.085   5.054   3.219 -1.6160  0.2065  1.9809
 2538TIP3   OH229028   4.147   0.553   2.694 -0.2095  0.5018  0.3967
 2538TIP3    H129029   4.112   0.611   2.762  0.5547  0.0513  1.2056
 2538TIP3    H229030   4.226   0.598   2.663  0.6257 -0.2542  1.3256
 2539TIP3   OH229031   4.850   4.507   5.794  0.4045  0.3690  0.1854
 2539TIP3    H129032   4.806   4.554   5.865  1.0367 -1.8041  2.1623
 2539TIP3    H229033   4.943   4.527   5.807  0.7793 -1.8103  1.5489
 2540TIP3   OH229034   1.803   1.237   4.236 -0.3625  0.1904  0.4629
 2540TIP3    H129035   1.865   1.211   4.305  0.3337  0.6028 -0.0023
 2540TIP3    H229036   1.858   1.268   4.164 -1.1135  0.8270  0.1465
 2541TIP3   OH229037   5.304   0.619  13.052 -0.2344 -0.1941  0.0699
 2541TIP3    H129038   5.292   0.526  13.033  1.1877 -0.1372 -1.4040
 2541TIP3    H229039   5.291   0.662  12.967 -0.4873  0.9092  0.6533
 2542TIP3   OH229040   4.343   0.378   1.152 -0.4321  0.2607  0.7046
 2542TIP3    H129041   4.330   0.461   1.198 -1.2217  1.6133 -1.7521
 2542TIP3    H229042   4.427   0.345   1.185  0.6988  2.8482  0.6451
 2543TIP3   OH229043   1.298   2.758  13.140 -0.5918  1.0746 -0.0707
 2543TIP3    H129044   1.298   2.737  13.047  1.6541 -0.3601  0.1557
 2543TIP3    H229045   1.240   2.694  13.180 -0.6459  0.9364 -0.3727
 2544TIP3   OH229046   6.481   4.497   2.752 -0.7486  0.1678  0.0568
 2544TIP3    H129047   6.457   4.410   2.719  0.3122 -0.5128  1.0099
 2544TIP3    H229048   6.413   4.518   2.816 -0.3623 -0.5004  0.6947
 2545TIP3   OH229049   4.205   5.249  15.546 -0.2632  0.2752 -0.4784
 2545TIP3    H129050   4.161   5.312  15.603  0.8203  0.6879 -0.0806
 2545TIP3    H229051   4.139   5.182  15.530  0.0888 -1.2909  3.4437
 2546TIP3   OH229052   0.860   4.878  11.955 -0.1974  0.1309 -0.9391
 2546TIP3    H129053   0.882   4.961  11.912 -0.0131  0.4654 -0.2194
 2546TIP3    H229054   0.790   4.901  12.016 -0.9767 -0.4888 -1.5864
 2547TIP3   OH229055   0.968   0.256  11.299  0.1402  0.3675 -0.7236
 2547TIP3    H129056   0.971   0.178  11.244 -0.5776  0.1468 -0.4634
 2547TIP3    H229057   0.932   0.325  11.243 -0.5009  0.1665 -0.5731
 2548TIP3   OH229058   0.348   5.640   2.490 -0.1625 -0.1136 -0.2265
 2548TIP3    H129059   0.303   5.573   2.439  0.2994 -0.2859 -0.4083
 2548TIP3    H229060   0.439   5.637   2.461  0.0675 -0.0815  0.4643
 2549TIP3   OH229061   6.293   3.329  13.895 -0.3219  0.3068 -0.1588
 2549TIP3    H129062   6.230   3.340  13.824 -2.2947  1.4336  1.6784
 2549TIP3    H229063   6.316   3.417  13.922 -0.6699 -0.0556  1.4608
 2550TIP3   OH229064   4.789   2.373  13.231 -0.3008  0.2469  0.1078
 2550TIP3    H129065   4.823   2.435  13.295  0.2338 -0.5322  0.6012
 2550TIP3    H229066   4.860   2.360  13.169 -1.0218  1.4481 -1.0051
 2551TIP3   OH229067   4.912   5.192   0.210  0.0898 -0.0425  0.0427
 2551TIP3    H129068   4.978   5.157   0.151  1.5376 -1.1088  2.1754
 2551TIP3    H229069   4.835   5.137   0.196 -0.3429  1.0516 -2.2901
 2552TIP3   OH229070   3.458   5.676  14.743  0.2681 -0.1418 -0.0387
 2552TIP3    H129071   3.466   5.603  14.682  0.1447  0.1089 -0.3621
 2552TIP3    H229072   3.467   5.637  14.830 -0.3494 -0.6282 -0.1842
 2553TIP3   OH229073   4.466   6.588  14.470 -0.3332  0.2860 -0.1165
 2553TIP3    H129074   4.423   6.517  14.518  0.9282 -1.6768 -1.6748
 2553TIP3    H229075   4.406   6.609  14.399 -2.2981  3.3371  2.1862
 2554TIP3   OH229076   3.037   0.355  11.268 -0.1685  0.4380 -0.1075
 2554TIP3    H129077   3.040   0.450  11.258 -0.3165  0.6813  1.8734
 2554TIP3    H229078   2.962   0.339  11.324  1.4439 -0.5837  1.9034
 2555TIP3   OH229079   5.711   3.684   4.441  0.4418  0.0769  0.9411
 2555TIP3    H129080   5.692   3.766   4.395 -0.8526 -1.2370 -1.0308
 2555TIP3    H229081   5.651   3.684   4.515 -2.3106 -0.6574 -1.1124
 2556TIP3   OH229082   1.200   5.456  15.298  0.6589  0.3473  0.3213
 2556TIP3    H129083   1.221   5.550  15.302 -2.9650  1.3151  0.1049
 2556TIP3    H229084   1.179   5.433  15.388 -0.7841  0.4409  0.0365
 2557TIP3   OH229085   6.452   0.306  14.959 -0.1958 -0.2376 -0.2017
 2557TIP3    H129086   6.491   0.244  14.898  2.1662  0.2661  0.6639
 2557TIP3    H229087   6.395   0.253  15.014 -0.1289 -1.1933 -1.0306
 2558TIP3   OH229088   1.032   0.218  14.169  0.6297  0.4520 -0.5353
 2558TIP3    H129089   0.987   0.169  14.239 -1.0653  0.2022 -1.7410
 2558TIP3    H229090   1.102   0.265  14.214  0.5358 -0.8631  1.1023
 2559TIP3   OH229091   6.509   0.862  16.361 -0.0155 -0.0951  0.0425
 2559TIP3    H129092   6.572   0.927  16.331  1.3198 -0.7477  1.2982
 2559TIP3    H229093   6.466   0.902  16.437  0.4808 -0.4852  0.5369
 2560TIP3   OH229094   5.873   2.713  10.453  1.0693 -0.1152 -0.0715
 2560TIP3    H129095   5.821   2.769  10.396  0.5647 -1.1303 -0.6344
 2560TIP3    H229096   5.820   2.700  10.531  1.6208  1.0042  0.5152
 2561TIP3   OH229097   3.456   6.488  14.545 -0.1142  0.0555  0.3180
 2561TIP3    H129098   3.521   6.419  14.533  0.1069  0.2300  0.5093
 2561TIP3    H229099   3.502   6.569  14.523 -0.7679  0.0264 -1.3364
 2562TIP3   OH229100   0.488   4.965   4.213 -0.3026 -0.4033 -0.1938
 2562TIP3    H129101   0.495   4.873   4.187 -0.1787 -1.0623  1.9923
 2562TIP3    H229102   0.451   4.962   4.301 -0.1633  1.6380 -0.0324
 2563TIP3   OH229103   4.153   1.976  11.750 -0.1612  0.7068 -0.0951
 2563TIP3    H129104   4.218   2.017  11.693  0.1856  0.2750 -0.0244
 2563TIP3    H229105   4.168   2.017  11.835  0.6362 -0.0201  0.1336
 2564TIP3   OH229106   1.844   2.280   5.881 -0.2479  0.2857  0.4701
 2564TIP3    H129107   1.834   2.187   5.862  0.2921  0.2171  0.4861
 2564TIP3    H229108   1.799   2.293   5.964 -0.7303  0.1378  0.2341
 2565TIP3   OH229109   2.529   4.091  12.701 -0.0044  0.2892 -0.1557
 2565TIP3    H129110   2.495   4.002  12.709  0.3432  0.2979  2.3461
 2565TIP3    H229111   2.624   4.081  12.711  0.1485  0.8342 -1.0179
 2566TIP3   OH229112   2.201   2.540   5.914  0.1904  0.4101 -0.2952
 2566TIP3    H129113   2.139   2.481   5.871  0.5730 -2.0789  2.2868
 2566TIP3    H229114   2.146   2.610   5.949 -1.1323 -1.1387  0.9373
 2567TIP3   OH229115   3.181   1.550  12.028  0.6953  0.1593  0.2604
 2567TIP3    H129116   3.252   1.488  12.012 -1.2346 -2.4361  1.2019
 2567TIP3    H229117   3.184   1.566  12.123 -1.0270 -1.4707  0.6515
 2568TIP3   OH229118   5.892   2.015   0.825 -0.2647  0.3240 -0.2456
 2568TIP3    H129119   5.854   1.980   0.905  0.0495 -0.2422 -0.3348
 2568TIP3    H229120   5.824   2.003   0.758 -0.8938  1.6674  0.1163
 2569TIP3   OH229121   2.864   3.580   1.802  0.0401 -0.1243  0.1946
 2569TIP3    H129122   2.931   3.648   1.790 -0.1160  0.0672  0.4067
 2569TIP3    H229123   2.896   3.506   1.750  1.5797 -0.8582  2.0477
 2570TIP3   OH229124   2.561   5.809   4.841 -0.2788 -0.1585 -0.1875
 2570TIP3    H129125   2.526   5.896   4.857 -1.6097 -0.5692 -0.7420
 2570TIP3    H229126   2.515   5.753   4.904  0.3096 -0.5221 -0.0717
 2571TIP3   OH229127   3.830   2.407   5.197  0.2181 -0.0367  0.8797
 2571TIP3    H129128   3.741   2.438   5.212  0.0594 -0.3675  0.6284
 2571TIP3    H229129   3.823   2.311   5.201  0.2059 -0.1508 -1.0923
 2572TIP3   OH229130   0.552   5.905  16.519 -0.0277  0.0940 -0.6209
 2572TIP3    H129131   0.465   5.871  16.537 -0.0888 -0.0151 -1.1070
 2572TIP3    H229132   0.599   5.831  16.479  0.5448 -0.1012  0.3534
 2573TIP3   OH229133   3.286   5.240  15.952 -0.0365  0.5457  0.8703
 2573TIP3    H129134   3.329   5.236  15.866 -0.6108 -2.1707  0.6245
 2573TIP3    H229135   3.310   5.157  15.994 -2.6940  0.1765  1.8427
 2574TIP3   OH229136   1.215   4.911   6.244 -0.4540 -0.0053  0.7227
 2574TIP3    H129137   1.246   4.969   6.175  1.9319 -2.4035 -0.3655
 2574TIP3    H229138   1.269   4.933   6.320 -1.0175  0.5715  0.9735
 2575TIP3   OH229139   6.084   2.830  11.189  0.1419 -1.0215  0.1150
 2575TIP3    H129140   6.057   2.882  11.113  0.6165 -0.0475  0.6061
 2575TIP3    H229141   6.145   2.765  11.152  0.4930 -0.4567 -0.3177
 2576TIP3   OH229142   2.830   1.222   3.174  0.2856  0.2119  0.0727
 2576TIP3    H129143   2.882   1.150   3.210  0.3141  0.0740 -0.2360
 2576TIP3    H229144   2.746   1.217   3.220 -0.7354 -1.7476 -1.8388
 2577TIP3   OH229145   0.954   3.944   3.492 -0.5245  0.2470  0.0064
 2577TIP3    H129146   0.879   3.927   3.435  0.1553 -1.8842 -0.3508
 2577TIP3    H229147   0.983   4.032   3.469 -0.5923 -0.3493 -2.5829
 2578TIP3   OH229148   0.197   1.136   3.830  0.4764 -0.1166  0.3130
 2578TIP3    H129149   0.163   1.052   3.862 -1.0203  0.3007 -0.1279
 2578TIP3    H229150   0.131   1.200   3.855  0.8380  0.6989 -0.7578
 2579TIP3   OH229151   2.889   3.900  12.930 -0.1543 -0.3037  0.4606
 2579TIP3    H129152   2.968   3.953  12.941 -1.2520  1.3214  0.9451
 2579TIP3    H229153   2.831   3.956  12.879 -0.8018 -1.6939 -0.3726
 2580TIP3   OH229154   1.802   1.737  13.320 -0.0824  0.2029  0.0182
 2580TIP3    H129155   1.789   1.682  13.243 -0.4112 -0.0626  0.2599
 2580TIP3    H229156   1.744   1.700  13.386 -1.6614  1.9114 -0.3472
 2581TIP3   OH229157   5.814   2.040   3.853 -0.6878  0.0069 -0.4046
 2581TIP3    H129158   5.747   2.095   3.813 -2.1577 -0.8142  0.7986
 2581TIP3    H229159   5.795   2.043   3.947  0.4758 -0.8838 -0.1038
 2582TIP3   OH229160   4.825   4.243  16.718  0.1021 -0.2177  0.1034
 2582TIP3    H129161   4.747   4.213  16.763 -0.6994 -0.7070 -1.5390
 2582TIP3    H229162   4.891   4.252  16.787 -1.6059  1.0230  1.6587
 2583TIP3   OH229163   3.905   1.080   0.759  0.0310 -0.6156 -0.0821
 2583TIP3    H129164   3.927   1.165   0.721 -0.9438  0.0506  0.7691
 2583TIP3    H229165   3.974   1.064   0.823  1.5820 -1.6624 -1.9242
 2584TIP3   OH229166   2.355   5.188   2.602  0.3428 -0.2578  0.0758
 2584TIP3    H129167   2.414   5.147   2.665  0.2734  1.0677  1.0484
 2584TIP3    H229168   2.322   5.115   2.548  2.1380 -1.1281  0.0955
 2585TIP3   OH229169   0.322   4.240  13.138 -0.1668 -0.2588 -0.4349
 2585TIP3    H129170   0.252   4.259  13.075  1.5419 -0.1795 -2.4045
 2585TIP3    H229171   0.397   4.216  13.083  0.7868 -2.3967  1.6465
 2586TIP3   OH229172   4.793   1.730   3.381  0.5594 -0.1312 -0.7056
 2586TIP3    H129173   4.771   1.718   3.473  2.4231  0.8741 -0.0757
 2586TIP3    H229174   4.708   1.732   3.336 -0.5091  1.2818  1.2308
 2587TIP3   OH229175   1.182   4.715   2.072 -0.5445 -0.5810 -0.2927
 2587TIP3    H129176   1.111   4.742   2.131 -2.3489 -0.1834 -2.5097
 2587TIP3    H229177   1.221   4.796   2.042 -0.9018 -0.6896 -1.0787
 2588TIP3   OH229178   1.758   5.132  14.822  0.3808 -0.2942 -0.4027
 2588TIP3    H129179   1.699   5.113  14.895  0.2248 -0.7332 -0.6400
 2588TIP3    H229180   1.715   5.093  14.746  1.1816 -0.9870 -0.5078
 2589TIP3   OH229181   5.609   1.266   1.647  0.2791 -0.5716  0.3561
 2589TIP3    H129182   5.522   1.255   1.683  0.2838  1.0786  0.9717
 2589TIP3    H229183   5.610   1.356   1.613  1.1971 -1.1189 -1.1999
 2590TIP3   OH229184   3.863   4.048  11.814  0.2536 -0.2304 -0.1558
 2590TIP3    H129185   3.831   3.961  11.838 -0.2592  0.0018  0.0113
 2590TIP3    H229186   3.796   4.083  11.755  0.2639  0.2072  0.0910
 2591TIP3   OH229187   4.570   2.864   1.718 -0.4192  0.4100  0.1980
 2591TIP3    H129188   4.575   2.833   1.808  1.6290 -0.3012 -0.1077
 2591TIP3    H229189   4.581   2.785   1.665  0.5322  1.0741 -0.6319
 2592TIP3   OH229190   1.223   3.601  16.099  0.1693 -0.3028 -0.1057
 2592TIP3    H129191   1.201   3.690  16.072  1.9787 -0.0180 -0.7947
 2592TIP3    H229192   1.141   3.553  16.092 -0.2314  0.5926 -2.8029
 2593TIP3   OH229193   5.523   2.633   4.991  0.1273  0.0859 -0.0273
 2593TIP3    H129194   5.595   2.666   4.937  0.7218 -2.2058 -0.7465
 2593TIP3    H229195   5.566   2.600   5.070 -0.1591 -0.8384 -0.2414
 2594TIP3   OH229196   2.565   3.841   3.552  0.3333 -0.3266 -0.1631
 2594TIP3    H129197   2.648   3.877   3.582  0.8748 -1.2838 -0.4638
 2594TIP3    H229198   2.568   3.749   3.580 -0.4889 -0.4479 -0.4519
 2595TIP3   OH229199   5.856   2.973  11.572  0.3954 -0.2265  0.1226
 2595TIP3    H129200   5.929   2.974  11.510  0.0528 -1.2538 -0.3280
 2595TIP3    H229201   5.822   2.884  11.566  1.0662 -0.7274  2.6355
 2596TIP3   OH229202   1.465   3.314   5.799  0.1465  0.7856  0.5035
 2596TIP3    H129203   1.398   3.338   5.863  0.8424 -0.6089  1.8004
 2596TIP3    H229204   1.548   3.339   5.839  0.6813 -1.0928  0.6948
 2597TIP3   OH229205   3.022   2.005  13.064  0.1810 -0.2421 -0.4418
 2597TIP3    H129206   3.022   1.910  13.079  2.0687 -0.2369 -0.1648
 2597TIP3    H229207   2.994   2.043  13.147  1.0262 -0.5136 -0.0306
 2598TIP3   OH229208   5.758   1.922   4.896 -0.3222 -0.2657  0.1263
 2598TIP3    H129209   5.776   1.829   4.886 -1.7174 -0.5274 -0.2055
 2598TIP3    H229210   5.673   1.935   4.854 -0.0018  1.2317 -0.1429
 2599TIP3   OH229211   2.277   0.335   6.030 -0.0599  0.2293 -0.8112
 2599TIP3    H129212   2.317   0.357   5.946  2.0626 -0.0749  0.0373
 2599TIP3    H229213   2.244   0.246   6.018  0.9833 -0.1394 -1.1192
 2600TIP3   OH229214   5.145   0.597  15.375  0.2968  0.0095  0.1573
 2600TIP3    H129215   5.237   0.607  15.401  0.4522  1.2833 -0.7831
 2600TIP3    H229216   5.100   0.571  15.455  1.0663  1.9066  1.2775
 2601TIP3   OH229217   2.624   5.961   5.905 -0.6500 -0.0891 -0.2617
 2601TIP3    H129218   2.674   6.018   5.963 -1.6678  1.1608 -0.5905
 2601TIP3    H229219   2.659   5.978   5.818 -1.0539  0.1363 -0.3804
 2602TIP3   OH229220   2.796   3.414   3.772  0.2476 -0.3415  0.1450
 2602TIP3    H129221   2.827   3.384   3.686 -0.6012  0.0908 -0.3210
 2602TIP3    H229222   2.868   3.467   3.806  0.7574 -0.8573 -0.1124
 2603TIP3   OH229223   1.314   5.177   0.342 -0.0896  0.6759  0.1624
 2603TIP3    H129224   1.409   5.190   0.349 -0.2954  2.3338  0.2795
 2603TIP3    H229225   1.297   5.178   0.248  0.2422 -1.9264 -0.0077
 2604TIP3   OH229226   0.888   2.550   6.021  0.0263  0.5183  0.2527
 2604TIP3    H129227   0.799   2.525   6.045  0.1171  1.9833  2.4835
 2604TIP3    H229228   0.891   2.645   6.035  1.5189  0.7476 -1.2652
 2605TIP3   OH229229   6.496   4.902  15.351  0.4724  0.4219  0.1763
 2605TIP3    H129230   6.476   4.830  15.410  0.6508 -1.4261 -1.9044
 2605TIP3    H229231   6.590   4.896  15.336  0.4208  0.8222 -0.3397
 2606TIP3   OH229232   2.109   6.702   5.103  0.2083  0.5297 -0.1247
 2606TIP3    H129233   2.187   6.739   5.062  0.9131  0.0261  0.7290
 2606TIP3    H229234   2.140   6.625   5.150 -0.5042  1.1954  1.5270
 2607TIP3   OH229235   1.911   0.501   2.806  0.0187  0.5679  0.0503
 2607TIP3    H129236   1.834   0.531   2.757 -0.4026 -0.1283  0.2695
 2607TIP3    H229237   1.897   0.534   2.895  0.0459  0.5715  0.0533
 2608TIP3   OH229238   5.944   3.234  14.092  0.2486 -0.5656 -0.0851
 2608TIP3    H129239   5.883   3.244  14.165 -0.0562 -0.3758 -0.3622
 2608TIP3    H229240   5.991   3.317  14.089  2.1884 -1.5031  1.5906
 2609TIP3   OH229241   3.227   3.135  15.577 -0.4917  0.1696  0.1343
 2609TIP3    H129242   3.150   3.144  15.521 -0.6169 -2.9322 -0.3675
 2609TIP3    H229243   3.297   3.110  15.516  0.2108  0.1238  0.9524
 2610TIP3   OH229244   0.842   1.908  16.195  0.1771  0.5501 -0.3138
 2610TIP3    H129245   0.853   1.813  16.187 -1.7682  0.2257  0.4197
 2610TIP3    H229246   0.851   1.925  16.289  0.2898  1.0655 -0.4164
 2611TIP3   OH229247   6.663   6.640   2.468 -0.2025 -0.7801  0.1674
 2611TIP3    H129248   6.678   6.734   2.458 -1.0448 -0.8103 -1.6819
 2611TIP3    H229249   6.716   6.600   2.399 -1.9024 -1.4607 -0.7948
 2612TIP3   OH229250   0.731   6.210  15.114  0.1577 -0.4296 -0.2783
 2612TIP3    H129251   0.736   6.295  15.159 -2.5227 -0.2784 -0.0624
 2612TIP3    H229252   0.789   6.153  15.164  0.0556  0.6556  1.1414
 2613TIP3   OH229253   4.134   3.389   4.825  0.2984  0.0506  0.3724
 2613TIP3    H129254   4.115   3.309   4.875  1.3656  0.5539  1.6496
 2613TIP3    H229255   4.079   3.456   4.865  1.0895  0.4376  0.8372
 2614TIP3   OH229256   2.516   5.084  17.100 -0.5437 -0.5569 -0.3153
 2614TIP3    H129257   2.581   5.087  17.170  1.7829  1.4991 -2.3544
 2614TIP3    H229258   2.522   4.995  17.065 -0.9766 -1.2773  1.3391
 2615TIP3   OH229259   4.099   5.646  10.905 -0.5821  0.4969 -0.3323
 2615TIP3    H129260   4.175   5.675  10.954  0.5307 -1.0227 -1.0887
 2615TIP3    H229261   4.039   5.612  10.972  0.6640 -0.9893  0.0932
 2616TIP3   OH229262   4.065   1.098   5.138  0.0475  0.3901  0.1841
 2616TIP3    H129263   4.134   1.092   5.204 -1.0405  0.1165  1.3337
 2616TIP3    H229264   4.002   1.159   5.175 -2.2606 -2.3208  1.0418
 2617TIP3   OH229265   5.934   4.509  13.216  0.0766 -0.4211 -0.2979
 2617TIP3    H129266   5.993   4.456  13.270  2.4725  1.8773 -0.4587
 2617TIP3    H229267   5.929   4.593  13.261  1.0038  1.1058 -2.8000
 2618TIP3   OH229268   3.186   0.358  13.207  0.1293 -0.0379  0.2727
 2618TIP3    H129269   3.244   0.431  13.230 -1.1084  1.2841 -0.6208
 2618TIP3    H229270   3.223   0.283  13.254  1.7044  1.0499  0.8802
 2619TIP3   OH229271   1.940   1.806  14.956  0.2189 -0.0517  0.2803
 2619TIP3    H129272   1.882   1.873  14.992  0.1996 -0.6354  1.3585
 2619TIP3    H229273   1.968   1.755  15.032 -0.2597 -1.6714 -0.5930
 2620TIP3   OH229274   2.873   5.676   5.855 -0.0395 -0.6440 -0.3311
 2620TIP3    H129275   2.909   5.760   5.825  1.8663 -1.7948 -1.4878
 2620TIP3    H229276   2.905   5.612   5.790  1.2612 -2.7507  2.1740
 2621TIP3   OH229277   5.633   1.811   4.034  0.0009  0.0142  0.1212
 2621TIP3    H129278   5.681   1.889   4.061 -1.8007  1.0190  0.5915
 2621TIP3    H229279   5.551   1.845   3.997 -0.2840 -1.6118 -0.8211
 2622TIP3   OH229280   1.435   6.291  15.732 -0.1791 -0.0130  0.3203
 2622TIP3    H129281   1.372   6.265  15.798 -1.7508  2.1733 -0.2270
 2622TIP3    H229282   1.447   6.213  15.678 -0.6722 -1.1103  1.7444
 2623TIP3   OH229283   1.262   0.728   0.080  0.1699 -0.3984  0.5579
 2623TIP3    H129284   1.223   0.805   0.036 -1.9686 -2.7602 -2.0902
 2623TIP3    H229285   1.194   0.698   0.141  0.8264 -0.4428  1.2782
 2624TIP3   OH229286   3.481   6.645  14.972 -0.7764  0.2619 -0.1076
 2624TIP3    H129287   3.476   6.698  14.892  1.2944  0.4126 -0.1889
 2624TIP3    H229288   3.549   6.580  14.953  1.5547  1.7954  2.3356
 2625TIP3   OH229289   6.041   4.210  12.057  0.3280  0.2926 -0.1838
 2625TIP3    H129290   5.966   4.239  12.109  0.5404  0.3585  0.0895
 2625TIP3    H229291   6.063   4.124  12.092 -1.1720 -0.8720 -1.9082
 2626TIP3   OH229292   1.203   4.720  11.299  0.2226  0.0920 -0.2721
 2626TIP3    H129293   1.258   4.695  11.225 -0.4726  0.9555 -1.1028
 2626TIP3    H229294   1.114   4.708  11.269 -0.1258 -2.3988  1.4631
 2627TIP3   OH229295   1.286   0.558   5.885 -0.6558  0.2530 -0.2484
 2627TIP3    H129296   1.378   0.532   5.891 -1.1569 -1.6500 -0.1115
 2627TIP3    H229297   1.269   0.565   5.791 -0.9931 -2.0774 -0.4402
 2628TIP3   OH229298   3.739   0.119   4.870  0.8161  0.2041  0.2165
 2628TIP3    H129299   3.767   0.116   4.961 -1.0726  0.3475  0.8634
 2628TIP3    H229300   3.736   0.212   4.849  0.8970  0.1889  0.1400
 2629TIP3   OH229301   5.151   3.641   4.772  0.2531  0.0481  0.3109
 2629TIP3    H129302   5.176   3.731   4.794 -0.4984 -0.1253  2.0280
 2629TIP3    H229303   5.114   3.606   4.852 -2.9832 -0.5761 -1.2874
 2630TIP3   OH229304   0.803   5.585  14.760 -0.4516  0.6238 -0.4682
 2630TIP3    H129305   0.787   5.607  14.851 -0.5449  0.2709 -0.3974
 2630TIP3    H229306   0.753   5.505  14.745  0.7177 -0.1452 -0.4230
 2631TIP3   OH229307   3.734   0.699   1.451  0.2834  0.7168  0.3113
 2631TIP3    H129308   3.660   0.707   1.511 -0.1772 -0.4007 -0.0734
 2631TIP3    H229309   3.706   0.632   1.388  2.0141 -0.4832  0.7591
 2632TIP3   OH229310   4.637   0.270   4.746 -0.1366  0.1923  0.6825
 2632TIP3    H129311   4.687   0.203   4.793  0.4208  1.1129  1.4420
 2632TIP3    H229312   4.660   0.352   4.790 -0.4134  0.9531 -0.5463
 2633TIP3   OH229313   4.549   1.135   1.472 -0.7815  0.5774  0.5881
 2633TIP3    H129314   4.609   1.100   1.537  0.3944 -0.5998 -1.0595
 2633TIP3    H229315   4.603   1.154   1.396 -2.3162  0.4512 -0.6022
 2634TIP3   OH229316   4.115   1.113   2.705 -0.6170 -0.4032 -0.5527
 2634TIP3    H129317   4.174   1.039   2.693  0.4091  0.1782  0.6323
 2634TIP3    H229318   4.094   1.112   2.799 -0.6260  0.7354 -0.5250
 2635TIP3   OH229319   4.569   0.163   5.639  0.0723  0.0663 -0.0123
 2635TIP3    H129320   4.541   0.236   5.695  0.7053 -0.0753  0.5048
 2635TIP3    H229321   4.638   0.200   5.584  1.4341 -0.4651  1.2547
 2636TIP3   OH229322   2.529   1.464   0.550 -0.2234  0.2220  0.1545
 2636TIP3    H129323   2.619   1.434   0.539  0.0082  1.3504 -1.2631
 2636TIP3    H229324   2.488   1.397   0.606  1.9034  0.5305  2.2554
 2637TIP3   OH229325   0.509   1.731   2.335  0.5151  0.0722  0.1309
 2637TIP3    H129326   0.558   1.696   2.409 -0.2767  0.4835  0.8689
 2637TIP3    H229327   0.576   1.769   2.278  1.1870 -0.7822  0.3322
 2638TIP3   OH229328   1.687   1.528  16.367  0.0931 -0.2391 -0.1213
 2638TIP3    H129329   1.741   1.484  16.301 -0.1657  0.6249 -0.9452
 2638TIP3    H229330   1.736   1.608  16.388 -0.7404  0.4361 -0.7062
 2639TIP3   OH229331   4.128   0.882   0.422  0.2872 -0.5218 -0.2357
 2639TIP3    H129332   4.039   0.909   0.400  0.9836  1.5337 -0.7418
 2639TIP3    H229333   4.162   0.953   0.475  2.0219 -0.6962 -1.0428
 2640TIP3   OH229334   0.912   0.336  13.437 -0.4523  0.5413 -0.6594
 2640TIP3    H129335   0.956   0.260  13.398 -0.2410  0.7029 -0.7393
 2640TIP3    H229336   0.913   0.319  13.531 -1.0101  0.1228 -0.7280
 2641TIP3   OH229337   3.571   3.537  10.745  0.1753 -0.0409  0.0019
 2641TIP3    H129338   3.548   3.467  10.807  3.1373 -2.4840 -1.3557
 2641TIP3    H229339   3.531   3.509  10.662 -0.0205  0.8361 -0.2134
 2642TIP3   OH229340   1.547   3.459  16.295  0.0474  0.1172  0.0670
 2642TIP3    H129341   1.471   3.515  16.279 -0.4430 -0.7649 -0.7836
 2642TIP3    H229342   1.614   3.491  16.233 -0.7409 -1.1714 -1.5120
 2643TIP3   OH229343   2.102   0.263   5.238 -0.6465 -0.3540  0.2532
 2643TIP3    H129344   2.019   0.256   5.191 -0.3786 -0.1030 -0.2712
 2643TIP3    H229345   2.152   0.328   5.188 -0.3890 -0.0091  0.9436
 2644TIP3   OH229346   2.604   5.743  14.691  0.1854  0.2144  0.4269
 2644TIP3    H129347   2.631   5.824  14.733  0.6990  0.5619 -0.5517
 2644TIP3    H229348   2.602   5.764  14.597  0.8329 -1.0368  0.1131
 2645TIP3   OH229349   2.545   3.712   0.572  0.2017  0.2169  0.2023
 2645TIP3    H129350   2.553   3.666   0.656  0.2707  1.5257  0.9285
 2645TIP3    H229351   2.542   3.805   0.595 -1.6896  0.5396 -1.1078
 2646TIP3   OH229352   3.460   4.237  15.166 -0.0368  0.3310  0.4850
 2646TIP3    H129353   3.389   4.187  15.207 -0.3422  0.9779  0.7573
 2646TIP3    H229354   3.519   4.260  15.238  0.8460 -0.8094  0.1634
 2647TIP3   OH229355   2.266   5.096   4.968 -0.6041 -0.4713 -0.6354
 2647TIP3    H129356   2.177   5.129   4.951 -0.1061  0.9702 -0.5147
 2647TIP3    H229357   2.287   5.045   4.889 -1.3610 -0.4539 -0.8592
 2648TIP3   OH229358   4.247   6.451   1.000 -0.1262 -0.0488 -0.3399
 2648TIP3    H129359   4.267   6.389   0.930  0.2557 -0.6203  0.2563
 2648TIP3    H229360   4.210   6.396   1.070  2.1020  0.0495  1.0058
 2649TIP3   OH229361   0.701   0.882   5.089 -0.9424 -0.1440 -0.1769
 2649TIP3    H129362   0.784   0.887   5.041 -0.2074 -0.3433  1.0178
 2649TIP3    H229363   0.670   0.972   5.093  0.8168  0.4561  1.9875
 2650TIP3   OH229364   4.963   2.406  12.241 -0.5966 -0.5520  0.2931
 2650TIP3    H129365   4.975   2.342  12.311  0.2467 -1.0604 -0.3003
 2650TIP3    H229366   4.909   2.361  12.176  2.0137 -1.6439 -1.2820
 2651TIP3   OH229367   5.639   4.378  10.844  0.1378  0.0360  0.2092
 2651TIP3    H129368   5.656   4.469  10.819 -1.0617  0.2248 -0.0137
 2651TIP3    H229369   5.722   4.333  10.830  1.1313  1.3466  1.5457
 2652TIP3   OH229370   2.005   4.234  12.389  0.4932  0.1212 -0.4849
 2652TIP3    H129371   2.096   4.216  12.413  0.4023  3.0681  2.9040
 2652TIP3    H229372   2.010   4.310  12.332  0.1772 -0.3376 -1.1350
 2653TIP3   OH229373   2.004   1.598   4.127 -0.0917  0.2829 -0.3469
 2653TIP3    H129374   1.980   1.555   4.209 -0.3578  1.2072  0.0751
 2653TIP3    H229375   1.931   1.580   4.068 -0.4174  0.5344 -0.0256
 2654TIP3   OH229376   0.070   1.022  12.468  0.5613 -0.6530  0.4734
 2654TIP3    H129377   0.082   1.024  12.563 -0.8437  1.2333  0.6457
 2654TIP3    H229378   0.159   1.031  12.433  1.0554 -0.9951  1.6030
 2655TIP3   OH229379   0.329   1.108  11.826  0.9267 -0.1246 -0.6807
 2655TIP3    H129380   0.306   1.169  11.756 -0.0579 -0.1110 -0.3624
 2655TIP3    H229381   0.371   1.163  11.893  0.4262  0.1417 -0.5783
 2656TIP3   OH229382   1.231   2.342   2.718 -0.3374  0.4508  0.9834
 2656TIP3    H129383   1.166   2.286   2.762  0.2331 -0.4954  0.6629
 2656TIP3    H229384   1.218   2.325   2.625  1.1519 -0.6901  0.9544
 2657TIP3   OH229385   4.644   4.103  11.343 -0.3610  0.7533  0.5914
 2657TIP3    H129386   4.567   4.145  11.381 -0.0393  0.6605  1.3703
 2657TIP3    H229387   4.699   4.175  11.312 -0.2798  0.8728  1.0019
 2658TIP3   OH229388   5.743   3.196  15.968 -0.0141  0.4383 -0.6243
 2658TIP3    H129389   5.820   3.191  16.026  0.5368  1.6583 -1.2106
 2658TIP3    H229390   5.696   3.114  15.984 -0.0756  0.8850  1.8144
 2659TIP3   OH229391   4.759   6.705   5.715 -0.1455 -0.5011 -0.0308
 2659TIP3    H129392   4.730   6.784   5.670 -0.2443 -0.6532 -0.2441
 2659TIP3    H229393   4.679   6.669   5.753 -0.0781 -0.4267  0.1782
 2660TIP3   OH229394   1.453   1.264   5.420 -0.0215  0.6960  0.4797
 2660TIP3    H129395   1.385   1.244   5.356  0.4649 -1.1685  0.4622
 2660TIP3    H229396   1.427   1.216   5.499 -0.1349  2.2185  1.4046
 2661TIP3   OH229397   1.599   6.340   3.633 -0.5253  0.5026 -0.1357
 2661TIP3    H129398   1.643   6.406   3.580 -0.7279  0.4948 -0.3149
 2661TIP3    H229399   1.659   6.266   3.634 -1.0734  0.0193 -1.4182
 2662TIP3   OH229400   3.751   5.589  11.287 -0.0886 -0.3557  0.7026
 2662TIP3    H129401   3.808   5.578  11.364  0.3247  0.6634  0.5538
 2662TIP3    H229402   3.663   5.599  11.323  0.1721  0.6406  1.0745
 2663TIP3   OH229403   3.705   6.241   5.215  0.6393 -0.0544 -0.2982
 2663TIP3    H129404   3.794   6.276   5.210  0.3341  1.2593  2.0060
 2663TIP3    H229405   3.661   6.277   5.137  1.6446  0.7855 -0.4936
 2664TIP3   OH229406   1.535   0.744  15.715 -0.1209  0.3564  0.3844
 2664TIP3    H129407   1.445   0.726  15.689 -0.3051 -1.4989  2.1048
 2664TIP3    H229408   1.570   0.798  15.644 -2.7077  1.5472 -0.0629
 2665TIP3   OH229409   5.192   6.296  14.211 -0.1483  0.6435 -0.0535
 2665TIP3    H129410   5.106   6.280  14.250 -0.0024  0.3023  0.1327
 2665TIP3    H229411   5.189   6.387  14.182  0.3849  1.5127  2.4390
 2666TIP3   OH229412   0.699   2.769  16.226 -0.1076 -0.2082 -0.2054
 2666TIP3    H129413   0.633   2.714  16.183 -0.3460 -0.6341  0.6805
 2666TIP3    H229414   0.697   2.741  16.318  0.6392  0.4350  0.0154
 2667TIP3   OH229415   2.297   3.326   2.482  0.1203  0.1559  0.3508
 2667TIP3    H129416   2.249   3.326   2.399  1.5290  1.2459 -0.5303
 2667TIP3    H229417   2.285   3.238   2.517  0.9921 -0.9749 -1.9617
 2668TIP3   OH229418   3.257   4.045   5.817  0.4689 -0.1167  0.2294
 2668TIP3    H129419   3.318   4.102   5.863 -1.2844  1.2630  0.9536
 2668TIP3    H229420   3.200   4.010   5.886 -0.6573  0.0290 -0.5980
 2669TIP3   OH229421   5.721   1.228   1.967 -0.1962 -0.0862  0.5121
 2669TIP3    H129422   5.683   1.280   2.038 -0.5561  0.3643 -0.0018
 2669TIP3    H229423   5.727   1.288   1.893  3.3398  0.4210  1.0686
 2670TIP3   OH229424   6.244   0.140  14.162 -0.2226  0.1431 -0.4001
 2670TIP3    H129425   6.174   0.204  14.176  0.0988  0.5166 -0.4864
 2670TIP3    H229426   6.200   0.065  14.123 -0.3582  0.9220 -1.8016
 2671TIP3   OH229427   6.126   4.587  16.790 -0.3804  0.0968 -0.2196
 2671TIP3    H129428   6.198   4.527  16.806 -0.8205 -0.5479 -0.6104
 2671TIP3    H229429   6.165   4.661  16.744  0.2173  0.2551  0.5171
 2672TIP3   OH229430   5.300   5.147   4.259  0.3523  0.2018 -0.2554
 2672TIP3    H129431   5.233   5.178   4.320  0.7942 -0.1578  0.4302
 2672TIP3    H229432   5.375   5.127   4.315  0.9155  0.2803 -0.9755
 2673TIP3   OH229433   2.097   2.070  12.191  0.3271 -0.2209  0.8034
 2673TIP3    H129434   2.183   2.090  12.154  0.9616  0.1168  2.4191
 2673TIP3    H229435   2.052   2.021  12.121  1.9168 -0.6674  0.0515
 2674TIP3   OH229436   1.806   3.542  14.872  0.1293  0.4318 -0.0099
 2674TIP3    H129437   1.835   3.454  14.845 -0.7348  0.4884 -1.2281
 2674TIP3    H229438   1.712   3.541  14.857  0.2630  1.9225 -1.1035
 2675TIP3   OH229439   2.766   5.455   0.730  0.2096 -0.2831  0.0273
 2675TIP3    H129440   2.748   5.437   0.638  0.7773  0.2125 -0.1883
 2675TIP3    H229441   2.862   5.458   0.736  0.1707  0.9261  0.3667
 2676TIP3   OH229442   4.210   4.975   0.721  0.4731  0.0608  0.7506
 2676TIP3    H129443   4.231   5.036   0.651  1.7074 -0.3897  0.6993
 2676TIP3    H229444   4.116   4.988   0.738  0.7605  2.1637  0.9579
 2677TIP3   OH229445   5.449   0.879  14.326 -0.2501 -0.2263 -0.3349
 2677TIP3    H129446   5.431   0.830  14.246 -1.7057  1.2566 -0.9650
 2677TIP3    H229447   5.407   0.964  14.313  1.7974  1.0802  0.8884
 2678TIP3   OH229448   3.585   0.811   5.172 -0.3713  0.1131  0.1675
 2678TIP3    H129449   3.498   0.802   5.211  0.0554  0.1608  1.1598
 2678TIP3    H229450   3.633   0.733   5.202 -0.6937 -1.0834 -2.1408
 2679TIP3   OH229451   6.359   1.919  15.686  0.1547  0.7560 -0.0465
 2679TIP3    H129452   6.450   1.939  15.708  0.4225 -0.2970 -0.1201
 2679TIP3    H229453   6.312   1.925  15.770  0.8534 -1.5445  0.5892
 2680TIP3   OH229454   4.167   4.184  16.745  0.5634 -0.0085 -0.4337
 2680TIP3    H129455   4.240   4.218  16.694  0.2160  1.4247 -0.0399
 2680TIP3    H229456   4.205   4.162  16.830  1.0243 -1.8203 -1.0759
 2681TIP3   OH229457   5.836   2.228  12.384  0.5846  0.3173 -0.2522
 2681TIP3    H129458   5.887   2.304  12.412 -0.2978  0.7417  0.2747
 2681TIP3    H229459   5.898   2.173  12.336  1.1250  1.6192 -1.1160
 2682TIP3   OH229460   0.751   6.528   4.573 -0.3767 -0.5378 -1.1215
 2682TIP3    H129461   0.785   6.601   4.520  0.8562 -0.9408 -0.9323
 2682TIP3    H229462   0.657   6.528   4.556 -0.1345 -0.1463 -2.6857
 2683TIP3   OH229463   3.895   5.668   1.683 -0.0478  0.3283 -0.0362
 2683TIP3    H129464   3.838   5.591   1.679  0.8094 -0.3564  0.5807
 2683TIP3    H229465   3.951   5.660   1.606  1.1200 -0.5480  0.8808
 2684TIP3   OH229466   3.359   0.247  17.099 -0.3423 -0.0224 -0.0391
 2684TIP3    H129467   3.277   0.284  17.132  0.1432  1.4235 -0.3981
 2684TIP3    H229468   3.424   0.316  17.111  0.7798 -1.0338 -0.0385
 2685TIP3   OH229469   4.214   2.752  11.544 -0.5183  0.1422  0.2989
 2685TIP3    H129470   4.126   2.733  11.577  0.0424 -2.3487  0.5112
 2685TIP3    H229471   4.208   2.739  11.449 -1.2804  3.9727 -0.3523
 2686TIP3   OH229472   3.731   2.654   3.084 -0.4842  0.3732  0.5170
 2686TIP3    H129473   3.781   2.684   3.160 -0.4526 -1.2387  1.1805
 2686TIP3    H229474   3.768   2.701   3.010  0.4745  0.8955  1.3090
 2687TIP3   OH229475   3.021   4.237  15.177  0.2977  0.1270 -0.0732
 2687TIP3    H129476   2.987   4.320  15.211  1.4432 -0.3556  2.5244
 2687TIP3    H229477   2.951   4.203  15.121 -2.8951 -0.0824  3.6459
 2688TIP3   OH229478   2.604   4.042   3.799 -0.3739 -0.4888  0.6706
 2688TIP3    H129479   2.601   4.083   3.885  1.4754  1.4392 -0.1118
 2688TIP3    H229480   2.580   4.111   3.737 -0.4710 -1.4972 -0.4701
 2689TIP3   OH229481   2.737   2.835   5.511  0.7733  0.0391  0.6377
 2689TIP3    H129482   2.758   2.786   5.590 -0.5087  0.0694  1.0245
 2689TIP3    H229483   2.718   2.767   5.445  1.6163  0.0153  0.4133
 2690TIP3   OH229484   3.946   0.527  12.459  0.1370 -0.0561  0.1273
 2690TIP3    H129485   3.887   0.599  12.437  2.1158  1.2549 -1.2837
 2690TIP3    H229486   3.921   0.501  12.547 -3.0138 -0.1499 -0.6711
 2691TIP3   OH229487   1.068   1.182  13.483 -0.0449 -0.8313  0.1209
 2691TIP3    H129488   1.061   1.227  13.567 -0.6683 -1.5472  0.4638
 2691TIP3    H229489   1.104   1.248  13.423  1.6165 -0.6701  1.2244
 2692TIP3   OH229490   0.696   2.765   3.865 -0.1602 -0.1090  0.0522
 2692TIP3    H129491   0.738   2.775   3.780  1.1221  0.5759  0.7442
 2692TIP3    H229492   0.686   2.670   3.875  1.4173 -0.3202 -0.0680
 2693TIP3   OH229493   6.449   5.907  16.635 -0.0573 -0.1288 -0.3526
 2693TIP3    H129494   6.492   5.825  16.614  0.3314  0.4547 -2.0062
 2693TIP3    H229495   6.519   5.972  16.636 -0.3802  0.2229  0.7721
 2694TIP3   OH229496   4.615   1.056  13.951 -0.0015  0.3572  0.0278
 2694TIP3    H129497   4.582   1.100  13.872  2.9945  0.5878 -1.2440
 2694TIP3    H229498   4.694   1.010  13.921 -0.0396 -1.4935  2.4582
 2695TIP3   OH229499   0.909   6.322  13.804 -0.1013  0.3623  0.5891
 2695TIP3    H129500   0.907   6.232  13.835 -0.6935  1.1098  2.9451
 2695TIP3    H229501   0.856   6.370  13.868 -0.8126  2.1973 -1.2755
 2696TIP3   OH229502   1.098   2.353   2.443  0.5684 -0.5286 -0.4232
 2696TIP3    H129503   1.153   2.410   2.389 -0.2669 -0.2862 -1.0350
 2696TIP3    H229504   1.011   2.358   2.403 -0.0461 -0.4591  0.8669
 2697TIP3   OH229505   6.259   1.386   2.490  0.0141 -0.4572  0.1914
 2697TIP3    H129506   6.187   1.397   2.552 -0.1632  0.8027 -0.2102
 2697TIP3    H229507   6.321   1.456   2.512 -1.1997  1.6866 -2.5471
 2698TIP3   OH229508   3.905   4.739  13.331 -0.3521  0.0803 -0.1500
 2698TIP3    H129509   3.886   4.736  13.237 -0.2245 -1.5815 -0.1475
 2698TIP3    H229510   3.818   4.742  13.372 -0.4130  0.5778 -0.3063
 2699TIP3   OH229511   3.374   4.656  14.624  0.1758 -0.1853 -0.1181
 2699TIP3    H129512   3.453   4.709  14.640 -0.1344  1.0658 -2.3099
 2699TIP3    H229513   3.305   4.720  14.608 -1.6647 -1.2299  2.8640
 2700TIP3   OH229514   3.928   3.252  13.606  0.3645  0.1507 -0.2075
 2700TIP3    H129515   3.980   3.330  13.620  1.2304 -0.0001 -2.1833
 2700TIP3    H229516   3.837   3.280  13.618  0.7957  0.7350  1.9507
 2701TIP3   OH229517   2.623   3.429  12.806  0.0759 -0.3248 -0.0380
 2701TIP3    H129518   2.606   3.337  12.829 -0.0982 -0.5024 -0.8541
 2701TIP3    H229519   2.575   3.479  12.872 -1.1001 -0.8282 -0.4882
 2702TIP3   OH229520   0.592   2.857   4.791 -0.5498  0.1330  0.0773
 2702TIP3    H129521   0.557   2.776   4.753 -0.2770  0.3031 -0.5414
 2702TIP3    H229522   0.668   2.829   4.842 -1.8928 -0.3190  1.9141
 2703TIP3   OH229523   6.529   5.356   5.721  0.4469 -0.0918  0.3259
 2703TIP3    H129524   6.558   5.425   5.661  0.4413 -0.3064  0.0772
 2703TIP3    H229525   6.610   5.312   5.746  0.4169 -0.1981  0.2356
 2704TIP3   OH229526   5.299   1.180   3.840  0.2705 -0.5987 -0.1430
 2704TIP3    H129527   5.345   1.184   3.924  0.7369 -1.3747 -0.3499
 2704TIP3    H229528   5.207   1.166   3.863  0.1437  0.7159  0.2706
 2705TIP3   OH229529   1.100   5.959   2.705  0.2008  0.2759  0.3447
 2705TIP3    H129530   1.040   5.889   2.731 -0.0290  0.6605  0.8541
 2705TIP3    H229531   1.057   6.001   2.631 -0.2675  0.6897  0.8470
 2706TIP3   OH229532   4.898   2.443   5.441 -0.7463  0.0363  0.1467
 2706TIP3    H129533   4.903   2.482   5.529 -1.0416 -0.3261  0.3266
 2706TIP3    H229534   4.986   2.410   5.425 -1.0461 -1.2001  0.9199
 2707TIP3   OH229535   5.377   4.270   5.496  0.0705  0.1780  0.0941
 2707TIP3    H129536   5.296   4.224   5.517  0.4407 -0.6178 -0.1903
 2707TIP3    H229537   5.390   4.254   5.402  0.3808  0.5877  0.0628
 2708TIP3   OH229538   1.078   6.493   5.929  0.2542 -0.4656  0.0350
 2708TIP3    H129539   1.100   6.543   6.007 -0.8762  0.5533 -0.2762
 2708TIP3    H229540   1.052   6.558   5.865 -1.2877 -1.4412 -0.3786
 2709TIP3   OH229541   0.549   1.714  12.844  0.4692  0.0885 -0.2162
 2709TIP3    H129542   0.560   1.807  12.860  1.9185 -0.3208  1.4261
 2709TIP3    H229543   0.616   1.672  12.898 -1.7511 -2.0504  1.0776
 2710TIP3   OH229544   5.524   0.387  15.993  0.2246  0.5532  0.0092
 2710TIP3    H129545   5.493   0.377  16.083 -0.3796  0.7137 -0.1790
 2710TIP3    H229546   5.513   0.480  15.973 -0.5655  0.3525 -0.5529
 2711TIP3   OH229547   1.316   6.570  16.310 -0.2042 -0.2371 -1.0957
 2711TIP3    H129548   1.345   6.622  16.235 -1.8800  0.8880 -1.0118
 2711TIP3    H229549   1.226   6.597  16.325 -0.1568 -0.9750  0.8762
 2712TIP3   OH229550   1.245   6.105  13.061  0.5880  0.2404  0.0598
 2712TIP3    H129551   1.172   6.167  13.065 -0.4619 -1.0146  1.3254
 2712TIP3    H229552   1.283   6.118  12.974 -1.7243  0.3049 -1.0049
 2713TIP3   OH229553   3.293   2.586   5.257  0.1867 -0.7630  0.2562
 2713TIP3    H129554   3.299   2.639   5.337  0.4374 -1.7253  0.8823
 2713TIP3    H229555   3.206   2.605   5.223  0.5821  0.7128 -0.0054
 2714TIP3   OH229556   0.351   3.905   5.024 -0.0570  0.4065 -0.8297
 2714TIP3    H129557   0.353   3.876   4.932  1.6234 -1.4904 -0.2783
 2714TIP3    H229558   0.273   3.863   5.060  0.4938 -0.6966 -0.8812
 2715TIP3   OH229559   4.343   6.712  17.065  0.2285 -0.1448 -0.3988
 2715TIP3    H129560   4.309   6.636  17.113 -0.3169  1.9751  2.9833
 2715TIP3    H229561   4.438   6.705  17.074  0.3241 -1.5269 -2.1084
 2716TIP3   OH229562   3.320   3.554   4.856  0.1379 -0.2707  0.8130
 2716TIP3    H129563   3.337   3.536   4.948  0.3446 -0.0777  0.8139
 2716TIP3    H229564   3.375   3.630   4.836 -0.7458  0.3721  0.8148
 2717TIP3   OH229565   6.557   4.884   6.184  0.1496 -0.1690  0.3969
 2717TIP3    H129566   6.647   4.873   6.152  0.3907  1.1294  0.5734
 2717TIP3    H229567   6.509   4.809   6.148  1.1074 -0.4192 -0.4053
 2718TIP3   OH229568   2.821   0.086   1.817 -0.2397  0.7689  0.0747
 2718TIP3    H129569   2.855   0.040   1.740  1.8725 -0.1742  1.4942
 2718TIP3    H229570   2.815   0.178   1.788 -1.6685  0.1465 -1.8573
 2719TIP3   OH229571   2.234   6.682   1.655 -0.0019 -0.2859 -0.2124
 2719TIP3    H129572   2.227   6.753   1.718 -1.1438  1.1984 -1.8867
 2719TIP3    H229573   2.165   6.620   1.680 -0.7686  0.5311 -0.2713
 2720TIP3   OH229574   5.801   2.624   3.691  0.9099 -0.6662  0.0394
 2720TIP3    H129575   5.714   2.608   3.729  1.4278 -0.7196  1.2244
 2720TIP3    H229576   5.793   2.594   3.600 -0.4229 -0.3052  0.0157
 2721TIP3   OH229577   2.542   1.260  11.937 -0.1120  0.0693  0.3275
 2721TIP3    H129578   2.593   1.207  11.998  0.4137  0.5662  0.3335
 2721TIP3    H229579   2.525   1.202  11.863 -1.5952 -0.8442  1.3542
 2722TIP3   OH229580   1.003   3.718  13.516 -0.0285  0.2393  0.4771
 2722TIP3    H129581   1.051   3.767  13.450 -0.6417  0.7800  0.4269
 2722TIP3    H229582   1.060   3.718  13.592 -0.1125  1.2145  0.5482
 2723TIP3   OH229583   0.921   1.519   5.967  0.1200  0.0266 -0.5561
 2723TIP3    H129584   0.938   1.546   5.877 -1.1782  0.9884 -0.5440
 2723TIP3    H229585   0.940   1.425   5.967  3.3104  0.5698 -0.9562
 2724TIP3   OH229586   5.390   4.749  17.168 -0.0636 -0.1787  0.4010
 2724TIP3    H129587   5.343   4.776  17.090 -1.2485 -0.4953  0.9804
 2724TIP3    H229588   5.406   4.830  17.216 -0.9211 -0.1500  0.6684
 2725TIP3   OH229589   4.140   5.066  13.773 -0.6522  0.0863  0.1114
 2725TIP3    H129590   4.171   5.111  13.695 -0.1810 -0.5457 -0.0749
 2725TIP3    H229591   4.132   4.974  13.746 -0.1268 -0.2032  0.9043
 2726TIP3   OH229592   4.604   0.750  13.045  0.1263  0.0617  0.2182
 2726TIP3    H129593   4.687   0.760  12.998 -0.0376  1.8593  0.2555
 2726TIP3    H229594   4.628   0.710  13.128  0.5043 -2.5687 -1.0622
 2727TIP3   OH229595   6.423   4.058   2.396  0.0834  0.5819 -0.6179
 2727TIP3    H129596   6.332   4.068   2.369  0.2935  0.8519 -1.2479
 2727TIP3    H229597   6.464   4.142   2.376  0.5408  0.3612 -0.6244
 2728TIP3   OH229598   4.978   2.731   0.897  0.5145 -0.1119  0.2080
 2728TIP3    H129599   4.886   2.725   0.923  0.1964  0.4500 -0.7172
 2728TIP3    H229600   5.019   2.782   0.966 -0.0051  0.1594  0.3225
 2729TIP3   OH229601   4.409   3.770   3.669  0.0441  0.4338  0.0063
 2729TIP3    H129602   4.442   3.736   3.586  0.1094 -1.0849  0.6250
 2729TIP3    H229603   4.486   3.804   3.713 -0.1672  2.4669 -1.0488
 2730TIP3   OH229604   1.520   2.428  14.020  0.4694  0.2254 -0.4242
 2730TIP3    H129605   1.598   2.375  14.039  0.5455  0.2642 -0.6283
 2730TIP3    H229606   1.485   2.450  14.106  0.9662  0.6262 -0.3219
 2731TIP3   OH229607   2.341   4.968  13.606  0.4625 -0.3471 -0.9513
 2731TIP3    H129608   2.279   5.023  13.558  0.7800 -0.2443 -1.2461
 2731TIP3    H229609   2.419   4.964  13.550  0.4812 -1.0116 -0.8833
 2732TIP3   OH229610   1.726   0.006  14.083 -0.1863 -0.3464  0.0727
 2732TIP3    H129611   1.737  -0.081  14.120 -0.3325 -1.0841 -1.5113
 2732TIP3    H229612   1.675  -0.008  14.003  1.2861  0.9288 -1.1642
 2733TIP3   OH229613   0.375   3.084   0.305 -0.4878  0.3954  0.4283
 2733TIP3    H129614   0.390   3.012   0.243 -1.8408 -0.6395  1.2562
 2733TIP3    H229615   0.286   3.113   0.286 -0.6473  0.5531  1.4058
 2734TIP3   OH229616   0.216   4.749  13.025  0.0405 -0.3851 -0.5223
 2734TIP3    H129617   0.225   4.658  13.052  0.1536  0.2308  1.7142
 2734TIP3    H229618   0.138   4.780  13.071  2.3706  1.7741  2.2679
 2735TIP3   OH229619   5.617   0.951  13.646 -0.6799  0.4964 -0.5835
 2735TIP3    H129620   5.564   0.874  13.669 -1.2363  1.3723  1.2476
 2735TIP3    H229621   5.671   0.967  13.723 -1.3530  2.5694 -0.4848
 2736TIP3   OH229622   3.398   0.828  11.718  0.1825  0.6344 -0.1332
 2736TIP3    H129623   3.447   0.824  11.801  0.4163  1.2325 -0.2386
 2736TIP3    H229624   3.347   0.909  11.725 -0.1766  0.4314 -0.3707
 2737TIP3   OH229625   4.410   3.942   0.415 -0.8920 -0.3292 -0.1857
 2737TIP3    H129626   4.396   3.974   0.504 -1.9885 -0.3428 -0.3463
 2737TIP3    H229627   4.362   3.860   0.410  0.2639 -1.0225 -0.3949
 2738TIP3   OH229628   6.443   0.611   0.129 -0.1658 -0.1061  0.2487
 2738TIP3    H129629   6.467   0.674   0.197 -1.6506  0.3877  0.3514
 2738TIP3    H229630   6.452   0.526   0.171  2.6007 -0.0974 -0.1082
 2739TIP3   OH229631   3.059   3.496   2.305  0.0776 -0.1707  0.2097
 2739TIP3    H129632   3.070   3.432   2.235 -0.4324  0.8547 -0.8408
 2739TIP3    H229633   3.141   3.493   2.354  1.5607  1.0047 -2.0758
 2740TIP3   OH229634   3.546   5.464  17.273 -0.0528 -0.1153 -0.0994
 2740TIP3    H129635   3.586   5.412  17.343 -1.0366 -2.5919 -1.2386
 2740TIP3    H229636   3.621   5.499  17.224  0.6923 -1.4956  0.0043
 2741TIP3   OH229637   0.742   6.420  11.491  0.5003  0.5481  0.9141
 2741TIP3    H129638   0.663   6.374  11.518  0.4701  0.5416  0.8123
 2741TIP3    H229639   0.813   6.360  11.513  0.2965 -1.0908 -2.3729
 2742TIP3   OH229640   6.542   0.474   1.253 -0.0767  0.0457 -0.4588
 2742TIP3    H129641   6.456   0.462   1.213 -1.3535  1.5795  1.6222
 2742TIP3    H229642   6.568   0.563   1.230 -0.1614  0.4284  0.8643
 2743TIP3   OH229643   3.211   2.572   5.980 -0.1209  0.0438  0.1790
 2743TIP3    H129644   3.286   2.533   6.025  1.1225  2.5315  0.3983
 2743TIP3    H229645   3.231   2.562   5.887 -0.6501 -1.3054  0.1876
 2744TIP3   OH229646   1.560   2.960   2.320  0.1851 -0.2077  0.2804
 2744TIP3    H129647   1.476   2.927   2.352 -0.8385  0.2556 -1.7098
 2744TIP3    H229648   1.612   2.882   2.302  0.7498 -0.4783  2.7758
 2745TIP3   OH229649   5.691   4.604  13.389 -0.2361 -0.3980  0.0623
 2745TIP3    H129650   5.772   4.654  13.381 -0.3371 -0.4653 -1.8048
 2745TIP3    H229651   5.626   4.656  13.343 -0.7997 -1.2757 -0.1645
 2746TIP3   OH229652   2.056   2.376   2.103  0.2406  0.0194  0.4109
 2746TIP3    H129653   2.055   2.461   2.146  0.4576 -0.6517  1.8015
 2746TIP3    H229654   1.969   2.369   2.063 -0.3713  0.2514  1.6324
 2747TIP3   OH229655   1.102   3.535   3.992 -0.3377 -0.0530 -0.0949
 2747TIP3    H129656   1.064   3.464   3.941 -0.3228 -0.9126  1.0551
 2747TIP3    H229657   1.164   3.492   4.050  5.1075  1.4508 -3.9682
 2748TIP3   OH229658   6.192   2.896  12.185 -0.4923 -0.0159 -0.3633
 2748TIP3    H129659   6.180   2.986  12.214 -0.8986 -0.0845 -0.3131
 2748TIP3    H229660   6.169   2.898  12.092  1.6073  0.3768 -0.9167
 2749TIP3   OH229661   6.617   6.109   2.317  0.1159 -0.2192 -0.3898
 2749TIP3    H129662   6.698   6.111   2.267 -0.5487  1.0769 -1.4923
 2749TIP3    H229663   6.596   6.202   2.333 -2.4344 -0.3438 -2.3787
 2750TIP3   OH229664   0.336   5.317  14.438 -0.1358  0.1172 -0.1309
 2750TIP3    H129665   0.248   5.325  14.473  0.4396  2.2552  1.0261
 2750TIP3    H229666   0.337   5.372  14.359  0.8438  2.6263  1.4919
 2751TIP3   OH229667   3.078   1.665  15.634 -0.0341  0.7040 -0.1763
 2751TIP3    H129668   3.081   1.757  15.606 -1.5072 -0.2452 -3.9770
 2751TIP3    H229669   2.988   1.638  15.619  1.0915 -2.2212 -2.6223
 2752TIP3   OH229670   1.533   6.440   5.988 -0.1749 -0.1619  0.2549
 2752TIP3    H129671   1.569   6.373   6.047 -1.7571  0.5835  2.1665
 2752TIP3    H229672   1.583   6.519   6.007  0.3463 -0.2766 -0.5652
 2753TIP3   OH229673   5.910   4.275  10.860 -0.4588  0.0992  0.6212
 2753TIP3    H129674   5.928   4.213  10.931 -0.6229 -0.1071  0.4823
 2753TIP3    H229675   5.995   4.290  10.819 -0.7081 -1.4966 -0.5547
 2754TIP3   OH229676   5.721   5.065  14.828 -0.0225 -0.4331 -0.2802
 2754TIP3    H129677   5.729   5.071  14.923  0.4589 -0.6743 -0.2974
 2754TIP3    H229678   5.643   5.012  14.814  0.2062 -0.8542 -0.0033
 2755TIP3   OH229679   6.666   3.289   1.937 -0.1957  0.3096  0.2516
 2755TIP3    H129680   6.658   3.362   1.876  0.0666  0.3387  0.2479
 2755TIP3    H229681   6.745   3.309   1.988  0.5065 -0.5035 -0.4802
 2756TIP3   OH229682   3.249   2.518  14.541  0.5410  0.2668 -0.0934
 2756TIP3    H129683   3.243   2.565  14.458 -1.8541  0.1866 -0.0437
 2756TIP3    H229684   3.169   2.466  14.545  0.9215 -0.2629  1.9559
 2757TIP3   OH229685   6.451   6.221  15.950  0.2933  0.3871  0.0599
 2757TIP3    H129686   6.527   6.216  16.008  1.8129  1.4207 -1.7366
 2757TIP3    H229687   6.434   6.314  15.939 -0.6489  0.1903 -0.3271
 2758TIP3   OH229688   1.678   5.735  13.825 -0.2948 -0.3058  0.1217
 2758TIP3    H129689   1.748   5.708  13.766 -1.7316 -1.7308 -0.9943
 2758TIP3    H229690   1.722   5.749  13.909  1.6248  0.7759 -0.9907
 2759TIP3   OH229691   5.684   1.575  14.080  0.1895  0.1637 -0.0763
 2759TIP3    H129692   5.705   1.634  14.152  0.7398 -0.4343  0.2661
 2759TIP3    H229693   5.612   1.521  14.114 -0.7943  1.0756 -0.6383
 2760TIP3   OH229694   5.211   4.362   3.250 -0.2756 -0.6745 -0.3717
 2760TIP3    H129695   5.154   4.310   3.193  0.0443 -0.4575 -0.8941
 2760TIP3    H229696   5.158   4.439   3.273 -0.8228 -1.2968  0.5596
 2761TIP3   OH229697   5.745   5.738  17.048  0.7361  0.3057 -0.2813
 2761TIP3    H129698   5.734   5.685  16.969 -1.4647  0.8543 -0.3887
 2761TIP3    H229699   5.818   5.797  17.027 -0.2313  0.8968 -2.2127
 2762TIP3   OH229700   1.833   4.738   1.516  0.0666  0.1599 -0.1293
 2762TIP3    H129701   1.786   4.781   1.445 -0.7053 -0.0251  0.2591
 2762TIP3    H229702   1.777   4.665   1.541  1.3358 -1.0790 -0.7549
 2763TIP3   OH229703   6.733   3.279   1.111 -0.2194 -0.0340  0.2579
 2763TIP3    H129704   6.644   3.297   1.081 -0.9881 -1.5820  1.4955
 2763TIP3    H229705   6.780   3.252   1.033 -0.9999  0.1987 -0.3006
 2764TIP3   OH229706   1.139   6.350  14.418  0.3437  0.2553 -0.1008
 2764TIP3    H129707   1.134   6.349  14.323 -0.1930 -1.0105 -0.0823
 2764TIP3    H229708   1.201   6.280  14.440  0.1525  0.2602  0.4887
 2765TIP3   OH229709   2.838   3.234  12.979 -0.4851 -0.2554  0.1962
 2765TIP3    H129710   2.875   3.193  12.901  0.7372  0.9918  0.0842
 2765TIP3    H229711   2.910   3.283  13.017 -1.9528  2.2117  0.0258
 2766TIP3   OH229712   5.391   5.829  12.649 -0.2109 -0.3678 -0.1870
 2766TIP3    H129713   5.345   5.745  12.643 -1.6888  0.3376  0.8484
 2766TIP3    H229714   5.325   5.890  12.682  0.7783  1.2647 -1.1354
 2767TIP3   OH229715   0.665   4.380  10.615  0.4840  0.5824 -0.2840
 2767TIP3    H129716   0.693   4.439  10.685  1.2355 -0.5888  0.4448
 2767TIP3    H229717   0.725   4.397  10.543  0.6614  0.7539 -0.0973
 2768TIP3   OH229718   4.766   3.510   4.664  0.0322  0.4484 -0.0641
 2768TIP3    H129719   4.700   3.444   4.644 -1.4758  2.1729 -1.1936
 2768TIP3    H229720   4.716   3.583   4.702  1.4307  1.4333 -0.0261
 2769TIP3   OH229721   1.839   5.182   0.001 -0.1081  0.4671  0.0677
 2769TIP3    H129722   1.827   5.268   0.042  0.1896  0.9750 -0.8842
 2769TIP3    H229723   1.888   5.200  -0.079  1.2795 -0.7805  0.5985
 2770TIP3   OH229724   1.648   5.781   1.556 -0.0288  0.5818  0.6872
 2770TIP3    H129725   1.709   5.806   1.625 -0.8408 -0.2686  1.7345
 2770TIP3    H229726   1.693   5.710   1.509  1.5166  2.6363 -1.1847
 2771TIP3   OH229727   5.630   5.192   0.879  0.0829  0.2270 -0.9904
 2771TIP3    H129728   5.668   5.172   0.793  1.7248  1.4944 -0.6033
 2771TIP3    H229729   5.591   5.110   0.908  0.2755 -0.4526 -2.5546
 2772TIP3   OH229730   5.202   0.529  12.478  0.1931 -0.5106 -0.2690
 2772TIP3    H129731   5.203   0.561  12.388  0.9599 -1.4550 -0.6139
 2772TIP3    H229732   5.194   0.434  12.471  0.8094 -0.6548  0.6257
 2773TIP3   OH229733   5.132   0.584   3.381  0.6080  0.2773  0.0374
 2773TIP3    H129734   5.076   0.544   3.447 -0.1366 -0.6938 -1.1277
 2773TIP3    H229735   5.080   0.655   3.345  0.6568  0.2434 -0.1034
 2774TIP3   OH229736   2.618   5.176  16.846 -0.2048  0.0089 -0.2054
 2774TIP3    H129737   2.567   5.144  16.920 -0.0755 -0.2843 -0.2458
 2774TIP3    H229738   2.693   5.117  16.840  0.4020  0.7290  0.1561
 2775TIP3   OH229739   1.828   4.296  11.238 -0.1728 -0.4948  0.1353
 2775TIP3    H129740   1.794   4.306  11.327 -1.8793 -1.3883 -0.3609
 2775TIP3    H229741   1.752   4.265  11.188  0.7597 -0.0286 -1.6248
 2776TIP3   OH229742   1.570   2.733   1.451 -0.9250 -0.3020  0.3340
 2776TIP3    H129743   1.478   2.721   1.477 -0.8635 -4.7582 -0.6720
 2776TIP3    H229744   1.566   2.750   1.357 -0.7497 -1.4588  0.1050
 2777TIP3   OH229745   5.092   1.900   4.880  0.0906 -0.3988  0.0998
 2777TIP3    H129746   5.132   1.824   4.839 -2.6173 -0.9260 -1.8521
 2777TIP3    H229747   5.006   1.869   4.911 -0.5694  1.5462  0.4123
 2778TIP3   OH229748   3.733   2.474   2.825 -0.0058  0.9660  0.4868
 2778TIP3    H129749   3.788   2.528   2.768  0.0136 -1.2934 -1.8034
 2778TIP3    H229750   3.659   2.531   2.847  0.1020  2.0353 -1.6544
 2779TIP3   OH229751   4.058   4.804  13.600  0.4396 -0.9779 -0.0171
 2779TIP3    H129752   4.030   4.746  13.671 -0.9370  0.7700  0.9416
 2779TIP3    H229753   4.020   4.766  13.521 -0.5952 -1.3021  0.6188
 2780TIP3   OH229754   0.261   5.206  14.152  0.1231 -0.0675 -0.3301
 2780TIP3    H129755   0.304   5.290  14.133 -0.0687  0.0815 -0.1173
 2780TIP3    H229756   0.257   5.162  14.067 -0.3149  0.3947 -0.5609
 2781TIP3   OH229757   5.917   5.666   2.695  0.3447  0.7040 -0.2319
 2781TIP3    H129758   5.892   5.583   2.655 -0.6321  1.0296 -0.3110
 2781TIP3    H229759   5.852   5.681   2.764  1.7002  0.4052  1.1798
 2782TIP3   OH229760   2.490   4.748   6.424  0.4420  0.1299 -0.1718
 2782TIP3    H129761   2.571   4.722   6.380  1.1444 -1.1498  1.7467
 2782TIP3    H229762   2.517   4.811   6.491  0.1747 -1.4987  1.5674
 2783TIP3   OH229763   6.257   6.271   5.325  0.6452  0.2790 -0.5167
 2783TIP3    H129764   6.293   6.206   5.386  1.9885 -0.3173 -1.8987
 2783TIP3    H229765   6.180   6.228   5.288 -0.2412  0.6820  0.7778
 2784TIP3   OH229766   5.161   0.531   0.491  0.1753 -0.5850 -0.4961
 2784TIP3    H129767   5.241   0.581   0.472 -1.7469  2.2156 -1.7321
 2784TIP3    H229768   5.178   0.494   0.578  1.5164  2.9269  0.9604
 2785TIP3   OH229769   6.057   1.928   4.041 -0.3171  0.0476 -0.1838
 2785TIP3    H129770   6.023   1.852   4.088  1.4467 -1.3822 -1.0811
 2785TIP3    H229771   6.013   1.926   3.956 -0.0750 -0.1563 -0.3078
 2786TIP3   OH229772   2.403   5.283   4.228  0.4679  0.0025  0.2551
 2786TIP3    H129773   2.444   5.319   4.149 -1.0009 -0.2068 -0.6219
 2786TIP3    H229774   2.338   5.349   4.253 -0.5803 -0.9225  0.0166
 2787TIP3   OH229775   2.471   5.133  16.357  0.1175  0.0325 -0.4306
 2787TIP3    H129776   2.465   5.213  16.408 -1.0210 -0.3751  0.1184
 2787TIP3    H229777   2.460   5.161  16.266 -1.2559  0.4206 -0.1729
 2788TIP3   OH229778   6.744   3.003   0.531 -0.2821  0.1588 -0.2831
 2788TIP3    H129779   6.758   3.098   0.525  0.9966 -0.0517 -1.0199
 2788TIP3    H229780   6.823   2.970   0.573 -0.7568 -0.5774  0.0362
 2789TIP3   OH229781   0.659   5.662   1.771 -0.4387 -0.0169  0.0824
 2789TIP3    H129782   0.710   5.736   1.737 -2.0925  0.6269 -1.1095
 2789TIP3    H229783   0.675   5.665   1.866 -2.0736  3.2486  0.3916
 2790TIP3   OH229784   4.821   5.548  16.584 -0.5407 -0.3596 -0.5632
 2790TIP3    H129785   4.817   5.622  16.523  0.3069  1.7885  1.7990
 2790TIP3    H229786   4.912   5.522  16.585 -0.8555 -1.5492 -1.4615
 2791TIP3   OH229787   3.940   4.848   0.102 -0.0130 -0.0202  0.6928
 2791TIP3    H129788   3.907   4.816   0.186  0.2998 -0.4009  0.6727
 2791TIP3    H229789   3.890   4.799   0.036 -0.3870  0.4114  0.6587
 2792TIP3   OH229790   5.449   1.427  13.769 -0.0026 -0.1182  0.2897
 2792TIP3    H129791   5.427   1.437  13.677  0.4018  1.2172  0.3116
 2792TIP3    H229792   5.365   1.410  13.812 -0.3500  0.3622 -0.1857
 2793TIP3   OH229793   3.663   6.641  14.157  0.1902 -0.4804  0.2981
 2793TIP3    H129794   3.687   6.594  14.237 -0.4998 -3.2171 -0.9798
 2793TIP3    H229795   3.673   6.576  14.087  0.9782  1.8577 -1.9106
 2794TIP3   OH229796   2.219   3.974  15.456  0.1415 -0.3323 -0.7775
 2794TIP3    H129797   2.276   3.916  15.505  1.8265  1.4906 -0.4592
 2794TIP3    H229798   2.131   3.939  15.470  0.8429 -1.4018  1.3292
 2795TIP3   OH229799   5.635   3.741  15.185  0.1858 -0.0796  0.2327
 2795TIP3    H129800   5.644   3.769  15.276 -1.2910 -1.2866  0.7996
 2795TIP3    H229801   5.542   3.718  15.177  0.8673 -2.9024 -0.6853
 2796TIP3   OH229802   2.198   1.443   2.117 -0.2997  0.0561  0.1315
 2796TIP3    H129803   2.176   1.518   2.062 -1.1085 -0.7707 -0.7265
 2796TIP3    H229804   2.122   1.432   2.174 -1.2166 -1.4010 -1.2532
 2797TIP3   OH229805   5.089   2.099  12.001 -0.3992  0.7797 -0.1804
 2797TIP3    H129806   5.145   2.173  11.979 -0.4677  0.2743 -2.2690
 2797TIP3    H229807   5.150   2.025  12.007 -0.6911  0.4436 -1.2744
 2798TIP3   OH229808   4.382   4.233   6.392 -0.0472 -0.0016  0.1422
 2798TIP3    H129809   4.455   4.288   6.420  0.4988 -0.6507  0.0248
 2798TIP3    H229810   4.308   4.293   6.386  0.4958  0.6882  0.1665
 2799TIP3   OH229811   3.711   6.751   0.818 -0.1723 -0.2287 -0.0258
 2799TIP3    H129812   3.796   6.794   0.815 -0.4017  0.2370 -3.2352
 2799TIP3    H229813   3.732   6.657   0.814  0.1741 -0.2126  0.9744
 2800TIP3   OH229814   6.549   2.961  16.330  0.0394  0.2920  0.3838
 2800TIP3    H129815   6.487   2.889  16.337 -1.1301  1.3143  0.9153
 2800TIP3    H229816   6.571   2.965  16.237  0.4788 -1.0157  0.4126
 2801TIP3   OH229817   6.593   3.470  13.771  0.0756  0.0934 -0.2577
 2801TIP3    H129818   6.567   3.448  13.682  0.0126 -1.9316  0.2037
 2801TIP3    H229819   6.682   3.434  13.779 -0.6683 -1.5643  1.0729
 2802TIP3   OH229820   4.023   3.815  11.729  0.1573 -0.3170 -0.0173
 2802TIP3    H129821   4.042   3.726  11.760  2.3175  0.1134  0.0167
 2802TIP3    H229822   4.060   3.872  11.796  1.5503  0.5988 -1.5156
 2803TIP3   OH229823   0.363   1.026  17.039  0.5551 -0.0397 -0.0655
 2803TIP3    H129824   0.322   1.092  17.095 -0.4865  0.1065 -0.9719
 2803TIP3    H229825   0.299   0.954  17.036  0.7380 -0.1841 -0.7836
 2804TIP3   OH229826   1.114   1.573   5.106 -0.3451 -0.1981  0.7307
 2804TIP3    H129827   1.093   1.481   5.121 -1.8085  0.0372  0.3331
 2804TIP3    H229828   1.085   1.618   5.185 -1.1312  0.0997  0.2912
 2805TIP3   OH229829   3.858   3.281   0.718  0.3957 -0.0867  0.1124
 2805TIP3    H129830   3.805   3.236   0.784 -0.6948  0.0203 -0.6631
 2805TIP3    H229831   3.796   3.304   0.650  1.2451  1.1244 -0.2738
 2806TIP3   OH229832   6.047   3.076   1.117 -0.1645  0.3623 -0.0795
 2806TIP3    H129833   6.051   3.171   1.100  0.4220  0.2071 -0.8183
 2806TIP3    H229834   6.121   3.059   1.174 -0.1926  0.3205 -0.0562
 2807TIP3   OH229835   2.813   2.435   0.472 -0.3066 -0.5323 -0.3803
 2807TIP3    H129836   2.771   2.383   0.403  2.1563 -1.7739 -1.0662
 2807TIP3    H229837   2.867   2.499   0.424 -1.9859  1.6404  0.4646
 2808TIP3   OH229838   3.866   2.705  11.213 -0.1973  0.3998  0.3568
 2808TIP3    H129839   3.917   2.727  11.136  2.5451 -1.2132  1.5690
 2808TIP3    H229840   3.791   2.656  11.179  1.0373 -0.4495 -1.2845
 2809TIP3   OH229841   0.689   4.971  14.513 -0.2795  0.4324 -0.0787
 2809TIP3    H129842   0.595   4.983  14.523  0.0929  2.1281  1.7074
 2809TIP3    H229843   0.721   4.952  14.601  1.2520  1.5197 -0.3587
 2810TIP3   OH229844   4.820   6.153   3.251  0.3153  0.2616  0.1591
 2810TIP3    H129845   4.907   6.168   3.216  0.3354  1.1248  0.5503
 2810TIP3    H229846   4.824   6.183   3.341 -0.6970  1.4709 -0.1587
 2811TIP3   OH229847   1.451   0.501   1.943  0.7061 -0.4561 -0.3952
 2811TIP3    H129848   1.486   0.582   1.905 -0.0154  0.8445  1.5725
 2811TIP3    H229849   1.515   0.434   1.919  0.2879  0.2037 -3.8755
 2812TIP3   OH229850   6.189   0.969  14.195  0.0002 -0.4104 -0.0347
 2812TIP3    H129851   6.114   0.963  14.135 -1.3150  0.3879  1.4640
 2812TIP3    H229852   6.205   0.879  14.222  0.9911 -0.8709 -1.9691
 2813TIP3   OH229853   3.138   4.753  16.623 -0.3075 -0.4104  0.2593
 2813TIP3    H129854   3.082   4.811  16.572 -0.0134 -0.3105  0.0461
 2813TIP3    H229855   3.211   4.808  16.652 -1.4342  0.0313  2.4472
 2814TIP3   OH229856   4.310   4.278   1.570  0.4785 -0.9721  0.7016
 2814TIP3    H129857   4.373   4.333   1.616 -0.8078  0.4670  0.8202
 2814TIP3    H229858   4.227   4.294   1.614 -0.3445 -1.3752 -0.6381
 2815TIP3   OH229859   0.285   0.958   2.000 -0.0008  0.0637 -0.1180
 2815TIP3    H129860   0.214   0.910   2.042  0.8762 -0.3258  0.9656
 2815TIP3    H229861   0.258   1.050   2.004 -0.6599 -0.1240 -0.1665
 2816TIP3   OH229862   2.764   4.694  12.415 -0.8835  0.6936  0.5503
 2816TIP3    H129863   2.815   4.718  12.493  0.2294 -0.2377  0.1523
 2816TIP3    H229864   2.802   4.747  12.344  0.4223 -0.8658  0.0132
 2817TIP3   OH229865   0.869   3.646  15.722  0.1563  0.4697 -0.0572
 2817TIP3    H129866   0.802   3.618  15.785  1.2400 -1.2514  0.3982
 2817TIP3    H229867   0.867   3.742  15.727 -1.7027  0.4455  0.5267
 2818TIP3   OH229868   5.189   4.008  12.541  0.1014  0.4209 -0.2540
 2818TIP3    H129869   5.257   3.943  12.522  1.4529  1.6412  0.1654
 2818TIP3    H229870   5.227   4.062  12.611 -1.7722  0.4791  0.8011
 2819TIP3   OH229871   5.550   4.508  13.087  0.1917 -0.1070 -0.4198
 2819TIP3    H129872   5.589   4.564  13.154 -0.2505  0.0990 -0.3319
 2819TIP3    H229873   5.472   4.556  13.057  0.1329 -0.4034 -0.7586
 2820TIP3   OH229874   5.883   3.417   4.633 -0.1101  0.0278  0.0954
 2820TIP3    H129875   5.838   3.392   4.553  1.7290 -1.7795 -0.4688
 2820TIP3    H229876   5.953   3.352   4.643 -0.8132 -0.3864  3.6712
 2821TIP3   OH229877   4.797   2.912   4.283  0.4542  0.2873  0.0881
 2821TIP3    H129878   4.733   2.980   4.304  0.1218  1.0119 -2.8625
 2821TIP3    H229879   4.824   2.878   4.368 -0.9711  2.6101  1.5877
 2822TIP3   OH229880   4.485   6.136  16.215 -0.1649 -0.4507 -0.3277
 2822TIP3    H129881   4.540   6.088  16.153 -2.1404 -0.7403 -1.9626
 2822TIP3    H229882   4.459   6.071  16.281 -2.0153 -1.4980 -1.9763
 2823TIP3   OH229883   1.556   4.617  17.152  0.4856  0.2784 -0.4484
 2823TIP3    H129884   1.561   4.539  17.207  0.5001  0.0642 -0.7458
 2823TIP3    H229885   1.594   4.589  17.068 -0.3589  0.3375 -0.8581
 2824TIP3   OH229886   5.336   5.805   0.202 -0.3412  0.0149 -0.4240
 2824TIP3    H129887   5.428   5.822   0.222 -0.6076  1.2404 -0.1513
 2824TIP3    H229888   5.300   5.770   0.283  0.0232 -1.1207 -0.7343
 2825TIP3   OH229889   0.059   1.641  13.960  0.3265 -0.2680 -0.0666
 2825TIP3    H129890   0.126   1.573  13.948  1.1198  0.3944  0.4722
 2825TIP3    H229891  -0.023   1.593  13.967  0.5632 -1.0492 -1.9393
 2826TIP3   OH229892   2.310   2.075  14.789  0.6940 -0.0055  0.2239
 2826TIP3    H129893   2.316   2.170  14.790  0.7568  0.0050  2.4796
 2826TIP3    H229894   2.400   2.045  14.801  0.7739 -0.3880 -1.1708
 2827TIP3   OH229895   1.697   1.296  11.234  0.2102 -0.0909  0.0678
 2827TIP3    H129896   1.654   1.306  11.319  1.0122 -2.7834  0.8797
 2827TIP3    H229897   1.626   1.300  11.170 -1.0371 -2.1357  1.2173
 2828TIP3   OH229898   2.362   5.060   0.638  0.1392 -0.4822 -0.1790
 2828TIP3    H129899   2.395   5.149   0.637 -0.3438 -0.2938 -0.9509
 2828TIP3    H229900   2.395   5.022   0.719  0.9902  0.1538 -0.2155
 2829TIP3   OH229901   6.203   0.688   3.166 -0.5723  0.2985 -0.1283
 2829TIP3    H129902   6.245   0.603   3.154 -0.5097  0.2572  0.3583
 2829TIP3    H229903   6.243   0.744   3.100  0.0262  0.1762  0.1270
 2830TIP3   OH229904   5.904   1.267  13.191 -0.1939  0.5883  0.7606
 2830TIP3    H129905   5.920   1.178  13.224 -1.2870  0.1994  0.3220
 2830TIP3    H229906   5.828   1.297  13.240 -1.1239  0.4501 -0.5253
 2831TIP3   OH229907   2.685   0.383  12.753  0.1985 -0.0762 -0.3607
 2831TIP3    H129908   2.666   0.474  12.728  1.3711 -0.3257 -2.3960
 2831TIP3    H229909   2.607   0.335  12.728  0.6287 -0.0118 -1.9868
 2832TIP3   OH229910   4.241   4.183   5.412  0.0992 -0.1948  0.0427
 2832TIP3    H129911   4.202   4.270   5.404 -0.3326 -0.3925 -0.0043
 2832TIP3    H229912   4.298   4.176   5.335 -0.6295 -0.3416 -0.4929
 2833TIP3   OH229913   2.157   2.179  15.821 -0.3081  0.3298 -0.4301
 2833TIP3    H129914   2.227   2.237  15.850 -2.4887  3.2273 -0.4111
 2833TIP3    H229915   2.180   2.155  15.731  1.6055 -0.4521  0.2299
 2834TIP3   OH229916   1.793   4.510   1.274 -0.2481  0.4058 -0.2109
 2834TIP3    H129917   1.760   4.597   1.297 -1.7137 -0.2100  0.1395
 2834TIP3    H229918   1.714   4.460   1.252  0.6147 -0.7131 -0.8247
 2835TIP3   OH229919   4.300   0.491  12.659  0.8711 -0.1953  0.1027
 2835TIP3    H129920   4.382   0.504  12.708  0.2162  0.2134  1.1448
 2835TIP3    H229921   4.236   0.468  12.727 -0.2295  1.0982 -0.4505
 2836TIP3   OH229922   4.930   1.453   1.730  0.2494  0.2314  0.1370
 2836TIP3    H129923   4.885   1.385   1.779  0.6482 -0.8677 -0.9608
 2836TIP3    H229924   4.876   1.531   1.740 -0.2730 -0.2710  1.3294
 2837TIP3   OH229925   5.725   2.342  16.016  0.4437  0.1218 -0.8607
 2837TIP3    H129926   5.650   2.385  16.056 -0.3734 -0.4476 -1.7385
 2837TIP3    H229927   5.790   2.337  16.085 -1.7219 -2.9560  1.2433
 2838TIP3   OH229928   3.807   0.074  14.488  0.2594  0.5977 -0.5471
 2838TIP3    H129929   3.837   0.039  14.404  1.2952 -0.1791  0.1235
 2838TIP3    H229930   3.722   0.033  14.502 -0.7574  2.0855 -2.0226
 2839TIP3   OH229931   5.216   1.194  12.728 -0.2708  0.0989 -0.0900
 2839TIP3    H129932   5.196   1.104  12.756  1.3829 -0.3625 -0.2754
 2839TIP3    H229933   5.268   1.230  12.800  0.7277  0.2234 -0.8525
 2840TIP3   OH229934   5.332   3.255  15.212 -0.1507 -0.4976 -0.0085
 2840TIP3    H129935   5.310   3.273  15.303 -2.5930 -0.0491 -0.5951
 2840TIP3    H229936   5.395   3.323  15.188  1.2773 -1.2056  1.5564
 2841TIP3   OH229937   2.600   0.797  14.932 -0.4860  0.0129 -0.3309
 2841TIP3    H129938   2.580   0.715  14.886 -0.6939  0.2219 -0.6169
 2841TIP3    H229939   2.688   0.819  14.903 -1.3119  1.1526 -2.1624
 2842TIP3   OH229940   2.017   2.082   1.657  0.1587  0.3236 -0.6652
 2842TIP3    H129941   2.036   2.175   1.668 -0.4689  0.1537  3.7054
 2842TIP3    H229942   1.924   2.075   1.679  0.4633 -1.4396  0.1660
 2843TIP3   OH229943   3.072   4.500   0.444  0.3728 -0.1880 -0.1777
 2843TIP3    H129944   2.979   4.503   0.466 -0.2552 -1.2690 -2.3712
 2843TIP3    H229945   3.106   4.584   0.473 -1.1491  0.0370  1.1278
 2844TIP3   OH229946   2.480   6.060   5.445  0.0665  0.4784 -0.2065
 2844TIP3    H129947   2.405   6.067   5.504  0.7068  0.2724  0.6596
 2844TIP3    H229948   2.518   6.148   5.444 -0.4574  0.7043 -1.0294
 2845TIP3   OH229949   0.232   6.570   4.807  0.2621  0.3689  0.4701
 2845TIP3    H129950   0.196   6.619   4.732 -0.1731 -0.7073 -0.0460
 2845TIP3    H229951   0.164   6.578   4.875 -0.5480 -0.8218 -0.1630
 2846TIP3   OH229952   0.890   1.755   0.385 -0.1682 -0.4945 -0.1008
 2846TIP3    H129953   0.919   1.746   0.294  1.4112  2.3057  0.0305
 2846TIP3    H229954   0.964   1.721   0.437  0.1400  0.4893  0.1325
 2847TIP3   OH229955   4.631   0.368   3.165  0.1165 -0.7102  0.3424
 2847TIP3    H129956   4.552   0.318   3.188  0.6994 -0.8378  2.2445
 2847TIP3    H229957   4.677   0.379   3.248  1.8135 -0.1090 -0.6372
 2848TIP3   OH229958   0.761   4.437  15.705 -0.1342 -1.3612  0.5303
 2848TIP3    H129959   0.786   4.527  15.728 -0.6295 -1.5272  1.8366
 2848TIP3    H229960   0.758   4.436  15.610  0.0349 -0.0305  0.4920
 2849TIP3   OH229961   0.643   2.253  15.630  0.2146 -0.4505  0.3100
 2849TIP3    H129962   0.733   2.229  15.610  0.1473 -0.1595 -0.3638
 2849TIP3    H229963   0.651   2.321  15.696  0.4873 -0.4682  0.2986
 2850TIP3   OH229964   6.005   3.275  14.499 -0.2333 -0.3127 -0.3107
 2850TIP3    H129965   6.023   3.347  14.560  0.8839 -1.4244  0.7276
 2850TIP3    H229966   5.956   3.316  14.428  3.4803  2.3237 -1.6759
 2851TIP3   OH229967   6.613   1.193   5.104 -0.3939  0.1545  0.5100
 2851TIP3    H129968   6.708   1.197   5.096 -0.3161 -0.7521  0.7818
 2851TIP3    H229969   6.592   1.100   5.090 -1.2200  0.3225  0.5773
 2852TIP3   OH229970   1.125   2.419   3.956 -0.3603  0.3320  0.8881
 2852TIP3    H129971   1.207   2.451   3.920 -0.1679  0.8773  1.7808
 2852TIP3    H229972   1.072   2.396   3.879 -0.3030  2.2941  0.1999
 2853TIP3   OH229973   3.844   5.945   4.636 -0.4353  0.0376  0.6583
 2853TIP3    H129974   3.835   6.029   4.681 -3.6122  0.3019 -0.2303
 2853TIP3    H229975   3.787   5.886   4.684 -0.1418 -0.9515 -0.1801
 2854TIP3   OH229976   3.156   0.759   2.115  0.1883  0.5900  0.1833
 2854TIP3    H129977   3.210   0.725   2.043  0.5085 -2.5718  1.7203
 2854TIP3    H229978   3.136   0.849   2.090  0.1155 -0.3778 -3.9082
 2855TIP3   OH229979   2.496   4.453  15.743 -0.1502  0.0022  0.7260
 2855TIP3    H129980   2.475   4.370  15.700  0.3751 -1.0034  2.3099
 2855TIP3    H229981   2.586   4.472  15.716 -1.1420  1.5775 -1.8573
 2856TIP3   OH229982   3.592   4.195   3.308 -0.1097 -0.1413 -0.3246
 2856TIP3    H129983   3.605   4.115   3.358 -2.2027 -0.5325 -0.3231
 2856TIP3    H229984   3.621   4.173   3.220 -1.1263 -1.1096 -0.4479
 2857TIP3   OH229985   5.782   1.310   4.879 -0.2043 -0.1146  0.4726
 2857TIP3    H129986   5.840   1.379   4.910  1.5548 -1.8758  1.3151
 2857TIP3    H229987   5.840   1.244   4.841 -1.6951 -1.6359  0.6778
 2858TIP3   OH229988   6.649   3.705  11.412  0.0283  0.3040  0.4088
 2858TIP3    H129989   6.640   3.731  11.504 -0.5640  1.7145 -0.0281
 2858TIP3    H229990   6.635   3.785  11.362  0.1896 -0.4675 -0.9351
 2859TIP3   OH229991   5.920   0.389   5.812 -0.0466 -0.1884 -0.0755
 2859TIP3    H129992   5.996   0.367   5.866 -1.0319  1.8559  2.3863
 2859TIP3    H229993   5.947   0.467   5.763 -0.8361  1.4528  1.9004
 2860TIP3   OH229994   4.126   4.733  14.308  0.3239  0.2668 -0.1142
 2860TIP3    H129995   4.036   4.750  14.337  0.1583  0.2595 -0.6117
 2860TIP3    H229996   4.151   4.653  14.354 -0.0062  0.1467 -0.1385
 2861TIP3   OH229997   5.699   6.238   0.308  0.2540 -0.3268  0.0527
 2861TIP3    H129998   5.651   6.319   0.290 -0.9511 -1.0251  0.0492
 2861TIP3    H229999   5.685   6.222   0.401  1.2976 -0.0443  0.2803
 2862TIP3   OH230000   6.204   4.304  15.168 -0.9702 -0.3753  0.0437
 2862TIP3    H130001   6.127   4.305  15.225 -1.0682 -1.5486 -0.0412
 2862TIP3    H230002   6.225   4.211  15.159 -0.8577 -0.2027 -1.6955
 2863TIP3   OH230003   1.414   6.279  12.375  0.5972  0.1248 -0.5100
 2863TIP3    H130004   1.503   6.279  12.340  1.6250 -0.6544  1.8661
 2863TIP3    H230005   1.396   6.187  12.395 -0.3465  0.3925 -0.0490
 2864TIP3   OH230006   2.727   4.518   0.902  0.3131  0.1616 -0.3877
 2864TIP3    H130007   2.792   4.482   0.962  1.0264 -0.8085 -1.6884
 2864TIP3    H230008   2.713   4.449   0.837 -1.8434  0.4445 -0.2852
 2865TIP3   OH230009   2.425   6.683   3.595 -1.0733 -0.2449 -0.0062
 2865TIP3    H130010   2.462   6.638   3.519 -2.0770 -1.5365  0.2402
 2865TIP3    H230011   2.408   6.614   3.659 -0.7977  0.7394  1.1881
 2866TIP3   OH230012   2.648   3.198   1.279  0.1922  0.3336  0.2462
 2866TIP3    H130013   2.578   3.238   1.227 -0.0062 -0.2295  0.0781
 2866TIP3    H230014   2.709   3.164   1.214 -0.0981 -0.4476  0.3731
 2867TIP3   OH230015   2.068   2.450  15.070  0.0092  0.7849 -0.0612
 2867TIP3    H130016   2.009   2.388  15.026  0.4459 -0.0532  0.5043
 2867TIP3    H230017   2.050   2.534  15.028 -0.9865  0.3826 -0.4766
 2868TIP3   OH230018   2.528   4.475  16.411  0.3844 -0.2643  0.2585
 2868TIP3    H130019   2.606   4.477  16.356 -1.7420  0.5014 -3.0903
 2868TIP3    H230020   2.510   4.567  16.431  0.2110 -0.4057  0.7568
 2869TIP3   OH230021   4.975   6.290   0.888 -0.5128 -0.5714  0.0173
 2869TIP3    H130022   4.967   6.384   0.903  0.4385 -0.3542 -0.7340
 2869TIP3    H230023   5.007   6.283   0.798  1.4460 -1.5361  0.7390
 2870TIP3   OH230024   3.240   6.354  15.383  0.3796  0.4998  0.0769
 2870TIP3    H130025   3.148   6.378  15.374 -0.0350 -1.1059 -0.1971
 2870TIP3    H230026   3.288   6.424  15.337 -0.8050  0.4246 -1.3401
 2871TIP3   OH230027   0.601   2.038  15.908 -0.5774 -0.3482  0.0545
 2871TIP3    H130028   0.664   2.048  15.837 -0.5965  1.7174  0.2567
 2871TIP3    H230029   0.626   1.957  15.952  0.6600 -0.6151 -1.0750
 2872TIP3   OH230030   2.299   5.321  15.376  1.0897  0.4104 -0.5157
 2872TIP3    H130031   2.266   5.365  15.454  1.3695  1.0350 -0.7473
 2872TIP3    H230032   2.244   5.353  15.305  0.7284 -0.2828 -0.5563
 2873TIP3   OH230033   0.995   5.765   3.913  0.6262 -0.8608  0.5841
 2873TIP3    H130034   1.078   5.811   3.907  0.9776 -1.4107  1.1597
 2873TIP3    H230035   0.984   5.747   4.006 -0.1628 -0.7538  0.5181
 2874TIP3   OH230036   2.286   2.248  11.390 -0.0777 -1.0442  0.6896
 2874TIP3    H130037   2.364   2.215  11.434  0.3821 -0.1944  0.5277
 2874TIP3    H230038   2.262   2.327  11.438 -1.4132 -1.8013  1.3309
 2875TIP3   OH230039   1.719   5.811   5.206 -0.5533  0.4916 -0.1450
 2875TIP3    H130040   1.690   5.847   5.290 -1.1179 -2.7497  1.2377
 2875TIP3    H230041   1.640   5.773   5.168  0.2108 -0.5408 -0.7564
 2876TIP3   OH230042   4.133   0.116  12.120 -0.0626 -0.0809  0.1888
 2876TIP3    H130043   4.128   0.107  12.215 -1.0654 -2.5368 -0.0236
 2876TIP3    H230044   4.220   0.084  12.097  0.0461  0.1786  0.2291
 2877TIP3   OH230045   3.537   1.044  11.554 -0.0670  0.3801 -0.3462
 2877TIP3    H130046   3.559   1.134  11.578 -1.5597  0.3699  1.2293
 2877TIP3    H230047   3.454   1.027  11.598  0.3723 -1.8995 -0.2907
 2878TIP3   OH230048   2.286   4.038   2.582 -0.3119 -0.3075 -1.1581
 2878TIP3    H130049   2.204   4.085   2.568 -0.0092  0.3003 -0.9613
 2878TIP3    H230050   2.262   3.946   2.580 -0.9043 -0.1485 -1.6685
 2879TIP3   OH230051   1.564   4.097   6.086 -0.0666  0.3233 -0.1452
 2879TIP3    H130052   1.510   4.072   6.161  0.6564 -1.2535 -0.1156
 2879TIP3    H230053   1.515   4.068   6.010 -1.2696  2.8056 -0.4061
 2880TIP3   OH230054   3.888   4.336  12.760 -0.6885 -0.1132 -0.7584
 2880TIP3    H130055   3.836   4.410  12.729 -0.5004  1.0571  1.5082
 2880TIP3    H230056   3.976   4.372  12.773 -0.7986 -0.4440  1.2244
 2881TIP3   OH230057   2.346   5.247   5.723  0.6059 -0.0048  0.2222
 2881TIP3    H130058   2.255   5.277   5.725  0.9128  0.9187  1.5523
 2881TIP3    H230059   2.396   5.319   5.760  1.8382 -0.6781 -0.0809
 2882TIP3   OH230060   6.043   1.151  11.357  0.1856 -1.1608 -0.0994
 2882TIP3    H130061   6.124   1.134  11.406  1.1616  0.7463 -0.9643
 2882TIP3    H230062   5.989   1.201  11.417  1.6013  1.6566 -1.0066
 2883TIP3   OH230063   4.819   1.738   4.422 -0.7187  0.4654  0.4932
 2883TIP3    H130064   4.854   1.702   4.503  0.2136  1.0377  0.3667
 2883TIP3    H230065   4.798   1.662   4.368  1.0712  0.0766  0.2808
 2884TIP3   OH230066   2.596   6.634   4.483  0.3163 -0.4538  0.8127
 2884TIP3    H130067   2.673   6.583   4.456  2.2315  1.8999  1.4842
 2884TIP3    H230068   2.589   6.617   4.577 -0.0643 -0.7364  0.7354
 2885TIP3   OH230069   1.617   2.396   2.539 -0.1985  0.3273 -0.3078
 2885TIP3    H130070   1.630   2.429   2.628 -0.8777  0.2190 -0.1588
 2885TIP3    H230071   1.704   2.399   2.499  0.0014  0.9578  0.1592
 2886TIP3   OH230072   5.736   6.711   0.463  0.4882 -0.3500 -0.5508
 2886TIP3    H130073   5.806   6.701   0.398  0.6772  0.4083 -0.4765
 2886TIP3    H230074   5.776   6.763   0.533  0.3614 -1.3763  0.3025
 2887TIP3   OH230075   3.800   6.271  11.423 -0.7756  0.2636  0.0041
 2887TIP3    H130076   3.759   6.185  11.421  0.5422 -0.4934  2.3580
 2887TIP3    H230077   3.887   6.257  11.387 -0.0950  0.2762  1.5616
 2888TIP3   OH230078   4.521   0.262   0.670 -0.5705 -0.7864 -0.1867
 2888TIP3    H130079   4.574   0.342   0.677 -0.2727 -0.9757 -0.2439
 2888TIP3    H230080   4.514   0.246   0.576 -0.8307 -0.6960 -0.1824
 2889TIP3   OH230081   3.140   6.089   2.759  0.2510 -0.3061 -0.1851
 2889TIP3    H130082   3.214   6.114   2.703  0.6703  2.6517  1.4649
 2889TIP3    H230083   3.178   6.080   2.846 -1.2529  1.1720  0.6841
 2890TIP3   OH230084   0.791   2.728  13.804 -0.4742 -0.2963  0.4835
 2890TIP3    H130085   0.834   2.800  13.757 -1.3926 -0.8869 -1.3566
 2890TIP3    H230086   0.857   2.660  13.810  0.4536  0.6781  2.3739
 2891TIP3   OH230087   5.670   4.400   2.186 -0.2603 -0.1689 -0.6754
 2891TIP3    H130088   5.642   4.366   2.270  1.1767  0.5997  0.1519
 2891TIP3    H230089   5.632   4.340   2.122  0.8553 -2.3946  0.6387
 2892TIP3   OH230090   3.878   3.364   5.145 -0.0850 -0.0326  0.1409
 2892TIP3    H130091   3.803   3.308   5.162 -0.6259  0.3793 -0.7916
 2892TIP3    H230092   3.933   3.314   5.085  0.2578 -0.2257  0.6114
 2893TIP3   OH230093   2.408   3.062   1.556 -0.7171 -0.1546 -0.4416
 2893TIP3    H130094   2.503   3.059   1.549 -0.7051 -1.6490  0.1537
 2893TIP3    H230095   2.383   3.139   1.504  0.8090  0.3435 -0.4914
 2894TIP3   OH230096   5.586   1.871  15.802 -0.1493 -0.0345  0.2972
 2894TIP3    H130097   5.635   1.801  15.845 -0.0166  0.9867  1.8989
 2894TIP3    H230098   5.577   1.939  15.870  0.0427  1.6521 -1.2944
 2895TIP3   OH230099   5.135   3.955  15.041  0.3110  0.0760 -0.0999
 2895TIP3    H130100   5.054   4.005  15.033  0.8610  0.9652 -0.2225
 2895TIP3    H230101   5.126   3.908  15.124 -0.0634  0.6559  0.1913
 2896TIP3   OH230102   3.564   2.326  14.762 -0.2925 -0.1459 -0.4339
 2896TIP3    H130103   3.559   2.313  14.668 -0.5765 -1.8493 -0.2140
 2896TIP3    H230104   3.540   2.418  14.775 -0.4363  0.0608 -1.9934
 2897TIP3   OH230105   3.630   0.343   4.727 -0.4415 -0.2332 -0.0768
 2897TIP3    H130106   3.675   0.428   4.730  1.8672 -1.3781  1.8375
 2897TIP3    H230107   3.641   0.313   4.637  0.6721  0.5761 -0.2333
 2898TIP3   OH230108   2.296   3.656  13.127  0.0810 -0.1253 -0.0261
 2898TIP3    H130109   2.226   3.598  13.156  0.3889 -0.0706  0.8655
 2898TIP3    H230110   2.304   3.721  13.197  0.2841  0.5170 -0.6338
 2899TIP3   OH230111   0.504   6.136  12.293  0.7070  0.1903  0.2560
 2899TIP3    H130112   0.574   6.074  12.272 -0.0361 -0.7525  0.4903
 2899TIP3    H230113   0.541   6.192  12.361  1.1614 -0.4438  0.5384
 2900TIP3   OH230114   3.801   0.666  16.101  0.5250  1.2467  0.0565
 2900TIP3    H130115   3.748   0.596  16.141  1.4224 -1.5549 -3.1530
 2900TIP3    H230116   3.832   0.717  16.175 -2.7533  0.2174  2.4131
 2901TIP3   OH230117   4.622   4.442   5.372  0.0314 -0.7538 -0.1642
 2901TIP3    H130118   4.591   4.453   5.282  1.1674 -0.4844 -0.5374
 2901TIP3    H230119   4.702   4.390   5.364 -0.1863 -1.2423  0.7484
 2902TIP3   OH230120   1.708   3.249   1.607  0.7109 -0.2653  0.1024
 2902TIP3    H130121   1.738   3.192   1.678  1.2185 -0.3548 -0.1762
 2902TIP3    H230122   1.692   3.190   1.534 -0.7083 -0.2907  0.4037
 2903TIP3   OH230123   6.528   4.738   3.451 -0.1639  0.4677  0.4179
 2903TIP3    H130124   6.439   4.704   3.454  0.1950 -0.4815  0.3927
 2903TIP3    H230125   6.517   4.831   3.431 -1.0217 -0.2107 -2.7739
 2904TIP3   OH230126   5.436   3.447  14.026 -0.3602  0.1244 -0.1310
 2904TIP3    H130127   5.520   3.402  14.027  0.4978  1.4923 -2.6049
 2904TIP3    H230128   5.375   3.384  13.988 -0.3241 -0.6151  0.9920
 2905TIP3   OH230129   1.788   5.954  12.841 -0.1821  0.2005  0.1785
 2905TIP3    H130130   1.842   5.994  12.773 -0.3761 -0.0640 -0.1316
 2905TIP3    H230131   1.816   5.862  12.843 -0.1435  0.2184  0.4894
 2906TIP3   OH230132   2.226   6.579   5.410 -0.1920 -0.4455 -0.2507
 2906TIP3    H130133   2.226   6.491   5.448  3.5430 -0.1583  0.7933
 2906TIP3    H230134   2.250   6.565   5.318  0.9116 -0.5271  0.0374
 2907TIP3   OH230135   0.539   3.031   4.538  0.1083  0.2044  0.1171
 2907TIP3    H130136   0.599   3.000   4.470  0.8084 -0.1533  0.8970
 2907TIP3    H230137   0.564   2.983   4.617 -0.7582  0.5516  0.6186
 2908TIP3   OH230138   4.273   2.201  12.543 -0.1443  0.8089  0.0248
 2908TIP3    H130139   4.230   2.131  12.494  1.2043  0.2686 -0.4390
 2908TIP3    H230140   4.349   2.224  12.490  0.4751  1.3072  1.0914
 2909TIP3   OH230141   4.512   3.887   4.058 -0.3262 -0.2452 -0.1089
 2909TIP3    H130142   4.481   3.797   4.068  0.9101 -0.6617  0.2753
 2909TIP3    H230143   4.433   3.941   4.062 -1.0599 -1.2940 -0.0582
 2910TIP3   OH230144   4.779   0.978   0.114 -0.2697  0.5261  0.2552
 2910TIP3    H130145   4.820   0.904   0.159 -2.1246 -0.2651  0.7130
 2910TIP3    H230146   4.718   0.939   0.052 -1.4845  1.6553  0.6825
 2911TIP3   OH230147   3.818   2.879   4.640  0.2410  0.5817  0.5060
 2911TIP3    H130148   3.800   2.922   4.556 -0.8770  0.5393  0.7133
 2911TIP3    H230149   3.733   2.869   4.681  0.2439 -2.7785  0.0181
 2912TIP3   OH230150   4.538   2.927  15.973  0.4423 -0.9744  0.2304
 2912TIP3    H130151   4.453   2.905  16.010  0.2877  1.0358  1.1733
 2912TIP3    H230152   4.518   2.957  15.884  0.2475 -1.2009  0.1980
 2913TIP3   OH230153   3.518   0.619   5.651  0.1155  0.5349 -0.1753
 2913TIP3    H130154   3.608   0.640   5.674 -0.5310  2.2777  1.0357
 2913TIP3    H230155   3.511   0.638   5.558  0.7255  1.4631 -0.0388
 2914TIP3   OH230156   3.636   1.063  14.508 -0.1467  0.2156  0.0953
 2914TIP3    H130157   3.685   1.143  14.488 -1.2418  1.0460  0.6059
 2914TIP3    H230158   3.678   1.029  14.587 -0.7737  1.3014  0.9337
 2915TIP3   OH230159   6.387   1.523   2.919  0.1798  0.2189  0.2115
 2915TIP3    H130160   6.334   1.545   2.842  0.0475  0.8280  0.4742
 2915TIP3    H230161   6.465   1.481   2.883 -1.1026 -2.0209 -0.1146
 2916TIP3   OH230162   5.716   3.618   0.621 -0.1505  0.0219  0.3171
 2916TIP3    H130163   5.650   3.586   0.683 -1.8703 -0.2746 -1.5503
 2916TIP3    H230164   5.667   3.675   0.561  1.3458 -0.0143 -1.0192
 2917TIP3   OH230165   0.736   6.120   0.842  0.3944 -0.5007 -0.0337
 2917TIP3    H130166   0.697   6.102   0.927 -1.0654  0.0855 -0.5443
 2917TIP3    H230167   0.749   6.215   0.841  1.9416 -0.6861  0.1439
 2918TIP3   OH230168   2.214   2.932  11.940 -0.1537  0.2815  0.3345
 2918TIP3    H130169   2.264   2.853  11.920 -1.0223 -0.5166  1.2373
 2918TIP3    H230170   2.122   2.904  11.936 -0.4997  1.4283 -0.0678
 2919TIP3   OH230171   5.367   6.103  15.392  0.6399 -0.0310 -0.0307
 2919TIP3    H130172   5.443   6.084  15.446  1.8283 -0.2864 -1.6909
 2919TIP3    H230173   5.392   6.181  15.343  0.0972 -0.4783 -1.0545
 2920TIP3   OH230174   2.848   2.138   4.720  0.3418 -0.4941  0.1459
 2920TIP3    H130175   2.757   2.123   4.743  0.3172  0.5479  0.8466
 2920TIP3    H230176   2.895   2.063   4.755 -0.1454 -0.6129  0.5467
 2921TIP3   OH230177   2.363   5.298   6.170  0.0232  0.5367  0.7932
 2921TIP3    H130178   2.382   5.357   6.244  0.8007 -0.4847  1.4418
 2921TIP3    H230179   2.270   5.308   6.155  0.1069  1.8060  1.0005
 2922TIP3   OH230180   2.350   1.535  12.504 -0.1191  0.2829  0.0590
 2922TIP3    H130181   2.330   1.473  12.575  1.2740 -0.3342 -0.0674
 2922TIP3    H230182   2.348   1.621  12.547  0.7636 -0.0874  0.8712
 2923TIP3   OH230183   4.836   3.214   4.184  0.0472 -0.4013 -0.5604
 2923TIP3    H130184   4.834   3.242   4.092 -0.6803 -1.1774 -0.7937
 2923TIP3    H230185   4.756   3.163   4.195  0.4506 -0.8563  0.3377
 2924TIP3   OH230186   5.216   0.236  15.705 -0.0794 -0.1689  0.2186
 2924TIP3    H130187   5.260   0.320  15.693 -1.3974  0.5723  0.4957
 2924TIP3    H230188   5.129   0.248  15.668  0.1205 -1.8300 -0.9475
 2925TIP3   OH230189   0.639   0.648  11.488 -0.0767 -0.2811  0.6027
 2925TIP3    H130190   0.643   0.563  11.531  0.0346 -1.5242 -1.6978
 2925TIP3    H230191   0.709   0.646  11.424 -0.7489  1.1253 -0.2385
 2926TIP3   OH230192   0.807   2.648   0.617  0.2367  0.4393 -0.0421
 2926TIP3    H130193   0.846   2.577   0.567 -0.9801  1.4515 -2.6168
 2926TIP3    H230194   0.766   2.605   0.693  0.8803 -1.3749 -0.6878
 2927TIP3   OH230195   4.051   1.823  11.222  0.0165  0.0062 -0.4683
 2927TIP3    H130196   4.055   1.739  11.266  2.0791  0.1236 -0.3515
 2927TIP3    H230197   3.969   1.862  11.252 -1.0490 -1.9845 -0.6379
 2928TIP3   OH230198   5.761   1.725  16.582  0.0082  0.0228 -0.5605
 2928TIP3    H130199   5.784   1.672  16.658 -0.8217  0.3062 -0.1056
 2928TIP3    H230200   5.693   1.676  16.538 -0.5821  0.5777 -0.2781
 2929TIP3   OH230201   1.032   0.280   0.758  0.1138 -0.1408 -0.3263
 2929TIP3    H130202   1.102   0.215   0.749 -0.3997 -0.7659  0.0818
 2929TIP3    H230203   0.955   0.238   0.719 -0.2451  0.1768  0.0251
 2930TIP3   OH230204   4.616   4.401  14.734  0.1125  0.0287  0.0848
 2930TIP3    H130205   4.677   4.349  14.681 -0.5524  1.5588 -2.3520
 2930TIP3    H230206   4.554   4.437  14.670 -2.3196 -0.0245  2.2361
 2931TIP3   OH230207   0.062   5.689  15.788  0.0580  0.4169 -0.1566
 2931TIP3    H130208   0.008   5.611  15.783 -0.9583  0.9521  1.6650
 2931TIP3    H230209   0.152   5.656  15.785 -0.3174 -0.9938  1.9941
 2932TIP3   OH230210   4.651   2.780   5.286  0.2349  0.3565 -0.6617
 2932TIP3    H130211   4.652   2.810   5.377  1.2738  0.8991 -0.8461
 2932TIP3    H230212   4.735   2.735   5.274 -0.4700 -0.9541 -0.9602
 2933TIP3   OH230213   1.651   1.806  11.884  0.2608 -0.1610 -0.1836
 2933TIP3    H130214   1.738   1.805  11.925  0.3578 -0.5750 -0.3883
 2933TIP3    H230215   1.622   1.896  11.892  1.7676  0.5898 -2.2823
 2934TIP3   OH230216   5.741   6.466  13.257  0.1347  0.2962 -0.0721
 2934TIP3    H130217   5.799   6.391  13.269  0.0017  0.0785 -0.7189
 2934TIP3    H230218   5.737   6.478  13.162  0.3043  1.2439  0.0253
 2935TIP3   OH230219   5.772   3.029  12.626  0.0050  0.0747  0.0211
 2935TIP3    H130220   5.728   2.954  12.666  0.9622  0.0699  1.1060
 2935TIP3    H230221   5.716   3.052  12.552 -0.9226 -0.9752  0.3589
 2936TIP3   OH230222   2.214   3.695   3.850  0.2465 -0.0494 -0.0647
 2936TIP3    H130223   2.246   3.768   3.904 -0.1383 -1.1556  1.7435
 2936TIP3    H230224   2.253   3.710   3.764  2.8035  0.5528  1.1047
 2937TIP3   OH230225   3.237   4.096   6.188 -0.0711  0.1939  0.1441
 2937TIP3    H130226   3.292   4.174   6.194 -0.4097  0.4241  0.3269
 2937TIP3    H230227   3.289   4.027   6.229  2.2077 -0.8493 -3.9565
 2938TIP3   OH230228   2.688   0.916   3.171  0.6248 -0.1796  0.4150
 2938TIP3    H130229   2.641   0.971   3.234  1.6506 -2.0224  2.9330
 2938TIP3    H230230   2.623   0.851   3.143  1.1080 -1.7235  2.6434
 2939TIP3   OH230231   5.451   4.396   1.205 -0.1577 -0.2292 -0.4572
 2939TIP3    H130232   5.538   4.412   1.169  0.6181 -1.6410  0.6958
 2939TIP3    H230233   5.417   4.484   1.224  0.2186  0.4337 -2.6433
 2940TIP3   OH230234   6.186   4.749   1.936 -0.5657 -0.1807 -0.5015
 2940TIP3    H130235   6.105   4.797   1.954 -1.6263 -0.9874 -2.7097
 2940TIP3    H230236   6.158   4.657   1.929  0.2336 -0.3113 -2.7233
 2941TIP3   OH230237   5.052   5.448  11.872  0.0043 -0.2008  0.3312
 2941TIP3    H130238   5.001   5.450  11.791  2.5448  0.3729 -1.3878
 2941TIP3    H230239   5.031   5.530  11.916  0.0659  0.4122 -0.7554
 2942TIP3   OH230240   4.585   4.562  13.023  0.8852  0.5797  0.3799
 2942TIP3    H130241   4.664   4.611  12.999  1.1164 -0.5291 -1.3352
 2942TIP3    H230242   4.566   4.508  12.946 -0.9545  0.0432  1.1515
 2943TIP3   OH230243   3.022   3.769   5.449  0.2063 -0.3205 -0.4012
 2943TIP3    H130244   3.009   3.862   5.431  0.9486 -0.5365 -2.2473
 2943TIP3    H230245   3.093   3.767   5.513  0.9865  0.3684 -1.2216
 2944TIP3   OH230246   6.713   2.927   0.057  0.1586 -0.3655 -0.8378
 2944TIP3    H130247   6.693   3.015   0.090 -0.1373 -0.1019 -1.6815
 2944TIP3    H230248   6.728   2.875   0.136 -1.9245 -0.1057 -0.1812
 2945TIP3   OH230249   1.256   1.049   2.249 -0.7496 -0.0160 -0.2963
 2945TIP3    H130250   1.225   1.067   2.338  0.3097  0.3672  0.0046
 2945TIP3    H230251   1.220   0.963   2.228 -1.3756  0.0867  0.3240
 2946TIP3   OH230252   6.384   5.199   4.974 -0.3510 -0.3433 -0.2910
 2946TIP3    H130253   6.406   5.149   5.052 -0.7605  1.1099  0.8086
 2946TIP3    H230254   6.388   5.290   5.002 -1.1966  0.1957 -1.7890
 2947TIP3   OH230255   4.238   6.610   2.542  0.2159  0.1094 -0.4570
 2947TIP3    H130256   4.329   6.624   2.515 -0.1887 -1.4831 -2.9895
 2947TIP3    H230257   4.236   6.519   2.572 -0.5812  0.0902 -0.5580
 2948TIP3   OH230258   6.174   1.796  14.839  0.7014 -0.2355 -0.2286
 2948TIP3    H130259   6.119   1.874  14.842 -0.3370 -0.8797 -1.2261
 2948TIP3    H230260   6.162   1.755  14.925  0.4243  0.1637 -0.0716
 2949TIP3   OH230261   0.302   2.632  15.980  0.4104 -0.0322 -0.4974
 2949TIP3    H130262   0.299   2.727  15.965  2.1488 -0.2079 -2.2860
 2949TIP3    H230263   0.371   2.620  16.045  0.0708 -0.0921 -0.1383
 2950TIP3   OH230264   1.414   5.446   5.252 -1.5038 -0.2516  0.3231
 2950TIP3    H130265   1.389   5.392   5.327 -2.8853  0.1543  0.1691
 2950TIP3    H230266   1.382   5.533   5.274 -0.8345  0.1327 -0.2113
 2951TIP3   OH230267   2.549   6.288  17.168  0.0865 -0.5352  0.0707
 2951TIP3    H130268   2.497   6.213  17.136 -1.2061  0.3282  0.0471
 2951TIP3    H230269   2.536   6.287  17.262 -0.6575  0.1638 -0.0195
 2952TIP3   OH230270   1.195   2.425  13.953 -0.0243 -0.0863 -0.0418
 2952TIP3    H130271   1.177   2.427  13.859 -0.9000  2.1401  0.0909
 2952TIP3    H230272   1.281   2.384  13.961  0.0748 -0.2848 -1.8115
 2953TIP3   OH230273   1.714   3.729  13.028 -0.6467  0.2621  0.3945
 2953TIP3    H130274   1.755   3.812  13.004  0.2909 -0.2019  0.3440
 2953TIP3    H230275   1.667   3.749  13.109  0.9076  0.4720  1.2836
 2954TIP3   OH230276   2.180   1.805   4.115  0.0663  0.0469  0.5854
 2954TIP3    H130277   2.125   1.729   4.098 -0.2602  0.7051 -1.6032
 2954TIP3    H230278   2.244   1.775   4.179 -1.0314 -1.5823  0.9681
 2955TIP3   OH230279   0.368   5.912  16.268  0.0445  0.2317  0.0090
 2955TIP3    H130280   0.414   5.849  16.213 -0.8571 -0.2824 -0.1943
 2955TIP3    H230281   0.434   5.977  16.292  0.3389  0.8161 -2.1593
 2956TIP3   OH230282   5.342   0.562  12.711  0.0686 -0.5852 -0.0555
 2956TIP3    H130283   5.295   0.502  12.653  1.2534 -1.0733 -0.5386
 2956TIP3    H230284   5.284   0.638  12.720 -0.5511 -0.9222 -1.1016
 2957TIP3   OH230285   6.106   2.556  13.875 -0.0799 -0.3970 -0.5056
 2957TIP3    H130286   6.149   2.628  13.829 -0.3544  1.5197  1.9857
 2957TIP3    H230287   6.177   2.507  13.916  0.0034  0.1648  0.0474
 2958TIP3   OH230288   2.023   0.332  11.409  0.3728 -1.0474  0.4818
 2958TIP3    H130289   2.058   0.301  11.493  0.5364  0.0032  0.8075
 2958TIP3    H230290   2.071   0.412  11.391 -1.2400 -0.0428  0.5086
 2959TIP3   OH230291   5.264   3.043  14.519 -0.7066  0.5052 -0.0097
 2959TIP3    H130292   5.358   3.044  14.537 -0.6515  0.0716 -0.2360
 2959TIP3    H230293   5.223   3.080  14.597 -0.3608  0.4692  0.1890
 2960TIP3   OH230294   6.321   3.615   5.833  0.3725 -0.0171  0.2581
 2960TIP3    H130295   6.305   3.622   5.928  1.1134  2.9984  0.2802
 2960TIP3    H230296   6.415   3.597   5.827  0.4670  0.4990  0.1238
 2961TIP3   OH230297   0.274   0.163  13.413 -0.4488 -0.1802 -0.2410
 2961TIP3    H130298   0.263   0.148  13.507 -0.6253  1.2683 -0.0137
 2961TIP3    H230299   0.349   0.109  13.389  0.3171  0.3133  0.9708
 2962TIP3   OH230300   5.367   5.572   0.722 -0.2229  0.0726 -0.2336
 2962TIP3    H130301   5.441   5.535   0.771 -1.1148 -0.0036  1.1007
 2962TIP3    H230302   5.299   5.505   0.727 -2.2425  2.0309  3.0570
 2963TIP3   OH230303   5.693   6.395  15.226  0.1358  0.6801 -0.4403
 2963TIP3    H130304   5.656   6.310  15.249 -0.0601  0.8507 -0.1204
 2963TIP3    H230305   5.676   6.403  15.132  0.9193 -0.0051 -0.6530
 2964TIP3   OH230306   0.262   2.038  13.303  0.4394 -0.0404 -0.3337
 2964TIP3    H130307   0.317   1.963  13.278 -0.2642 -0.2067 -1.4785
 2964TIP3    H230308   0.299   2.069  13.385  0.4679 -1.9478  0.4316
 2965TIP3   OH230309   6.382   0.702  11.126 -0.0094  0.1384  0.0704
 2965TIP3    H130310   6.429   0.778  11.090  1.3344 -0.7053 -0.0270
 2965TIP3    H230311   6.387   0.636  11.058  1.2249 -0.9585  1.1813
 2966TIP3   OH230312   1.509   2.486  16.802  0.0082  0.0541 -0.2333
 2966TIP3    H130313   1.457   2.407  16.792 -1.4532  1.1941 -2.5796
 2966TIP3    H230314   1.451   2.557  16.773  1.5496  1.8950  0.9192
 2967TIP3   OH230315   5.387   5.191   1.114  0.0086  0.2618 -0.3967
 2967TIP3    H130316   5.428   5.237   1.186 -1.4486 -0.3211  0.8562
 2967TIP3    H230317   5.456   5.136   1.078  0.6182  0.1139  0.9436
 2968TIP3   OH230318   5.341   1.224  15.487 -0.6727 -0.2897 -0.1194
 2968TIP3    H130319   5.429   1.213  15.523 -0.3472  0.7178 -0.5881
 2968TIP3    H230320   5.289   1.256  15.561 -0.3603  0.3038 -0.1569
 2969TIP3   OH230321   6.103   3.136  11.705  0.3710  0.6863 -0.1998
 2969TIP3    H130322   6.096   3.115  11.612  0.3555  1.3488 -0.3517
 2969TIP3    H230323   6.016   3.121  11.740  0.4650  0.0888 -0.2171
 2970TIP3   OH230324   4.445   5.682  14.082  0.8798  0.1825 -0.3681
 2970TIP3    H130325   4.381   5.680  14.011  0.8131 -1.6302 -0.2837
 2970TIP3    H230326   4.420   5.758  14.134  0.7396  1.3704 -2.0767
 2971TIP3   OH230327   4.093   1.234  16.703  0.1030 -0.7013 -0.2587
 2971TIP3    H130328   4.003   1.230  16.672  0.2037  1.3080 -0.9696
 2971TIP3    H230329   4.104   1.325  16.731  1.4487 -1.3025  1.2998
 2972TIP3   OH230330   5.009   6.134  14.444  0.0242 -0.9890 -0.0752
 2972TIP3    H130331   4.914   6.128  14.439 -0.3345  2.0795  1.0242
 2972TIP3    H230332   5.026   6.169  14.531  2.2354 -1.9481 -0.0590
 2973TIP3   OH230333   2.719   4.407   5.566  0.0804  0.2219  0.0193
 2973TIP3    H130334   2.796   4.421   5.621  0.4240  1.7893 -0.8123
 2973TIP3    H230335   2.739   4.454   5.485 -1.7105  0.5505 -0.2649
 2974TIP3   OH230336   2.499   6.427  14.916  0.4504 -0.1995  0.3790
 2974TIP3    H130337   2.521   6.370  14.842  0.0322  1.0799 -0.7861
 2974TIP3    H230338   2.457   6.369  14.979 -1.2942 -0.9740 -1.3780
 2975TIP3   OH230339   4.361   1.808   1.558  0.0581 -0.6024 -0.2938
 2975TIP3    H130340   4.317   1.879   1.510 -1.8452 -2.4035 -1.3943
 2975TIP3    H230341   4.301   1.733   1.550  2.3558 -2.6073  0.0341
 2976TIP3   OH230342   5.190   3.666   1.771 -0.1124 -0.7372  0.0756
 2976TIP3    H130343   5.264   3.724   1.790  0.2602 -1.6555  1.5344
 2976TIP3    H230344   5.155   3.699   1.688  1.0043  0.6392  0.1139
 2977TIP3   OH230345   4.043   5.115  11.754  0.1633  0.6233 -0.3613
 2977TIP3    H130346   4.020   5.201  11.720 -1.2155  0.3694 -0.1043
 2977TIP3    H230347   4.130   5.128  11.793 -0.1491  1.9684 -0.0552
 2978TIP3   OH230348   3.019   1.898  16.502 -0.2054 -0.1521  0.5823
 2978TIP3    H130349   2.925   1.911  16.508 -0.3724 -0.4532 -0.9122
 2978TIP3    H230350   3.051   1.912  16.591 -1.8016 -1.2679  1.3817
 2979TIP3   OH230351   3.427   5.058   4.913 -0.4242  0.2647 -0.0775
 2979TIP3    H130352   3.522   5.048   4.917 -0.7400 -4.5475  2.4757
 2979TIP3    H230353   3.405   5.046   4.820  1.3478  0.0780 -0.4974
 2980TIP3   OH230354   0.542   2.821  12.423  0.6938  0.2033 -0.0809
 2980TIP3    H130355   0.513   2.899  12.470  0.5663 -0.2450  0.6003
 2980TIP3    H230356   0.555   2.756  12.492 -0.6683 -0.8442 -0.7690
 2981TIP3   OH230357   1.345   1.619   6.670 -0.0271 -0.3744  0.7906
 2981TIP3    H130358   1.343   1.564   6.749  0.1313 -1.3534  0.1370
 2981TIP3    H230359   1.373   1.559   6.601  2.3838  1.0165  0.4463
 2982TIP3   OH230360   5.964   5.118   2.198 -0.3558 -0.0965  0.3393
 2982TIP3    H130361   6.012   5.163   2.129  0.0035 -2.0980 -0.7855
 2982TIP3    H230362   6.030   5.099   2.265 -0.1277 -0.5084  0.0012
 2983TIP3   OH230363   0.178   4.430  13.870 -0.2131  0.7562  0.1636
 2983TIP3    H130364   0.100   4.473  13.836 -0.2741  0.5431  0.0296
 2983TIP3    H230365   0.151   4.339  13.884 -0.1310  0.7935  0.5915
 2984TIP3   OH230366   6.552   0.947   0.169  0.3507 -0.3308  0.0293
 2984TIP3    H130367   6.632   0.895   0.176 -0.5818 -1.6922  1.2057
 2984TIP3    H230368   6.504   0.908   0.096 -0.7695 -1.8354  1.4802
 2985TIP3   OH230369   0.860   0.580  15.726 -0.2639 -0.3708 -0.0824
 2985TIP3    H130370   0.852   0.675  15.736  0.1400 -0.3475  0.0514
 2985TIP3    H230371   0.954   0.564  15.730 -0.3975 -0.9311  1.3687
 2986TIP3   OH230372   5.516   1.105   4.144  0.1396 -0.1744 -0.3249
 2986TIP3    H130373   5.483   1.173   4.203 -0.9545 -0.4697 -0.5690
 2986TIP3    H230374   5.457   1.031   4.158  1.2212 -1.0236 -0.1814
 2987TIP3   OH230375   4.201   2.094   5.339 -0.0994  0.5788  0.2018
 2987TIP3    H130376   4.210   2.120   5.247  0.2030  1.2283  0.4040
 2987TIP3    H230377   4.274   2.138   5.383 -0.8066  1.0639  0.9143
 2988TIP3   OH230378   5.953   5.055   5.864 -0.0561  0.3114  0.2066
 2988TIP3    H130379   6.033   5.063   5.916 -0.0367  0.1919  0.1945
 2988TIP3    H230380   5.904   5.134   5.885 -0.5741 -0.2800  1.3193
 2989TIP3   OH230381   4.353   5.486   0.369 -0.0369  0.1211 -0.2027
 2989TIP3    H130382   4.347   5.493   0.464 -0.7983 -1.3026 -0.1298
 2989TIP3    H230383   4.430   5.539   0.347  2.2221 -2.1762  1.5662
 2990TIP3   OH230384   6.478   4.625  15.484 -0.0188  0.9028  0.1623
 2990TIP3    H130385   6.476   4.589  15.573 -1.5904  1.3180  0.3345
 2990TIP3    H230386   6.569   4.617  15.457  0.3314 -0.0224  1.4837
 2991TIP3   OH230387   0.161   6.638   2.722  0.3655  0.1094  0.5792
 2991TIP3    H130388   0.113   6.571   2.675 -2.3890  1.5106  1.2012
 2991TIP3    H230389   0.128   6.633   2.812 -0.0922  2.3933  0.5898
 2992TIP3   OH230390   2.448   5.185  16.023  0.0512  0.6260  0.3498
 2992TIP3    H130391   2.406   5.107  15.987  0.4806 -0.0582  1.2684
 2992TIP3    H230392   2.542   5.165  16.021  0.1354  0.8853  1.0799
 2993TIP3   OH230393   2.184   2.675   6.516  0.3845  0.3265  0.5630
 2993TIP3    H130394   2.192   2.716   6.430  0.7482 -0.5257  0.1716
 2993TIP3    H230395   2.130   2.735   6.567  0.6290  1.1118 -0.0862
 2994TIP3   OH230396   6.634   2.734  14.268  0.1524 -0.5261  0.4059
 2994TIP3    H130397   6.698   2.805  14.263  0.2870 -0.3395  3.2833
 2994TIP3    H230398   6.680   2.662  14.311 -1.2734 -0.7249  1.6755
 2995TIP3   OH230399   4.220   5.691   3.981 -0.6823  0.2539  0.6676
 2995TIP3    H130400   4.190   5.773   4.022 -2.0573 -0.3439  0.9086
 2995TIP3    H230401   4.290   5.718   3.922 -1.7018  1.7432  0.0736
 2996TIP3   OH230402   2.037   4.074  17.199  0.9919  0.0889 -0.7326
 2996TIP3    H130403   2.097   4.051  17.129  1.2805 -0.0163 -0.4526
 2996TIP3    H230404   2.081   4.047  17.280  0.5556 -0.0248 -0.5262
 2997TIP3   OH230405   4.360   0.297   3.188 -0.1853 -0.0378 -0.2312
 2997TIP3    H130406   4.368   0.203   3.204  2.7529  0.2317  0.5155
 2997TIP3    H230407   4.341   0.304   3.094  0.4430 -1.3667 -0.4770
 2998TIP3   OH230408   1.912   1.407  14.305 -0.5476  0.2871  0.1291
 2998TIP3    H130409   1.938   1.439  14.391  0.1742 -0.9465  0.4016
 2998TIP3    H230410   1.972   1.450  14.244  1.3412 -1.4970  0.6245
 2999TIP3   OH230411   5.532   3.760  12.998 -0.2294  0.3955 -0.2517
 2999TIP3    H130412   5.606   3.821  12.994 -0.8151  1.1830  0.6950
 2999TIP3    H230413   5.538   3.711  12.915 -1.6388  3.9234 -2.6664
 3000TIP3   OH230414   4.045   3.435   0.836 -0.0027 -0.1866  0.1087
 3000TIP3    H130415   3.981   3.369   0.811 -1.2474  1.2762 -0.7631
 3000TIP3    H230416   3.993   3.507   0.872  1.2411  0.5952  0.4172
 3001TIP3   OH230417   0.888   4.258   4.348  0.1890  0.4592 -0.4245
 3001TIP3    H130418   0.883   4.295   4.260  0.5795  0.7307 -0.3322
 3001TIP3    H230419   0.978   4.228   4.357  0.3888  1.2252  0.2019
 3002TIP3   OH230420   1.449   1.108  11.325 -0.0445 -0.3747  0.0752
 3002TIP3    H130421   1.504   1.137  11.252 -2.0797 -0.3533 -1.5305
 3002TIP3    H230422   1.417   1.189  11.364  0.6867 -0.3965  0.7519
 3003TIP3   OH230423   3.439   0.636   0.246  0.0980  0.5096  0.0629
 3003TIP3    H130424   3.385   0.578   0.299  0.8550  0.2471  0.5707
 3003TIP3    H230425   3.401   0.723   0.260 -0.6450  0.2301 -0.1887
 3004TIP3   OH230426   4.216   3.126   0.833 -0.1897  0.1524 -0.6698
 3004TIP3    H130427   4.215   3.119   0.737 -0.9024  0.7901 -0.7144
 3004TIP3    H230428   4.186   3.040   0.864 -2.1427  0.6485 -1.0701
 3005TIP3   OH230429   2.475   1.263   1.112 -0.4289  0.6458 -0.1686
 3005TIP3    H130430   2.555   1.316   1.115 -0.6418  0.9278  0.9999
 3005TIP3    H230431   2.429   1.294   1.034  1.2253 -0.4884 -1.6835
 3006TIP3   OH230432   2.768   5.573  15.252 -0.4538  0.3227  0.1372
 3006TIP3    H130433   2.837   5.640  15.261 -0.3470  0.6279 -2.3025
 3006TIP3    H230434   2.696   5.619  15.209 -1.4655 -0.4768  0.9488
 3007TIP3   OH230435   4.827   0.237   4.506 -0.1650  0.4527  0.0854
 3007TIP3    H130436   4.833   0.239   4.602 -0.0396 -2.3461  0.2204
 3007TIP3    H230437   4.917   0.248   4.476 -0.1539  0.9779  0.3163
 3008TIP3   OH230438   0.481   6.177   4.522 -0.2327 -0.2447 -0.1359
 3008TIP3    H130439   0.485   6.168   4.426  0.7179 -1.8007  0.0131
 3008TIP3    H230440   0.432   6.258   4.536  0.4810  0.5597 -1.9443
 3009TIP3   OH230441   6.360   4.732  13.570  0.1001 -0.1921 -0.0832
 3009TIP3    H130442   6.313   4.699  13.494  0.7238 -3.3331  0.7780
 3009TIP3    H230443   6.439   4.771  13.534 -0.6092  0.3154 -1.1622
 3010TIP3   OH230444   1.566   4.282  16.703 -0.6526 -0.4233 -0.3924
 3010TIP3    H130445   1.471   4.275  16.712 -0.5344 -1.1596  0.3957
 3010TIP3    H230446   1.594   4.331  16.781 -0.3331 -0.6507 -0.3618
 3011TIP3   OH230447   6.443   4.657  12.397 -0.4589 -0.4456 -0.0513
 3011TIP3    H130448   6.354   4.684  12.375 -0.1199  0.4859 -0.3085
 3011TIP3    H230449   6.442   4.562  12.384 -1.1506 -0.3285 -1.0095
 3012TIP3   OH230450   0.786   6.486   2.067 -0.2921  0.1357  0.0783
 3012TIP3    H130451   0.855   6.446   2.121 -0.1015 -1.1816 -1.0626
 3012TIP3    H230452   0.830   6.504   1.983 -0.2783  3.1904  0.6524
 3013TIP3   OH230453   0.133   1.686   5.375  0.2395 -0.3907  0.1210
 3013TIP3    H130454   0.219   1.723   5.356 -0.7448  0.9724 -1.9509
 3013TIP3    H230455   0.100   1.656   5.290 -2.1835  1.0367  0.4768
 3014TIP3   OH230456   3.827   0.947   2.088 -0.0860 -0.7037  0.0083
 3014TIP3    H130457   3.815   0.945   2.183  0.3104  0.0048  0.0848
 3014TIP3    H230458   3.917   0.918   2.075  0.0909 -0.1312 -0.0904
 3015TIP3   OH230459   3.061   1.403  15.790  0.6018 -0.2425 -0.3663
 3015TIP3    H130460   3.086   1.428  15.879 -1.3051 -0.9957  0.4310
 3015TIP3    H230461   3.074   1.482  15.738  2.8479 -0.1053  0.3029
 3016TIP3   OH230462   2.581   3.563   3.718 -0.2718 -0.2066 -0.0558
 3016TIP3    H130463   2.512   3.511   3.760  0.8704  0.8241  3.4337
 3016TIP3    H230464   2.661   3.511   3.731 -0.0581 -0.7002 -2.7493
 3017TIP3   OH230465   3.247   1.818  14.126  0.4482 -0.3644 -0.7026
 3017TIP3    H130466   3.189   1.774  14.189  1.8293 -0.4905  0.5242
 3017TIP3    H230467   3.306   1.749  14.096  1.3030  0.1786 -0.3216
 3018TIP3   OH230468   6.708   0.190  15.097 -0.2463  0.2527 -0.4373
 3018TIP3    H130469   6.685   0.278  15.066  1.5312  1.0934  0.4408
 3018TIP3    H230470   6.661   0.131  15.039  0.1016  1.7612 -2.3568
 3019TIP3   OH230471   2.869   4.026   1.317 -0.2321 -0.8879  0.2095
 3019TIP3    H130472   2.778   4.003   1.333 -0.5819  1.7771  3.1093
 3019TIP3    H230473   2.916   3.993   1.394  0.4161  1.3518  0.8669
 3020TIP3   OH230474   6.204   2.585  12.358  0.5258 -0.2230  0.6178
 3020TIP3    H130475   6.285   2.536  12.377  1.3164  0.7009 -0.2633
 3020TIP3    H230476   6.222   2.674  12.389 -0.0948  0.0367  0.2467
 3021TIP3   OH230477   3.413   5.853  15.999  0.0394 -0.1299 -0.0150
 3021TIP3    H130478   3.394   5.781  15.939 -1.2533 -0.7507  1.0998
 3021TIP3    H230479   3.444   5.924  15.943  1.6324 -1.6242 -1.1207
 3022TIP3   OH230480   3.666   1.816  14.476 -0.5011  0.1356  0.3067
 3022TIP3    H130481   3.654   1.904  14.440 -1.8651 -0.0060  0.3694
 3022TIP3    H230482   3.577   1.781  14.484  0.0555 -1.4939 -0.3233
 3023TIP3   OH230483   1.166   1.396  13.373 -0.1965  0.5333  0.4614
 3023TIP3    H130484   1.139   1.461  13.438 -2.4563  0.0015  0.1602
 3023TIP3    H230485   1.143   1.435  13.289 -0.4823 -0.1607  0.2098
 3024TIP3   OH230486   5.239   5.454   5.309 -0.3998  0.0443  0.4858
 3024TIP3    H130487   5.320   5.480   5.264 -0.1099  0.9254  1.4708
 3024TIP3    H230488   5.181   5.529   5.296 -1.1935 -0.7115 -0.4796
 3025TIP3   OH230489   5.717   0.320  13.071 -0.1658  0.3233  0.0927
 3025TIP3    H130490   5.720   0.314  13.166  1.3182 -0.2043  0.0551
 3025TIP3    H230491   5.636   0.366  13.051 -1.0695 -0.5587  1.5596
 3026TIP3   OH230492   1.044   1.986   3.520  0.0954  0.5291  0.3979
 3026TIP3    H130493   0.997   2.067   3.540 -2.7947 -0.3175 -2.2582
 3026TIP3    H230494   0.977   1.918   3.519  1.6055 -1.0832 -2.0014
 3027TIP3   OH230495   5.133   5.942   1.450 -0.2176 -0.1991  0.2661
 3027TIP3    H130496   5.083   5.980   1.377  0.9987 -0.9735 -1.0082
 3027TIP3    H230497   5.090   5.977   1.528 -2.0185  0.0923 -0.7864
 3028TIP3   OH230498   4.436   6.754  11.788 -0.1329  0.5949  0.5149
 3028TIP3    H130499   4.504   6.688  11.774  2.3042  3.1464 -0.8794
 3028TIP3    H230500   4.377   6.745  11.713 -0.2412 -0.3995  0.7065
 3029TIP3   OH230501   4.660   4.660  16.414 -0.5441  0.1734  0.4140
 3029TIP3    H130502   4.628   4.727  16.474  1.8742  0.0126  2.0204
 3029TIP3    H230503   4.634   4.692  16.327 -0.4245  2.6491  1.1950
 3030TIP3   OH230504   5.825   3.767  10.821 -0.5298  0.0270 -0.0476
 3030TIP3    H130505   5.829   3.813  10.737 -0.8772 -0.3528 -0.2826
 3030TIP3    H230506   5.884   3.815  10.879  1.5708 -1.0450 -1.1628
 3031TIP3   OH230507   1.397   0.412  15.728 -0.5015  0.6981 -0.0977
 3031TIP3    H130508   1.391   0.317  15.740 -1.4756  0.6090 -1.1700
 3031TIP3    H230509   1.482   0.435  15.766 -0.2995 -0.5769  0.2833
 3032TIP3   OH230510   5.046   5.388   4.039  0.5869  0.1534 -0.4122
 3032TIP3    H130511   5.040   5.300   4.002  0.8179  0.8575 -2.1889
 3032TIP3    H230512   5.002   5.381   4.124 -2.0853 -0.9940 -1.7551
 3033TIP3   OH230513   3.235   2.343   3.551  0.0145 -0.2251  0.7100
 3033TIP3    H130514   3.280   2.354   3.635 -0.3818  0.6145  0.8254
 3033TIP3    H230515   3.222   2.432   3.518  0.2982 -0.5503 -0.3216
 3034TIP3   OH230516   6.269   0.858   2.956 -0.4599  0.5068  0.3058
 3034TIP3    H130517   6.176   0.863   2.935 -0.5827  4.8124  0.9259
 3034TIP3    H230518   6.314   0.882   2.874 -0.0512  1.1050  0.6977
 3035TIP3   OH230519   5.057   6.110   4.769  0.6556  0.6217 -0.0724
 3035TIP3    H130520   5.128   6.157   4.813  0.0406 -0.0200  1.6880
 3035TIP3    H230521   4.981   6.122   4.826 -0.0299 -0.7582 -0.6366
 3036TIP3   OH230522   2.079   0.324  16.905 -0.1479  0.3637 -0.4786
 3036TIP3    H130523   2.053   0.398  16.961 -2.4352  0.3602 -1.4287
 3036TIP3    H230524   2.005   0.310  16.847  1.2104 -1.1473 -1.9822
 3037TIP3   OH230525   6.403   6.097   0.070  0.3118 -0.1246 -0.3073
 3037TIP3    H130526   6.353   6.041   0.130 -0.0258 -0.9299 -1.3129
 3037TIP3    H230527   6.462   6.037   0.024  2.5049  0.8338  1.0685
 3038TIP3   OH230528   2.654   2.933   3.443  0.0113  0.1194 -0.6601
 3038TIP3    H130529   2.631   2.860   3.501  2.2543 -1.4628 -1.6149
 3038TIP3    H230530   2.622   2.906   3.357  1.0810  0.0956 -1.0680
 3039TIP3   OH230531   0.195   0.017  16.476  0.2315  0.0619 -0.3488
 3039TIP3    H130532   0.197  -0.041  16.400 -1.5301  1.2286 -1.3579
 3039TIP3    H230533   0.188  -0.043  16.551  0.8386 -1.0757 -1.1776
 3040TIP3   OH230534   2.933   0.312  14.726  0.4308 -0.6009  0.1448
 3040TIP3    H130535   2.922   0.255  14.650  1.7405 -0.2088 -0.3648
 3040TIP3    H230536   2.868   0.381  14.714  1.0542 -0.1867 -0.9838
 3041TIP3   OH230537   5.796   0.744   2.374 -0.0958 -0.7031  0.3540
 3041TIP3    H130538   5.857   0.679   2.341  0.5508 -0.9089  1.8655
 3041TIP3    H230539   5.852   0.810   2.416 -0.7281  0.8970 -1.2224
 3042TIP3   OH230540   1.844   5.653  16.220  0.1614 -0.1692  0.4274
 3042TIP3    H130541   1.806   5.638  16.307 -0.3894 -0.3332  0.1592
 3042TIP3    H230542   1.905   5.581  16.209  0.0278 -0.3051  0.5634
 3043TIP3   OH230543   3.367   6.162   2.605  1.0623  0.4399 -0.3944
 3043TIP3    H130544   3.396   6.246   2.567  3.0421 -0.9582 -2.2328
 3043TIP3    H230545   3.442   6.132   2.657 -0.1767  0.4393  1.4815
 3044TIP3   OH230546   6.487   1.998   2.143  0.1868 -0.1654 -0.2115
 3044TIP3    H130547   6.445   1.937   2.083 -0.7944  0.1425  0.1350
 3044TIP3    H230548   6.449   1.978   2.229  3.4486 -2.3777  0.9062
 3045TIP3   OH230549   3.784   6.038   5.466  0.0652  0.1693 -0.3341
 3045TIP3    H130550   3.734   6.063   5.544  1.6502 -0.1029  0.8159
 3045TIP3    H230551   3.745   6.089   5.395 -1.1652  0.7172  0.6969
 3046TIP3   OH230552   4.438   5.167   5.894  0.1224 -0.1194 -0.0828
 3046TIP3    H130553   4.481   5.251   5.907  0.8686 -0.5742  0.4900
 3046TIP3    H230554   4.357   5.173   5.944  0.5616 -0.0204  0.6397
 3047TIP3   OH230555   0.210   2.542  17.194  0.0950  0.1046  0.1181
 3047TIP3    H130556   0.172   2.500  17.117  0.9183 -1.7724  0.6592
 3047TIP3    H230557   0.303   2.553  17.172  0.3557 -0.5242  0.8406
 3048TIP3   OH230558   2.334   3.482   0.674  0.0236 -0.0678 -0.6484
 3048TIP3    H130559   2.318   3.400   0.627 -0.6818 -1.4046  1.7586
 3048TIP3    H230560   2.290   3.548   0.622  0.5350 -1.1888 -2.6205
 3049TIP3   OH230561   1.802   1.018  15.395 -0.3777  0.4196 -0.5615
 3049TIP3    H130562   1.738   1.079  15.358 -2.2233 -0.5812  0.8677
 3049TIP3    H230563   1.832   0.967  15.319 -1.2972  0.8755 -1.2549
 3050TIP3   OH230564   2.725   1.505  13.495  0.2009 -0.1765  0.1045
 3050TIP3    H130565   2.758   1.441  13.431  1.2864 -0.4016  0.8676
 3050TIP3    H230566   2.692   1.452  13.567 -1.0421  0.0786 -0.2639
 3051TIP3   OH230567   5.091   1.484  11.864 -0.0972  0.3909 -0.2121
 3051TIP3    H130568   5.013   1.486  11.808 -0.9964  2.6108  1.0066
 3051TIP3    H230569   5.057   1.481  11.953  1.2402  0.4895  0.3237
 3052TIP3   OH230570   1.699   0.024   2.129 -0.6239 -0.5690  0.1278
 3052TIP3    H130571   1.776   0.022   2.185 -0.4711 -3.2048 -0.0742
 3052TIP3    H230572   1.698  -0.061   2.085 -5.1503 -1.9794  2.2478
 3053TIP3   OH230573   3.536   5.893  11.988  0.0050  0.4355 -0.1732
 3053TIP3    H130574   3.601   5.942  11.937 -0.7665  0.7488 -0.8972
 3053TIP3    H230575   3.467   5.957  12.006 -0.8401 -0.2789 -0.7885
 3054TIP3   OH230576   1.512   2.611  14.528 -0.3965  0.6179  0.1300
 3054TIP3    H130577   1.528   2.546  14.597 -2.5972 -1.1564 -0.8857
 3054TIP3    H230578   1.576   2.680  14.544  0.3131 -0.5483  2.8785
 3055TIP3   OH230579   4.785   6.664   4.021  0.6535  0.1158  0.2687
 3055TIP3    H130580   4.870   6.658   3.977  0.5618  2.2291 -0.2845
 3055TIP3    H230581   4.803   6.712   4.102 -0.0392  0.8689 -0.0117
 3056TIP3   OH230582   5.184   2.665  13.269 -0.5834  0.0332 -0.4123
 3056TIP3    H130583   5.195   2.596  13.334  1.2505 -0.7909 -1.5267
 3056TIP3    H230584   5.091   2.689  13.275 -1.1193 -2.0352  0.4895
 3057TIP3   OH230585   1.633   6.689   6.003 -0.3576  0.5524 -0.1952
 3057TIP3    H130586   1.727   6.673   6.011 -0.7365 -2.5015 -0.5341
 3057TIP3    H230587   1.619   6.713   5.911  0.0281  0.4092 -0.2897
 3058TIP3   OH230588   0.984   2.802  16.380  0.3248  0.4296  0.0935
 3058TIP3    H130589   0.984   2.727  16.440  0.8361  2.2005  2.4836
 3058TIP3    H230590   0.942   2.769  16.300  0.4554 -2.3368  1.0586
 3059TIP3   OH230591   5.691   0.990  14.894 -0.1315 -1.0819  0.1568
 3059TIP3    H130592   5.778   0.995  14.855  0.4536 -0.9930  1.4250
 3059TIP3    H230593   5.635   0.955  14.824  0.9798 -1.4369 -0.5767
 3060TIP3   OH230594   4.995   2.746  10.535 -0.0022 -0.1217  0.2012
 3060TIP3    H130595   4.913   2.708  10.503  0.0502 -1.1279  1.2273
 3060TIP3    H230596   5.056   2.737  10.461 -1.1732  1.9728 -1.1062
 3061TIP3   OH230597   2.818   0.893   2.633  0.4058  1.0677  0.7540
 3061TIP3    H130598   2.896   0.947   2.640  0.1478  1.4428  0.7573
 3061TIP3    H230599   2.775   0.923   2.553  0.7540  0.2156  0.2367
 3062TIP3   OH230600   4.401   0.337   3.983  0.3197  0.0566  0.3349
 3062TIP3    H130601   4.490   0.371   3.974 -0.0839  1.0004 -0.3415
 3062TIP3    H230602   4.374   0.317   3.893 -0.0840 -0.4035  0.5534
 3063TIP3   OH230603   4.125   0.290   1.295  0.2298 -0.6862  0.0895
 3063TIP3    H130604   4.120   0.381   1.323 -1.1800 -0.8078  0.3221
 3063TIP3    H230605   4.190   0.289   1.225  0.5912  0.4114  0.4006
 3064TIP3   OH230606   0.496   2.879  17.183 -0.0828  0.4153 -0.4946
 3064TIP3    H130607   0.590   2.886  17.166 -0.3325 -0.2035 -2.4460
 3064TIP3    H230608   0.457   2.872  17.096 -1.8957  0.0751  0.3032
 3065TIP3   OH230609   3.500   4.105   4.048 -0.1919  0.0927  0.4425
 3065TIP3    H130610   3.589   4.096   4.080 -0.4652  1.2466  1.5801
 3065TIP3    H230611   3.448   4.125   4.126 -1.3943 -0.2246 -0.2514
 3066TIP3   OH230612   0.450   5.492  12.155 -0.8345 -0.9047 -0.1461
 3066TIP3    H130613   0.366   5.457  12.125 -0.8967 -1.0658  0.2111
 3066TIP3    H230614   0.515   5.429  12.123 -0.7723 -0.3597 -1.1108
 3067TIP3   OH230615   4.158   4.289  15.644 -0.6010 -0.2470  0.3279
 3067TIP3    H130616   4.124   4.205  15.613 -0.2071 -0.2480 -0.1000
 3067TIP3    H230617   4.142   4.350  15.572  1.3286 -0.4928 -0.3563
 3068TIP3   OH230618   4.246   1.685  11.464  0.2499  0.3126  0.1096
 3068TIP3    H130619   4.167   1.733  11.490 -1.1523 -1.5574 -0.4752
 3068TIP3    H230620   4.221   1.641  11.382  1.1350 -2.0181  0.9971
 3069TIP3   OH230621   5.646   5.850  16.477 -0.3633  0.1389  0.5175
 3069TIP3    H130622   5.599   5.770  16.501  0.3100 -0.3275  0.3183
 3069TIP3    H230623   5.592   5.891  16.409 -0.5199 -0.3461  0.3470
 3070TIP3   OH230624   5.071   0.158   1.641  0.4109 -0.1616  0.7262
 3070TIP3    H130625   4.985   0.159   1.681 -1.8635  1.3402 -3.5577
 3070TIP3    H230626   5.094   0.065   1.634 -1.2260 -0.6299  1.2235
 3071TIP3   OH230627   4.903   6.592   2.513 -0.2951 -0.3219  0.1106
 3071TIP3    H130628   4.945   6.659   2.459  0.1621  1.3497  2.3485
 3071TIP3    H230629   4.835   6.554   2.457  0.0636  1.3662 -1.5720
 3072TIP3   OH230630   4.513   5.875   0.547  0.1380 -0.3622 -0.1861
 3072TIP3    H130631   4.464   5.861   0.628 -0.4002 -2.2917 -0.7942
 3072TIP3    H230632   4.468   5.949   0.505 -0.0884  0.1239  0.8607
 3073TIP3   OH230633   4.442   1.904  11.371  0.4168 -0.2198  0.5441
 3073TIP3    H130634   4.405   1.826  11.411 -1.3539  0.7312  0.8536
 3073TIP3    H230635   4.389   1.920  11.293  0.8350  0.5976  0.4031
 3074TIP3   OH230636   3.150   3.405  11.688 -0.0141 -0.2797  0.5768
 3074TIP3    H130637   3.224   3.459  11.719  0.4924  0.1508 -1.2426
 3074TIP3    H230638   3.130   3.347  11.762  1.4421  0.3246  1.4982
 3075TIP3   OH230639   5.856   5.834  12.424  0.7969 -0.2222 -0.6479
 3075TIP3    H130640   5.796   5.867  12.491  1.9495  1.4258 -0.3581
 3075TIP3    H230641   5.807   5.840  12.342 -0.2859 -1.3286 -0.1112
 3076TIP3   OH230642   1.006   4.221  16.961 -0.2224  0.1652 -0.4724
 3076TIP3    H130643   0.948   4.147  16.941 -0.1140  0.2400 -1.0954
 3076TIP3    H230644   1.015   4.266  16.877  1.1042 -0.1036 -0.4940
 3077TIP3   OH230645   5.891   5.875   3.985  0.5712 -0.7322  0.0793
 3077TIP3    H130646   5.816   5.922   3.948 -0.1629 -1.3158  0.7863
 3077TIP3    H230647   5.900   5.797   3.931  0.8287 -0.5368 -0.1604
 3078TIP3   OH230648   2.151   3.458  15.024 -0.4884  0.1212  0.1524
 3078TIP3    H130649   2.212   3.531  15.036 -2.2204  1.8918 -1.0607
 3078TIP3    H230650   2.127   3.463  14.931 -1.8483 -0.9903  0.4089
 3079TIP3   OH230651   2.405   0.480  14.294  0.9876 -0.1567 -0.0810
 3079TIP3    H130652   2.425   0.533  14.217  1.2897 -0.5738 -0.2919
 3079TIP3    H230653   2.328   0.428  14.267 -1.4900  2.5381  1.2246
 3080TIP3   OH230654   2.498   1.555   2.720 -0.0970 -0.1911  0.2862
 3080TIP3    H130655   2.526   1.613   2.792  2.2370 -1.0521  0.1648
 3080TIP3    H230656   2.458   1.480   2.765 -0.5323  0.2076  0.5771
 3081TIP3   OH230657   2.066   5.522   1.528 -0.9478  0.5951 -0.1982
 3081TIP3    H130658   2.063   5.522   1.433 -0.6577  2.0381 -0.2338
 3081TIP3    H230659   2.098   5.435   1.551 -0.5567  0.3874 -1.4395
 3082TIP3   OH230660   5.258   5.675  12.905  0.1593  0.6837  0.4144
 3082TIP3    H130661   5.170   5.700  12.932  0.2420 -0.2695  1.6497
 3082TIP3    H230662   5.261   5.580  12.918  1.4832  0.7535  0.7826
 3083TIP3   OH230663   3.193   2.234  16.117  0.8327 -0.2655 -0.5099
 3083TIP3    H130664   3.249   2.159  16.097 -0.2990 -1.0682 -0.8227
 3083TIP3    H230665   3.126   2.198  16.175 -0.0410  0.3611 -1.1007
 3084TIP3   OH230666   4.694   5.784  11.366 -0.1470 -0.0470  0.5683
 3084TIP3    H130667   4.758   5.724  11.404 -0.5381 -0.6564  0.2686
 3084TIP3    H230668   4.626   5.728  11.329 -0.8527  0.5933  0.8627
 3085TIP3   OH230669   0.234   6.343   2.701  0.1004 -0.2829 -0.0321
 3085TIP3    H130670   0.304   6.282   2.725 -0.2356 -0.7499 -0.2217
 3085TIP3    H230671   0.164   6.287   2.668 -0.5762  0.1392  0.6610
 3086TIP3   OH230672   3.679   3.517   4.596 -0.6094 -0.1969 -0.1708
 3086TIP3    H130673   3.615   3.447   4.612  0.4539 -0.7003  2.3898
 3086TIP3    H230674   3.656   3.586   4.658 -0.1524  0.7081 -0.9761
 3087TIP3   OH230675   0.989   3.713   4.717 -0.6348 -0.1235 -0.4186
 3087TIP3    H130676   1.065   3.769   4.700 -0.2956 -0.7729 -1.1069
 3087TIP3    H230677   0.920   3.773   4.744 -0.0375  0.5351 -0.3365
 3088TIP3   OH230678   0.132   5.669   3.636  0.0254  0.6362 -0.2057
 3088TIP3    H130679   0.116   5.699   3.725  0.1824  1.4853 -0.4526
 3088TIP3    H230680   0.046   5.645   3.602 -0.2194  1.5380 -0.2504
 3089TIP3   OH230681   3.184   1.740  14.939  0.2493  0.2379  0.7632
 3089TIP3    H130682   3.184   1.688  15.019  0.7548 -1.0703 -0.0493
 3089TIP3    H230683   3.092   1.749  14.916  0.0780  0.9718  1.6948
 3090TIP3   OH230684   1.069   5.938   1.135  0.0874  0.4189  0.4461
 3090TIP3    H130685   1.073   5.843   1.123 -1.5054  0.5420 -1.5167
 3090TIP3    H230686   1.158   5.962   1.161  1.2630 -1.3357 -1.5743
 3091TIP3   OH230687   3.818   2.568   4.334 -0.3523 -0.0250  0.2808
 3091TIP3    H130688   3.830   2.610   4.249 -1.8488 -0.5680 -0.2370
 3091TIP3    H230689   3.726   2.541   4.334  0.1182 -1.7614  1.2944
 3092TIP3   OH230690   2.713   0.639  15.763 -0.0901 -0.3762  0.1234
 3092TIP3    H130691   2.661   0.598  15.831  0.7101  1.5849  2.0506
 3092TIP3    H230692   2.648   0.675  15.702 -0.8247 -1.9065 -0.0424
 3093TIP3   OH230693   4.844   3.153   4.771  0.1409 -0.2662  0.2467
 3093TIP3    H130694   4.759   3.148   4.726  0.3342 -0.9102 -0.0705
 3093TIP3    H230695   4.871   3.244   4.762 -0.1423 -0.2369 -0.3682
 3094TIP3   OH230696   5.030   5.837  11.669  0.9974 -0.4809 -0.3087
 3094TIP3    H130697   4.945   5.879  11.665  0.0195 -2.4537 -1.8086
 3094TIP3    H230698   5.093   5.907  11.652 -0.3232  0.9084  0.3377
 3095TIP3   OH230699   2.124   4.944   5.454 -0.0493 -0.4823  0.5767
 3095TIP3    H130700   2.079   5.016   5.410 -1.7316 -0.7017  1.8080
 3095TIP3    H230701   2.135   4.878   5.385 -0.8684 -0.0802  0.0361
 3096TIP3   OH230702   6.370   3.724   3.879  0.0215 -0.1864 -0.1835
 3096TIP3    H130703   6.355   3.797   3.938 -0.1738 -0.6785  0.3874
 3096TIP3    H230704   6.362   3.646   3.934  2.5701 -0.5879 -0.2549
 3097TIP3   OH230705   5.564   5.049  17.161  0.4870  0.2070 -1.0758
 3097TIP3    H130706   5.605   4.965  17.182  0.9167  0.6362 -0.1257
 3097TIP3    H230707   5.574   5.101  17.241  0.2462  1.1727 -1.6614
 3098TIP3   OH230708   4.380   3.511  11.699 -0.4086  0.2649  0.2626
 3098TIP3    H130709   4.324   3.539  11.627 -0.0667  0.7676  0.1831
 3098TIP3    H230710   4.319   3.488  11.769 -0.7312  0.2317 -0.0262
 3099TIP3   OH230711   2.587   2.797  15.497  0.1996 -0.2920 -0.1355
 3099TIP3    H130712   2.552   2.866  15.554 -0.5287 -0.0740 -0.8365
 3099TIP3    H230713   2.640   2.843  15.432 -0.5835 -0.3583 -0.8241
 3100TIP3   OH230714   3.789   5.926   4.338 -0.1073 -0.0223 -0.1026
 3100TIP3    H130715   3.875   5.934   4.380 -0.2318  1.1025 -0.0225
 3100TIP3    H230716   3.736   5.877   4.400  0.3062 -0.1962  0.1181
 3101TIP3   OH230717   1.911   5.672   1.163 -0.4883  0.0892  0.3073
 3101TIP3    H130718   1.867   5.739   1.216  0.5625  1.1611 -0.1345
 3101TIP3    H230719   1.922   5.598   1.222 -4.1629 -0.8434  0.0622
 3102TIP3   OH230720   0.776   1.848  14.916 -0.0107  0.1626  0.2128
 3102TIP3    H130721   0.704   1.911  14.909 -0.0841  0.1635  0.9342
 3102TIP3    H230722   0.790   1.837  15.010  0.1870 -0.6914  0.0912
 3103TIP3   OH230723   6.527   1.091  11.703  0.0910 -0.1944 -0.0898
 3103TIP3    H130724   6.565   1.030  11.766  1.4392  1.2069  0.5149
 3103TIP3    H230725   6.564   1.176  11.727 -1.8691  0.9140 -0.7912
 3104TIP3   OH230726   1.121   1.553  13.936 -0.3053 -0.7363 -0.5122
 3104TIP3    H130727   1.172   1.584  14.011  0.5303 -1.2200 -0.8671
 3104TIP3    H230728   1.145   1.612  13.864  0.6269 -1.6507 -0.9681
 3105TIP3   OH230729   1.348   2.278  12.582 -0.3110 -0.4746  0.0011
 3105TIP3    H130730   1.431   2.264  12.536  0.0845 -0.2070  0.6195
 3105TIP3    H230731   1.338   2.201  12.638 -1.4761 -1.4762 -1.5058
 3106TIP3   OH230732   0.956   4.267  13.156  0.3538 -0.3416  0.2526
 3106TIP3    H130733   1.010   4.323  13.213  0.7767  1.9850 -2.2224
 3106TIP3    H230734   1.020   4.214  13.108  0.3468  0.9032 -1.1752
 3107TIP3   OH230735   5.550   3.136  12.871 -1.0918  0.5785 -0.2211
 3107TIP3    H130736   5.535   3.115  12.779 -2.4412 -1.1979  0.3567
 3107TIP3    H230737   5.557   3.051  12.914 -2.9888  1.3207  1.6966
 3108TIP3   OH230738   5.401   5.941   4.573  0.4469  0.0375 -0.0515
 3108TIP3    H130739   5.458   5.887   4.628  0.7634  0.8916  0.4799
 3108TIP3    H230740   5.418   6.030   4.601 -1.6166  0.2870  0.5444
 3109TIP3   OH230741   3.740   1.698   2.096 -0.4675 -0.3086  0.2425
 3109TIP3    H130742   3.789   1.635   2.044  0.6960 -0.2771  1.2453
 3109TIP3    H230743   3.676   1.644   2.144 -0.4121 -0.5479  0.0505
 3110TIP3   OH230744   3.012   0.863   3.644 -0.0024 -0.1056 -0.1849
 3110TIP3    H130745   3.029   0.820   3.728  1.2394 -0.5883 -0.6582
 3110TIP3    H230746   2.963   0.942   3.667  0.8325  0.0820  1.0658
 3111TIP3   OH230747   6.568   4.403   0.694 -0.0883 -0.1315  0.0171
 3111TIP3    H130748   6.661   4.383   0.703  0.7709  3.4999  1.2548
 3111TIP3    H230749   6.564   4.470   0.626 -2.2432 -2.0274 -1.9066
 3112TIP3   OH230750   0.349   4.472  10.967  0.1828  0.1455  0.2227
 3112TIP3    H130751   0.365   4.425  10.886 -1.4816 -0.8652  0.4335
 3112TIP3    H230752   0.436   4.494  11.001  0.9875 -2.0222 -0.3290
 3113TIP3   OH230753   3.551   3.059  14.319 -0.4639 -0.3190  0.1991
 3113TIP3    H130754   3.494   3.089  14.248 -0.1331 -0.2794 -0.0516
 3113TIP3    H230755   3.582   3.139  14.361 -1.2137 -0.3497  0.8414
 3114TIP3   OH230756   3.661   6.317   3.068 -0.7339  0.7244  0.5384
 3114TIP3    H130757   3.636   6.250   3.131 -1.0278 -0.1216 -0.4662
 3114TIP3    H230758   3.757   6.319   3.073 -0.5485 -1.4571 -1.0920
 3115TIP3   OH230759   6.683   4.917   0.513 -0.0832 -0.3607 -0.2555
 3115TIP3    H130760   6.600   4.905   0.560 -1.1705  1.6917 -1.5236
 3115TIP3    H230761   6.678   4.854   0.440 -0.3658 -0.4921 -0.1243
 3116TIP3   OH230762   6.618   2.373  15.526  0.1510  0.2608  0.0841
 3116TIP3    H130763   6.616   2.356  15.620  0.6237  0.5130  0.1463
 3116TIP3    H230764   6.645   2.465  15.519  0.5073  0.1331 -0.2989
 3117TIP3   OH230765   5.121   2.930  14.068  0.3168  0.1658 -0.2352
 3117TIP3    H130766   5.149   3.013  14.029  1.1590 -0.2829 -0.6035
 3117TIP3    H230767   5.047   2.954  14.124  0.2067  1.0832 -0.7480
 3118TIP3   OH230768   5.019   2.563  16.485  0.4377  0.0027 -0.0342
 3118TIP3    H130769   5.070   2.601  16.414 -0.1054 -0.1175 -0.4937
 3118TIP3    H230770   4.933   2.604  16.477 -0.0583 -1.0696 -0.3256
 3119TIP3   OH230771   5.202   5.530   3.698 -0.1640  0.3186 -0.2627
 3119TIP3    H130772   5.154   5.474   3.758 -0.1244  0.0410 -0.4852
 3119TIP3    H230773   5.141   5.600   3.675  0.1603  1.0027  0.8914
 3120TIP3   OH230774   1.636   6.289  11.322 -0.1473 -1.0620 -0.2489
 3120TIP3    H130775   1.666   6.236  11.248 -0.2012 -0.1643 -0.9282
 3120TIP3    H230776   1.652   6.379  11.295 -0.0901 -0.7189  0.8758
 3121TIP3   OH230777   0.695   2.141   4.852 -0.4382  0.0011 -0.2430
 3121TIP3    H130778   0.731   2.196   4.783  0.0537  0.2362  0.1903
 3121TIP3    H230779   0.600   2.149   4.842 -0.3765 -0.3180 -1.1545
 3122TIP3   OH230780   4.877   1.722  12.020  0.1119  0.0529 -0.6557
 3122TIP3    H130781   4.864   1.768  12.103 -0.8314  0.1290 -0.8312
 3122TIP3    H230782   4.876   1.630  12.044  1.1735  0.0945 -0.4142
 3123TIP3   OH230783   4.721   0.883  14.995  0.6942 -0.3234 -0.0068
 3123TIP3    H130784   4.713   0.932  15.077  2.1524 -0.8910  0.5145
 3123TIP3    H230785   4.702   0.947  14.926  0.1082  0.3290  0.7428
 3124TIP3   OH230786   2.186   4.658  15.204  0.1121 -0.1591  0.4391
 3124TIP3    H130787   2.186   4.730  15.267  1.1494 -0.7064  1.0904
 3124TIP3    H230788   2.167   4.700  15.120  1.7958  1.0611  0.6113
 3125TIP3   OH230789   5.877   5.441   2.518 -0.0645 -0.0651  0.4236
 3125TIP3    H130790   5.969   5.440   2.492 -0.6135 -0.4578 -1.7602
 3125TIP3    H230791   5.831   5.399   2.445 -1.9806  0.1528  1.4317
 3126TIP3   OH230792   6.330   2.049   6.072 -0.1170  1.0904  0.4871
 3126TIP3    H130793   6.398   1.987   6.044  0.0795  1.4900  0.0609
 3126TIP3    H230794   6.354   2.071   6.162 -1.2202 -0.8390  1.3086
 3127TIP3   OH230795   0.276   1.105  17.283  0.3141  0.2094  0.0250
 3127TIP3    H130796   0.288   1.198  17.300  0.2475 -0.2775  3.4787
 3127TIP3    H230797   0.184   1.088  17.302 -0.3448 -0.2654 -2.9621
 3128TIP3   OH230798   4.820   5.878   2.953  0.1967 -0.0273 -0.5479
 3128TIP3    H130799   4.877   5.822   2.901 -0.2934 -0.5532 -0.5275
 3128TIP3    H230800   4.865   5.962   2.955  1.1505 -0.5306 -0.2183
 3129TIP3   OH230801   1.696   3.364   0.481  0.5286  0.6044  0.7658
 3129TIP3    H130802   1.730   3.337   0.566  1.0142  1.6006  0.9021
 3129TIP3    H230803   1.618   3.310   0.468  0.9240 -0.1508  1.4517
 3130TIP3   OH230804   4.994   3.512  12.490  0.4396 -0.6879 -0.0232
 3130TIP3    H130805   4.972   3.450  12.559 -0.0739 -0.0727  0.3764
 3130TIP3    H230806   5.018   3.456  12.415 -0.6501 -1.3904  0.1169
 3131TIP3   OH230807   6.660   4.095  11.110 -0.4847  0.5072  0.1074
 3131TIP3    H130808   6.666   4.175  11.057 -1.2841  1.6078  1.6287
 3131TIP3    H230809   6.576   4.102  11.155  0.1412 -0.4086  1.4839
 3132TIP3   OH230810   4.099   1.048   1.396 -0.1826  0.7659 -0.8245
 3132TIP3    H130811   4.162   1.120   1.402 -0.5572  0.9969  1.9586
 3132TIP3    H230812   4.051   1.052   1.479 -1.7716 -1.3082 -1.5569
 3133TIP3   OH230813   5.431   0.751   5.937 -0.2934  0.4789 -0.6130
 3133TIP3    H130814   5.401   0.836   5.969  1.0836  0.4552  0.8106
 3133TIP3    H230815   5.526   0.751   5.951 -0.3547 -1.6165  0.2336
 3134TIP3   OH230816   2.572   5.252  12.873 -0.2978  0.0943 -0.2133
 3134TIP3    H130817   2.594   5.182  12.812 -0.2779  0.1434 -0.2637
 3134TIP3    H230818   2.534   5.208  12.949 -0.1340  0.0189 -0.1770
 3135TIP3   OH230819   5.447   2.396   0.228  0.3284 -0.5013  0.2273
 3135TIP3    H130820   5.500   2.457   0.175 -0.0980 -0.8406 -0.6118
 3135TIP3    H230821   5.360   2.433   0.228  0.3310 -0.4944  0.7192
 3136TIP3   OH230822   2.472   1.304  16.341  0.3215  0.1430 -0.4311
 3136TIP3    H130823   2.564   1.283  16.320  0.1868 -1.5856  0.5816
 3136TIP3    H230824   2.431   1.316  16.255  1.4533  0.8776 -0.9073
 3137TIP3   OH230825   0.270   4.459   1.546 -0.3005  0.0954 -0.0384
 3137TIP3    H130826   0.338   4.490   1.486 -1.5545 -0.1062 -1.6219
 3137TIP3    H230827   0.265   4.365   1.530 -2.1543  0.3685 -1.2420
 3138TIP3   OH230828   6.711   2.474  14.334  0.3344 -0.0999 -0.3815
 3138TIP3    H130829   6.726   2.487  14.427 -1.0644  1.0365 -0.2738
 3138TIP3    H230830   6.775   2.407  14.308  2.6059  1.5007  0.7779
 3139TIP3   OH230831   3.044   2.783  13.328  0.1036  0.0932  0.1936
 3139TIP3    H130832   3.110   2.840  13.290 -0.7108  0.5846 -0.5171
 3139TIP3    H230833   2.989   2.757  13.253 -1.0332  0.4090  0.9009
 3140TIP3   OH230834   3.777   6.455  12.380  0.0014  0.1509 -0.0135
 3140TIP3    H130835   3.818   6.401  12.312 -3.4033 -0.0800 -2.1022
 3140TIP3    H230836   3.755   6.537  12.336  1.0518  1.5526  1.9217
 3141TIP3   OH230837   6.251   2.453   2.657  0.6502  0.5058  0.3728
 3141TIP3    H130838   6.291   2.366   2.661  1.5031  0.9282  2.8685
 3141TIP3    H230839   6.176   2.448   2.716 -0.8904  0.7734 -1.4748
 3142TIP3   OH230840   2.929   3.922   2.670  0.4367  0.0236 -0.1198
 3142TIP3    H130841   2.992   3.959   2.607  2.0517 -0.7254  0.9928
 3142TIP3    H230842   2.942   3.828   2.664 -2.1767 -0.3582 -1.4249
 3143TIP3   OH230843   4.073   0.531   1.415  0.1662  0.1634 -0.0124
 3143TIP3    H130844   4.160   0.571   1.408  0.6742 -0.7535  0.8287
 3143TIP3    H230845   4.012   0.603   1.394  1.0711  1.1935  0.7655
 3144TIP3   OH230846   0.200   5.448   2.360 -0.8378  0.1218  0.5188
 3144TIP3    H130847   0.156   5.444   2.275  0.4171 -2.6746 -0.1500
 3144TIP3    H230848   0.135   5.414   2.422 -0.9648 -0.1861  0.2248
 3145TIP3   OH230849   4.059   0.199  15.434 -0.0202  0.1427  1.0081
 3145TIP3    H130850   4.111   0.148  15.496 -1.2226 -0.3409  1.6561
 3145TIP3    H230851   4.044   0.282  15.478 -2.7939 -0.9896  2.4675
 3146TIP3   OH230852   2.702   2.492  13.270  1.5151 -0.0942 -0.0946
 3146TIP3    H130853   2.704   2.539  13.187 -0.2564  0.2705  0.0248
 3146TIP3    H230854   2.668   2.556  13.333 -0.6484 -1.3757  0.1402
 3147TIP3   OH230855   1.504   3.949  13.211 -0.0419  0.2850 -0.4146
 3147TIP3    H130856   1.598   3.966  13.212 -0.3065  1.9852  0.7973
 3147TIP3    H230857   1.483   3.923  13.301 -0.7770  0.2188 -0.5967
 3148TIP3   OH230858   2.541   5.128   0.388  0.1273  0.2003 -0.4679
 3148TIP3    H130859   2.458   5.167   0.361 -1.3798 -1.4861  1.3840
 3148TIP3    H230860   2.571   5.182   0.461 -0.7781 -0.7006  0.6065
 3149TIP3   OH230861   0.132   0.236  13.943  0.3452  0.0053 -0.5208
 3149TIP3    H130862   0.098   0.280  14.021 -0.4568 -0.1721 -0.7629
 3149TIP3    H230863   0.081   0.273  13.871  0.2310 -0.7190 -0.8187
 3150TIP3   OH230864   5.617   1.538  16.461  0.2114 -0.2474 -0.5944
 3150TIP3    H130865   5.554   1.494  16.517 -0.2665  1.0538 -0.0682
 3150TIP3    H230866   5.681   1.471  16.439  1.0331 -0.5940  2.3972
 3151TIP3   OH230867   1.323   2.657  15.617 -0.1372 -0.1406  0.3978
 3151TIP3    H130868   1.284   2.677  15.703  1.4885  2.3096  0.6914
 3151TIP3    H230869   1.405   2.613  15.638  1.0522  1.8797  0.2927
 3152TIP3   OH230870   4.241   6.535  16.871  0.3216 -0.3516  0.3767
 3152TIP3    H130871   4.257   6.626  16.896  1.3976  0.4821 -2.8728
 3152TIP3    H230872   4.275   6.484  16.945  0.4676  1.8235  1.9284
 3153TIP3   OH230873   1.821   0.650  15.947 -0.2261 -0.2005 -0.4345
 3153TIP3    H130874   1.850   0.596  16.020 -0.1507  0.8635  0.3556
 3153TIP3    H230875   1.842   0.599  15.869 -0.2984 -1.3543  0.2772
 3154TIP3   OH230876   4.362   0.362  14.885 -0.2118 -0.2452  0.0752
 3154TIP3    H130877   4.455   0.376  14.869 -0.5161  0.1882 -1.4572
 3154TIP3    H230878   4.348   0.270  14.864  0.2973 -1.0038  2.6844
 3155TIP3   OH230879   1.915   4.300   5.867  0.2267 -0.2233  0.0324
 3155TIP3    H130880   1.964   4.255   5.936 -0.6657 -0.6848  0.3967
 3155TIP3    H230881   1.832   4.323   5.909 -1.1412 -2.2317 -1.3853
 3156TIP3   OH230882   1.605   5.418   6.648  0.2196 -0.4257 -0.4212
 3156TIP3    H130883   1.526   5.441   6.697  1.3058 -1.3346  1.9110
 3156TIP3    H230884   1.598   5.324   6.633  0.9546 -0.5721  0.0714
 3157TIP3   OH230885   4.332   2.481   4.528  0.0787 -0.1424 -0.7985
 3157TIP3    H130886   4.277   2.448   4.457 -0.9526 -0.2287  0.0197
 3157TIP3    H230887   4.406   2.420   4.532 -0.1613 -0.4746 -1.4080
 3158TIP3   OH230888   5.398   4.049  15.020 -0.0540 -0.6960  0.1798
 3158TIP3    H130889   5.313   4.008  15.035 -0.0829 -0.4718  0.6257
 3158TIP3    H230890   5.440   3.993  14.955 -0.7255 -0.5558 -0.3911
 3159TIP3   OH230891   4.856   6.252   4.875  0.3628  0.5325  0.4671
 3159TIP3    H130892   4.766   6.264   4.905 -0.8949 -0.5754 -2.4423
 3159TIP3    H230893   4.847   6.227   4.783  3.6948  0.7917 -0.0500
 3160TIP3   OH230894   4.853   2.607   0.482  0.8222 -0.5322 -0.8768
 3160TIP3    H130895   4.801   2.662   0.541  0.4109 -1.5591 -0.2462
 3160TIP3    H230896   4.843   2.647   0.396 -0.6190 -0.4288 -0.6759
 3161TIP3   OH230897   2.962   0.333  13.377 -0.9544  0.5086 -0.5210
 3161TIP3    H130898   2.914   0.416  13.374 -0.4738  0.7763 -1.2407
 3161TIP3    H230899   3.049   0.356  13.344  0.4707  0.5649  2.8584
 3162TIP3   OH230900   3.045   5.457   4.490  0.0621  0.0988 -1.0127
 3162TIP3    H130901   3.093   5.521   4.438 -0.6897  1.6138  0.0702
 3162TIP3    H230902   2.981   5.420   4.430 -0.0341  0.9686 -1.4589
 3163TIP3   OH230903   0.873   2.995   2.359 -0.8902  0.4633 -0.1764
 3163TIP3    H130904   0.924   2.919   2.388  0.8802  0.9775 -1.7601
 3163TIP3    H230905   0.904   3.066   2.415  0.8009  0.9421 -1.6261
 3164TIP3   OH230906   5.495   0.935  12.828 -0.0682  0.4574 -0.0225
 3164TIP3    H130907   5.507   0.977  12.744 -0.8237  1.2211  0.2349
 3164TIP3    H230908   5.408   0.963  12.857  0.5959  1.0570  1.4938
 3165TIP3   OH230909   1.038   6.690  11.466 -0.9183 -0.4207  0.4884
 3165TIP3    H130910   0.952   6.687  11.424 -0.8508 -1.2701  0.4105
 3165TIP3    H230911   1.031   6.763  11.527 -1.9861 -1.0239  1.1153
 3166TIP3   OH230912   5.316   5.683   3.901 -0.0065  0.4513 -0.4755
 3166TIP3    H130913   5.322   5.622   3.828  0.6370 -0.5381  0.3739
 3166TIP3    H230914   5.405   5.688   3.937 -0.2259  1.2189  0.0075
 3167TIP3   OH230915   1.614   2.882  10.825 -0.0614 -0.5703 -0.3129
 3167TIP3    H130916   1.643   2.972  10.808  1.4792 -1.1800 -0.9911
 3167TIP3    H230917   1.520   2.884  10.805 -0.1831  1.0033  0.2027
 3168TIP3   OH230918   1.354   0.790   5.556  0.5975  0.4475  0.3453
 3168TIP3    H130919   1.407   0.711   5.570 -0.5547 -0.5386 -0.6165
 3168TIP3    H230920   1.285   0.784   5.622  0.5825  0.7105  0.3506
 3169TIP3   OH230921   5.975   3.556   2.295  0.5539  0.3543 -0.0881
 3169TIP3    H130922   6.026   3.636   2.301  1.4483 -0.1495 -0.7394
 3169TIP3    H230923   5.897   3.580   2.245  0.6729  0.8729 -0.0241
 3170TIP3   OH230924   5.798   4.534  11.174 -0.5139  0.1338 -0.2521
 3170TIP3    H130925   5.749   4.583  11.241  0.2433 -0.0375  0.4404
 3170TIP3    H230926   5.755   4.448  11.172 -0.5211  0.1274  0.0500
 3171TIP3   OH230927   2.902   2.190   1.405 -0.0749  0.3590  0.3103
 3171TIP3    H130928   2.886   2.097   1.420 -1.6187  0.9534  3.0014
 3171TIP3    H230929   2.981   2.193   1.351  0.4749 -2.4633  0.8326
 3172TIP3   OH230930   5.508   6.652  14.060  0.2911 -0.0386  0.1065
 3172TIP3    H130931   5.536   6.628  13.971  2.0612  0.8391  0.3825
 3172TIP3    H230932   5.578   6.708  14.093 -2.1667  2.9364  0.6613
 3173TIP3   OH230933   4.513   4.002   6.494 -0.2353  0.4828 -0.3022
 3173TIP3    H130934   4.520   3.997   6.589 -1.0389  0.0623 -0.2552
 3173TIP3    H230935   4.452   4.074   6.478 -0.9782 -0.1562 -0.4466
 3174TIP3   OH230936   3.619   5.410  15.337 -0.9168  0.1711  0.1247
 3174TIP3    H130937   3.595   5.348  15.268  0.2734 -2.2486  1.6938
 3174TIP3    H230938   3.710   5.432  15.318 -0.6441 -0.3552  0.7479
 3175TIP3   OH230939   3.867   3.005  14.477  0.1220 -0.5888  0.6060
 3175TIP3    H130940   3.820   3.066  14.420 -0.4536  0.0322  1.6971
 3175TIP3    H230941   3.944   3.055  14.507  0.1428 -0.7221  0.7759
 3176TIP3   OH230942   5.443   0.489  14.683  0.0650 -0.6875 -0.6751
 3176TIP3    H130943   5.525   0.499  14.634  0.3766 -0.6828 -0.1613
 3176TIP3    H230944   5.444   0.398  14.712 -0.2790 -0.7830 -0.9573
 3177TIP3   OH230945   4.588   5.330   2.892 -0.6247  0.2049  0.2137
 3177TIP3    H130946   4.566   5.278   2.814  1.8892  1.6416 -1.6363
 3177TIP3    H230947   4.535   5.409   2.884 -2.5228 -0.8384  1.6354
 3178TIP3   OH230948   5.174   1.643   1.240  0.0363 -0.4207  0.0629
 3178TIP3    H130949   5.104   1.626   1.303 -0.6240  0.7510 -0.3347
 3178TIP3    H230950   5.160   1.733   1.211  0.7291 -0.7014 -1.2529
 3179TIP3   OH230951   6.125   5.804   4.506  0.3371  0.0552  0.8356
 3179TIP3    H130952   6.052   5.865   4.497  0.2304 -0.2690 -0.8066
 3179TIP3    H230953   6.140   5.771   4.417  1.5073 -1.0158  1.3978
 3180TIP3   OH230954   4.831   1.820   4.986  0.3033 -0.2626  0.1260
 3180TIP3    H130955   4.819   1.845   5.078 -0.1619 -0.3505  0.0892
 3180TIP3    H230956   4.798   1.896   4.937 -1.1214 -0.9241  0.0119
 3181TIP3   OH230957   2.599   5.307  12.095  0.1975 -0.1663  0.4076
 3181TIP3    H130958   2.587   5.264  12.011  0.1320 -0.9367  0.8032
 3181TIP3    H230959   2.667   5.372  12.079  0.6406 -0.7388 -0.0903
 3182TIP3   OH230960   4.230   0.671  14.139 -0.1585 -0.3192 -0.1283
 3182TIP3    H130961   4.257   0.593  14.091  1.1035 -1.1986  1.8604
 3182TIP3    H230962   4.296   0.737  14.116  0.2795 -0.6462  0.1829
 3183TIP3   OH230963   1.923   5.076   2.561  0.0102  0.5855 -0.0089
 3183TIP3    H130964   1.982   5.146   2.534 -0.7770  1.7845  1.2137
 3183TIP3    H230965   1.849   5.082   2.500  0.2058  0.4520 -0.2578
 3184TIP3   OH230966   5.162   0.509   5.581 -0.1210  0.1504  0.0892
 3184TIP3    H130967   5.189   0.496   5.672 -1.2136  0.4484  0.4686
 3184TIP3    H230968   5.238   0.480   5.530  0.6579  0.3368  1.0930
 3185TIP3   OH230969   2.147   0.910  14.176  0.1003  0.2558 -0.0212
 3185TIP3    H130970   2.060   0.927  14.213 -0.4225 -0.9230 -0.6534
 3185TIP3    H230971   2.199   0.987  14.202 -0.2390 -0.4032  3.0334
 3186TIP3   OH230972   5.408   6.490   6.596 -0.3464 -0.2482 -0.6575
 3186TIP3    H130973   5.375   6.477   6.507  1.1815 -1.1143 -1.1294
 3186TIP3    H230974   5.449   6.407   6.619 -1.8702 -0.5052  1.4048
 3187TIP3   OH230975   0.184   0.084   2.289 -0.0346 -0.2001  0.5904
 3187TIP3    H130976   0.236   0.023   2.342 -0.2302  0.2214  1.2736
 3187TIP3    H230977   0.233   0.166   2.290 -1.3326  0.6181  2.3726
 3188TIP3   OH230978   0.924   5.206   2.360 -0.0029 -0.2148  0.0622
 3188TIP3    H130979   0.868   5.279   2.336 -1.6455 -1.2323  0.6178
 3188TIP3    H230980   0.995   5.246   2.411  0.3643  1.2191 -1.4896
 3189TIP3   OH230981   3.183   3.397   0.516 -0.5257  0.9998  0.0562
 3189TIP3    H130982   3.094   3.387   0.480 -0.8464  2.6151  0.3140
 3189TIP3    H230983   3.200   3.314   0.561 -1.0613 -0.1484 -1.7382
 3190TIP3   OH230984   0.493   3.575  13.998  0.4921 -0.2095 -0.0886
 3190TIP3    H130985   0.463   3.663  13.979 -0.3783 -0.4032  0.3765
 3190TIP3    H230986   0.538   3.582  14.082 -1.6965 -0.6387  1.1763
 3191TIP3   OH230987   5.838   2.752  11.820  0.7232 -0.0829 -0.3455
 3191TIP3    H130988   5.772   2.730  11.754  1.8402 -3.0332 -0.6697
 3191TIP3    H230989   5.803   2.829  11.865 -2.4660 -0.9304 -1.1087
 3192TIP3   OH230990   5.743   0.233  13.332 -0.3250 -0.0369 -0.0782
 3192TIP3    H130991   5.813   0.191  13.383  1.8582  2.2832 -0.9565
 3192TIP3    H230992   5.666   0.228  13.389  1.0674 -0.8676  1.8390
 3193TIP3   OH230993   5.952   6.063  12.794  0.1365  0.8422 -0.3391
 3193TIP3    H130994   5.960   5.968  12.784 -0.2991  0.4435  2.2497
 3193TIP3    H230995   6.039   6.098  12.773  0.1536 -0.0222 -1.8549
 3194TIP3   OH230996   1.282   2.003   6.381 -0.0214 -0.3444 -0.5566
 3194TIP3    H130997   1.349   2.035   6.441  0.6242 -2.6545  0.0646
 3194TIP3    H230998   1.200   2.011   6.429  0.1314  0.3216 -0.4061
 3195TIP3   OH230999   1.521   3.263  16.106 -0.0050 -1.2595 -0.3283
 3195TIP3    H131000   1.525   3.359  16.107  0.6951 -1.2814 -0.6094
 3195TIP3    H231001   1.432   3.243  16.135  0.3650 -0.5603  1.4395
 3196TIP3   OH231002   2.730   5.755  14.139  0.1109 -0.1498 -0.2702
 3196TIP3    H131003   2.749   5.716  14.054 -1.2409 -0.5911 -0.3932
 3196TIP3    H231004   2.702   5.845  14.119 -1.9601 -0.7855 -0.5134
 3197TIP3   OH231005   2.708   5.375  10.835 -0.3198 -0.1984  0.0743
 3197TIP3    H131006   2.787   5.428  10.826  0.4104 -1.2125  0.3892
 3197TIP3    H231007   2.637   5.434  10.810  0.4797  0.8930  0.3014
 3198TIP3   OH231008   3.159   2.350  14.982 -0.1177  0.8536 -0.3668
 3198TIP3    H131009   3.214   2.392  15.047  1.3878  1.3485 -1.9040
 3198TIP3    H231010   3.220   2.301  14.926 -1.5568 -1.3085 -0.1905
 3199TIP3   OH231011   6.182   2.158  10.230 -0.3294  0.2893  0.1324
 3199TIP3    H131012   6.211   2.089  10.289 -0.2593  0.8285  0.7314
 3199TIP3    H231013   6.087   2.147  10.225 -0.3844  0.5108  0.6849
 3200TIP3   OH231014   1.855   4.251   0.968 -0.0659  0.6172  0.6575
 3200TIP3    H131015   1.931   4.297   0.932 -0.1135  2.2427  2.4542
 3200TIP3    H231016   1.887   4.211   1.049 -0.2379 -1.9910 -0.4532
 3201TIP3   OH231017   0.649   1.715  11.527  0.3744 -0.4881  0.1112
 3201TIP3    H131018   0.695   1.644  11.482  0.2979  0.4931 -1.5982
 3201TIP3    H231019   0.565   1.677  11.553  0.3009 -1.0087 -0.8520
 3202TIP3   OH231020   5.609   2.286  12.223  0.2767  0.0583  0.2133
 3202TIP3    H131021   5.684   2.260  12.277  0.3367  1.2631  0.7480
 3202TIP3    H231022   5.623   2.242  12.139  0.8843 -0.7818  0.7339
 3203TIP3   OH231023   5.730   3.498  17.205 -0.4403  0.5736 -0.4390
 3203TIP3    H131024   5.635   3.505  17.211 -0.3217  1.5308  0.6298
 3203TIP3    H231025   5.760   3.493  17.296  0.4638 -0.9379 -0.7884
 3204TIP3   OH231026   5.072   3.968  14.111 -0.4635 -0.2984 -0.6535
 3204TIP3    H131027   5.095   4.006  14.026 -1.2493 -1.7217 -1.5511
 3204TIP3    H231028   5.091   4.037  14.175 -0.0414  0.8766 -2.0017
 3205TIP3   OH231029   6.750   0.417  15.447 -0.6165  0.2264  0.2187
 3205TIP3    H131030   6.663   0.376  15.449 -0.5805 -0.1123 -2.5013
 3205TIP3    H231031   6.732   0.510  15.434 -0.6156  0.0290 -1.4169
 3206TIP3   OH231032   1.033   4.290   6.171  0.6588  0.8666  0.4152
 3206TIP3    H131033   1.011   4.197   6.164  0.0628  1.1240 -3.0994
 3206TIP3    H231034   1.032   4.308   6.265 -1.4400 -2.1415  1.1182
 3207TIP3   OH231035   5.886   1.696   1.088  0.5327 -0.0741 -0.1612
 3207TIP3    H131036   5.904   1.770   1.147  0.4452 -0.0276 -0.1943
 3207TIP3    H231037   5.920   1.620   1.136  0.0490 -0.0974  0.1503
 3208TIP3   OH231038   2.411   3.781  14.997  0.3626 -0.3251 -0.4427
 3208TIP3    H131039   2.461   3.861  14.977  1.6186 -0.9094  0.2177
 3208TIP3    H231040   2.476   3.722  15.036 -1.0464 -0.8356  1.2127
 3209TIP3   OH231041   1.695   5.090  13.945  0.6303 -0.7024 -0.1957
 3209TIP3    H131042   1.683   5.139  13.864  1.4575 -0.4488 -0.1764
 3209TIP3    H231043   1.642   5.136  14.010  2.1703  0.8113  0.0602
 3210TIP3   OH231044   5.574   4.030  16.660  0.2073 -0.4692 -0.6269
 3210TIP3    H131045   5.509   3.969  16.625 -1.6733 -0.0087  1.8017
 3210TIP3    H231046   5.524   4.108  16.683  1.2349 -0.6924  2.8363
 3211TIP3   OH231047   1.474   2.641   4.483 -0.3879 -0.2040  0.1566
 3211TIP3    H131048   1.428   2.601   4.409 -0.1375  0.9893 -0.6535
 3211TIP3    H231049   1.566   2.637   4.460 -0.2821 -0.1248  0.5576
 3212TIP3   OH231050   4.497   1.723   4.862 -0.7229  0.2748 -0.0068
 3212TIP3    H131051   4.470   1.812   4.884  1.4285  1.2184 -0.8624
 3212TIP3    H231052   4.544   1.732   4.779  1.7075 -1.2358  1.0984
 3213TIP3   OH231053   2.755   0.184   0.728  0.3723 -0.0766  0.4312
 3213TIP3    H131054   2.691   0.255   0.733  0.2092 -0.2249  0.4676
 3213TIP3    H231055   2.755   0.158   0.636  0.4092 -0.0479  0.4235
 3214TIP3   OH231056   3.829   5.652  15.912 -0.0323  0.0033  0.0355
 3214TIP3    H131057   3.889   5.604  15.969  0.7759  0.5731 -0.3210
 3214TIP3    H231058   3.827   5.601  15.831 -0.4512 -0.2996  0.2318
 3215TIP3   OH231059   6.269   6.428  12.988 -0.2113  0.0721  0.2135
 3215TIP3    H131060   6.212   6.463  13.056  0.4442 -0.9705  1.3339
 3215TIP3    H231061   6.211   6.377  12.932 -0.4739 -0.5758  1.0629
 3216TIP3   OH231062   1.141   3.299  17.090  0.3418 -0.2518 -0.0334
 3216TIP3    H131063   1.189   3.376  17.059  0.3741  0.4222  1.5680
 3216TIP3    H231064   1.075   3.334  17.150 -0.1261 -1.4245  0.1783
 3217TIP3   OH231065   2.364   6.555  12.032 -0.5511  0.1173 -0.2074
 3217TIP3    H131066   2.374   6.600  12.116  0.2710 -0.2289 -0.1069
 3217TIP3    H231067   2.270   6.538  12.025 -0.4861 -1.2728  1.4180
 3218TIP3   OH231068   2.147   5.800   3.312 -0.0391  0.5555 -0.3105
 3218TIP3    H131069   2.071   5.857   3.321 -1.2635 -0.3492 -3.4979
 3218TIP3    H231070   2.207   5.848   3.254 -0.6612 -0.8507 -2.2320
 3219TIP3   OH231071   0.630   4.636  12.275  0.6342 -0.2063 -0.1703
 3219TIP3    H131072   0.639   4.559  12.219  1.4960 -0.1250 -0.1585
 3219TIP3    H231073   0.711   4.685  12.262 -0.4364  1.3832 -1.1565
 3220TIP3   OH231074   4.007   0.282   6.745  0.0711  0.3528 -0.1829
 3220TIP3    H131075   4.069   0.353   6.764  0.3412 -0.0021  0.2671
 3220TIP3    H231076   4.051   0.228   6.679 -0.3235  0.8461 -0.8727
 3221TIP3   OH231077   6.754   5.374  14.035 -0.0303 -0.0940 -0.3249
 3221TIP3    H131078   6.714   5.410  14.114  0.2623 -1.9309  0.7260
 3221TIP3    H231079   6.818   5.440  14.008  0.3695  0.2759  1.3917
 3222TIP3   OH231080   0.983   6.305  17.264 -0.4675 -0.3454 -0.0456
 3222TIP3    H131081   0.951   6.380  17.314 -0.6763 -1.2843  1.2604
 3222TIP3    H231082   0.990   6.234  17.328  2.4150 -0.7321 -0.6469
 3223TIP3   OH231083   5.146   3.181   2.823 -0.0398 -0.4791  0.0848
 3223TIP3    H131084   5.166   3.148   2.736  0.2293  1.1193 -0.4828
 3223TIP3    H231085   5.119   3.272   2.809 -1.8439 -0.7292  1.4673
 3224TIP3   OH231086   4.458   2.051  13.665 -0.1182  0.0091  0.7213
 3224TIP3    H131087   4.534   2.005  13.632  0.2933  2.0459 -1.4292
 3224TIP3    H231088   4.493   2.120  13.722  0.0020  2.4170 -2.0295
 3225TIP3   OH231089   1.109   5.328  17.113 -0.8291  0.5689 -0.1069
 3225TIP3    H131090   1.158   5.246  17.102  1.6334  1.9957 -0.4814
 3225TIP3    H231091   1.045   5.327  17.041 -1.0302 -1.1180  0.0563
 3226TIP3   OH231092   4.796   0.495   6.247 -0.0301 -0.1509  0.3383
 3226TIP3    H131093   4.722   0.437   6.230  0.1168 -0.3856  0.4939
 3226TIP3    H231094   4.861   0.440   6.290  1.0130 -0.4205 -1.4953
 3227TIP3   OH231095   5.882   4.397  14.620 -0.0505  0.5081  0.3942
 3227TIP3    H131096   5.841   4.393  14.706  1.4981 -0.5423  1.1303
 3227TIP3    H231097   5.935   4.477  14.623 -1.0986  1.2510 -0.1444
 3228TIP3   OH231098   5.862   5.195  13.812  0.2317  0.0706  0.6502
 3228TIP3    H131099   5.769   5.216  13.812  0.6647  2.3693 -1.1008
 3228TIP3    H231100   5.891   5.213  13.723  2.2463 -1.2063  0.9854
 3229TIP3   OH231101   0.051   5.370   2.075  0.1379 -0.5150 -0.4204
 3229TIP3    H131102   0.063   5.408   1.988 -2.6156  1.1763 -0.1882
 3229TIP3    H231103   0.019   5.443   2.129  0.1543 -1.8997  1.5723
 3230TIP3   OH231104   1.266   0.502   2.573  0.4364 -0.0522 -0.3721
 3230TIP3    H131105   1.310   0.422   2.601  0.0985 -0.7201 -1.6432
 3230TIP3    H231106   1.175   0.476   2.561  0.0965  0.8065  0.2562
 3231TIP3   OH231107   4.741   6.234   2.975  0.3258 -0.8016 -0.4098
 3231TIP3    H131108   4.686   6.272   3.044  0.2822  1.7493 -1.7505
 3231TIP3    H231109   4.828   6.271   2.992  1.0497 -2.5876  0.0190
 3232TIP3   OH231110   2.769   3.488  14.139  0.0335  0.3020  0.8232
 3232TIP3    H131111   2.720   3.560  14.179  1.9731  3.7559 -2.4015
 3232TIP3    H231112   2.853   3.487  14.186  0.4452  0.9861  0.1184
 3233TIP3   OH231113   0.068   3.042  16.984 -0.0563 -0.1006  0.4826
 3233TIP3    H131114  -0.020   3.012  16.960  0.2921 -0.6853 -0.0912
 3233TIP3    H231115   0.125   3.008  16.915  0.9629 -1.7055  2.0291
 3234TIP3   OH231116   4.212   1.091  14.465  0.4854 -0.5702 -0.0005
 3234TIP3    H131117   4.236   1.178  14.497 -0.7693 -0.5757  1.0350
 3234TIP3    H231118   4.217   1.035  14.543 -1.1474 -0.8989 -0.0979
 3235TIP3   OH231119   2.055   5.223  14.444  0.1301  0.7564 -0.0886
 3235TIP3    H131120   2.128   5.217  14.382  0.3213  0.0270  0.1974
 3235TIP3    H231121   2.055   5.139  14.489 -0.9300  0.7269 -0.1257
 3236TIP3   OH231122   0.360   5.360   1.222  0.3390 -0.2762 -0.1594
 3236TIP3    H131123   0.335   5.443   1.263  0.5005 -0.6866  0.8065
 3236TIP3    H231124   0.305   5.294   1.265  1.0541 -0.8204 -0.0620
 3237TIP3   OH231125   6.132   0.637  10.856 -0.4247 -0.8087  0.1647
 3237TIP3    H131126   6.116   0.653  10.949  0.9489  0.1572  0.2683
 3237TIP3    H231127   6.193   0.563  10.854  0.0252 -0.4415  0.0732
 3238TIP3   OH231128   3.750   4.179   4.284 -0.0866  0.6268  0.4027
 3238TIP3    H131129   3.754   4.099   4.336 -1.0968  0.4707  0.2593
 3238TIP3    H231130   3.806   4.161   4.208  0.7127  0.5447  0.9919
 3239TIP3   OH231131   5.640   4.693   2.547  0.8106 -0.1414 -0.1222
 3239TIP3    H131132   5.671   4.769   2.597 -0.1588  0.1118  0.1086
 3239TIP3    H231133   5.586   4.729   2.478  3.5596 -0.3485 -2.5733
 3240TIP3   OH231134   3.701   2.397  11.574  0.6737 -0.5678 -0.3313
 3240TIP3    H131135   3.711   2.305  11.599 -0.4856 -0.9981 -1.3331
 3240TIP3    H231136   3.679   2.394  11.480 -3.1564  0.4424  0.3524
 3241TIP3   OH231137   6.699   6.643   5.228 -0.0945  0.0008 -0.2926
 3241TIP3    H131138   6.615   6.598   5.229  0.4951 -1.1438 -0.6522
 3241TIP3    H231139   6.741   6.619   5.310  0.3425 -0.3741 -0.6130
 3242TIP3   OH231140   4.218   3.908   4.869  0.4851 -0.0510 -0.1581
 3242TIP3    H131141   4.124   3.898   4.850  0.2903 -1.3172  1.3491
 3242TIP3    H231142   4.227   3.884   4.961  2.2123  0.6860 -0.1016
 3243TIP3   OH231143   5.793   1.148  15.364 -0.6452 -0.1356 -0.3266
 3243TIP3    H131144   5.826   1.138  15.274  1.3698 -1.8615  0.5172
 3243TIP3    H231145   5.781   1.058  15.394  0.3273  0.3664  1.6859
 3244TIP3   OH231146   3.030   1.400  16.388 -0.2385 -0.4317  0.2074
 3244TIP3    H131147   3.056   1.338  16.456 -0.0697  1.8854  2.3851
 3244TIP3    H231148   2.940   1.423  16.409 -0.3393 -0.0015 -0.6360
 3245TIP3   OH231149   2.244   1.832   5.208 -0.0123 -0.4577 -0.1788
 3245TIP3    H131150   2.161   1.831   5.160  0.2449 -0.0346 -0.6412
 3245TIP3    H231151   2.311   1.828   5.140  0.3561 -0.0132  0.1509
 3246TIP3   OH231152   0.557   4.377  12.178  0.1352  0.4119  0.0242
 3246TIP3    H131153   0.515   4.412  12.100  1.6926  4.2973  0.7289
 3246TIP3    H231154   0.649   4.366  12.153  0.3487  0.2223  0.8621
 3247TIP3   OH231155   1.959   1.888   1.925 -0.5529 -0.3465  0.0707
 3247TIP3    H131156   1.914   1.967   1.955 -2.7088 -1.2809 -0.4624
 3247TIP3    H231157   1.948   1.826   1.996  2.6744  0.2797  1.2424
 3248TIP3   OH231158   1.394   6.690   4.792  0.0815  0.0331 -0.0372
 3248TIP3    H131159   1.470   6.719   4.741  1.5623  0.8276  2.4931
 3248TIP3    H231160   1.353   6.770   4.823 -0.5724 -0.4381  0.3440
 3249TIP3   OH231161   6.364   1.929   0.923  0.4203 -0.2478  0.3893
 3249TIP3    H131162   6.302   1.862   0.894 -0.1101  0.2818  0.2879
 3249TIP3    H231163   6.318   2.012   0.909  1.5697  0.2201 -0.7709
 3250TIP3   OH231164   4.399   4.073   5.730  0.2191 -0.1397 -0.3201
 3250TIP3    H131165   4.421   4.155   5.687 -1.7297  0.3149 -0.5034
 3250TIP3    H231166   4.308   4.082   5.757  0.0227 -2.1353 -0.1119
 3251TIP3   OH231167   3.528   2.090  13.937 -0.4912 -0.1106  0.2565
 3251TIP3    H131168   3.436   2.080  13.961 -0.6261 -1.7366 -0.7678
 3251TIP3    H231169   3.572   2.016  13.977  0.0655 -0.3000 -0.6736
 3252TIP3   OH231170   0.574   3.508   4.193  0.1930 -0.1098  0.2955
 3252TIP3    H131171   0.540   3.540   4.276  0.9212 -0.9051  0.9270
 3252TIP3    H231172   0.500   3.464   4.152  0.2831 -1.3582  1.4019
 3253TIP3   OH231173   1.284   0.926  15.406 -0.1832  0.2750  0.6485
 3253TIP3    H131174   1.308   0.969  15.488 -0.7180  0.7937  0.5394
 3253TIP3    H231175   1.193   0.953  15.390  0.0988  0.6543 -0.4128
 3254TIP3   OH231176   4.951   2.975   0.055  0.3448 -0.7423  0.6630
 3254TIP3    H131177   4.921   2.932  -0.025  1.9775 -1.9309  0.6278
 3254TIP3    H231178   5.046   2.959   0.057  1.1902  3.1855  0.5151
 3255TIP3   OH231179   6.045   3.327  12.628 -0.5096 -0.0731 -0.0697
 3255TIP3    H131180   6.019   3.337  12.536  0.4542 -0.5071 -0.4085
 3255TIP3    H231181   6.097   3.406  12.646 -0.9233  0.1435  0.1935
 3256TIP3   OH231182   1.912   6.358  12.798 -0.0503  0.0566 -0.1930
 3256TIP3    H131183   1.997   6.347  12.839 -0.7995 -0.9994  1.1614
 3256TIP3    H231184   1.858   6.287  12.834 -1.0235 -0.3727 -2.3245
 3257TIP3   OH231185   5.283   0.015   6.456 -0.4873  0.0378 -0.0168
 3257TIP3    H131186   5.221   0.050   6.391  0.4222  0.3223 -0.7540
 3257TIP3    H231187   5.312  -0.068   6.418  0.8773  0.7137 -0.5420
 3258TIP3   OH231188   2.432   2.709   4.191 -0.1224  0.1539 -0.1041
 3258TIP3    H131189   2.375   2.754   4.129  0.6385  2.5763  0.8534
 3258TIP3    H231190   2.451   2.774   4.258  2.4157 -1.0866  0.5019
 3259TIP3   OH231191   1.241   5.702   0.817 -0.7408 -0.4029  0.1742
 3259TIP3    H131192   1.155   5.702   0.776 -1.3427  0.3166  1.3860
 3259TIP3    H231193   1.227   5.662   0.903  0.0780 -0.0578  0.4793
 3260TIP3   OH231194   5.733   6.587   5.946  0.2508 -0.1954  0.0587
 3260TIP3    H131195   5.815   6.583   5.995  0.2953  0.3789  0.0362
 3260TIP3    H231196   5.759   6.587   5.855  0.1700 -1.2100  0.0240
 3261TIP3   OH231197   3.065   1.393  12.681 -0.5436 -0.3879  0.0591
 3261TIP3    H131198   3.137   1.452  12.699  0.6118 -1.8809  0.5452
 3261TIP3    H231199   2.989   1.435  12.720  0.1468  0.9658 -0.0072
 3262TIP3   OH231200   5.963   3.366   2.555 -0.0260 -0.1705 -0.8459
 3262TIP3    H131201   6.013   3.437   2.516 -0.1721 -0.2814 -1.2329
 3262TIP3    H231202   5.988   3.369   2.648  1.0229 -0.4892 -1.0968
 3263TIP3   OH231203   0.632   6.322  13.993 -0.4401 -0.1286  0.0313
 3263TIP3    H131204   0.717   6.335  14.036 -1.4603  2.0383  1.6013
 3263TIP3    H231205   0.572   6.378  14.043 -3.1650 -2.8038 -0.0027
 3264TIP3   OH231206   5.799   3.982  16.930 -0.1364 -0.2703 -0.2508
 3264TIP3    H131207   5.713   4.012  16.900 -0.8675 -0.0967  1.8334
 3264TIP3    H231208   5.782   3.943  17.016  2.2923  2.9154  1.9401
 3265TIP3   OH231209   2.299   1.374  15.442  0.1590 -0.2992  0.8454
 3265TIP3    H131210   2.282   1.305  15.377 -0.5075  3.4658 -3.4657
 3265TIP3    H231211   2.213   1.411  15.461  0.4510 -0.7971  3.4583
 3266TIP3   OH231212   3.890   0.132  16.367 -0.3928 -0.7549  0.1822
 3266TIP3    H131213   3.914   0.067  16.301  4.2723  0.0703  0.7112
 3266TIP3    H231214   3.903   0.086  16.450 -1.5161 -0.3917  0.5716
 3267TIP3   OH231215   4.778   5.391  12.832 -0.1542 -0.0788  0.1081
 3267TIP3    H131216   4.728   5.333  12.775  0.6633 -1.5616  0.8208
 3267TIP3    H231217   4.825   5.449  12.773  0.8030 -1.6776 -0.7982
 3268TIP3   OH231218   1.087   4.932   6.852  0.0764  0.3403 -0.5433
 3268TIP3    H131219   1.141   4.912   6.928  0.1728  1.2075 -0.3759
 3268TIP3    H231220   1.032   4.854   6.840 -0.6798  0.5941  1.0435
 3269TIP3   OH231221   2.752   6.281   3.851 -0.4054  0.4025 -0.3671
 3269TIP3    H131222   2.669   6.270   3.897 -0.5473 -0.7021 -0.8430
 3269TIP3    H231223   2.759   6.203   3.796  2.0901 -0.7604  1.4327
 3270TIP3   OH231224   5.964   4.843  14.959  0.2514 -0.4573  0.2105
 3270TIP3    H131225   6.019   4.897  15.015 -2.2929  0.5791  1.8934
 3270TIP3    H231226   6.006   4.847  14.873  3.1250 -0.3440  1.4988
 3271TIP3   OH231227   4.167   3.706  12.099 -0.1228  0.0037  0.0296
 3271TIP3    H131228   4.134   3.787  12.137  0.9976  0.5468 -0.1308
 3271TIP3    H231229   4.257   3.725  12.073  0.1250 -1.2491 -0.1396
 3272TIP3   OH231230   4.394   6.502   5.233 -0.5353  0.1925  0.9350
 3272TIP3    H131231   4.357   6.588   5.212  0.2909  0.1957 -0.6515
 3272TIP3    H231232   4.467   6.492   5.172 -0.9202 -1.8472  0.7484
 3273TIP3   OH231233   0.572   2.698  11.509  0.2970 -0.3012 -0.3645
 3273TIP3    H131234   0.478   2.689  11.495 -0.0490  1.6001  0.4512
 3273TIP3    H231235   0.607   2.728  11.425  0.2659 -1.4047 -0.7878
 3274TIP3   OH231236   2.788   4.204  12.412  0.7663 -0.1407  0.1517
 3274TIP3    H131237   2.812   4.291  12.381  0.1346  0.4262  1.2028
 3274TIP3    H231238   2.698   4.192  12.381  1.3042 -1.0167 -1.1831
 3275TIP3   OH231239   4.190   4.632   0.184  0.3788  0.1855  0.3909
 3275TIP3    H131240   4.113   4.645   0.239 -1.1780  0.2893 -1.6659
 3275TIP3    H231241   4.174   4.548   0.141  0.6227  0.9004 -1.1834
 3276TIP3   OH231242   0.044   1.472   0.211  0.0813 -0.3102  0.5337
 3276TIP3    H131243  -0.005   1.503   0.287 -0.8682 -0.6209  0.0563
 3276TIP3    H231244   0.133   1.505   0.225 -0.4034  0.8030  1.0918
 3277TIP3   OH231245   0.162   5.939   2.932  0.0842 -0.0667 -0.2891
 3277TIP3    H131246   0.153   6.019   2.880  1.4299  1.5214  1.7576
 3277TIP3    H231247   0.253   5.912   2.918 -0.0522 -0.6252 -0.1160
 3278TIP3   OH231248   3.134   0.298   0.055  0.0555  0.1456 -0.2207
 3278TIP3    H131249   3.078   0.222   0.040  1.1660 -0.8552  0.5128
 3278TIP3    H231250   3.096   0.367   0.000 -2.6155 -0.0800  1.1781
 3279TIP3   OH231251   1.170   3.130  14.792  0.6396  0.0738  0.0529
 3279TIP3    H131252   1.078   3.122  14.815  1.1203 -0.2488  2.1256
 3279TIP3    H231253   1.171   3.151  14.699 -1.4786 -0.7104 -0.1806
 3280TIP3   OH231254   1.759   6.583  12.851 -0.0249 -0.1660  0.0204
 3280TIP3    H131255   1.712   6.606  12.771  0.7330 -1.2578 -0.7755
 3280TIP3    H231256   1.798   6.498  12.832 -1.0468 -1.1769  2.0990
 3281TIP3   OH231257   5.364   1.224  11.900 -0.3179 -0.5143  0.1281
 3281TIP3    H131258   5.363   1.257  11.990  1.6504  0.4940 -0.1533
 3281TIP3    H231259   5.333   1.298  11.848 -2.0950 -1.3122 -0.0169
 3282TIP3   OH231260   4.516   2.551  17.142 -0.3015 -0.3026 -0.3739
 3282TIP3    H131261   4.555   2.636  17.123 -1.0344  0.0284 -0.4320
 3282TIP3    H231262   4.575   2.512  17.206 -1.5460  1.5968  2.1396
 3283TIP3   OH231263   6.278   0.444   1.218  0.2183  0.3632 -0.6690
 3283TIP3    H131264   6.226   0.453   1.298 -0.4389  0.3471 -1.0826
 3283TIP3    H231265   6.227   0.490   1.152  0.4786 -0.1064 -1.2039
 3284TIP3   OH231266   1.791   5.733   2.926  0.4025  0.4937  0.1900
 3284TIP3    H131267   1.754   5.659   2.878  0.0667  1.2572 -0.7587
 3284TIP3    H231268   1.819   5.696   3.009 -1.0066 -0.4274  0.2821
 3285TIP3   OH231269   3.899   5.480   5.970  0.4505  0.0204  0.0988
 3285TIP3    H131270   3.909   5.563   5.923  1.1320 -0.8011 -1.2668
 3285TIP3    H231271   3.810   5.484   6.006  0.9963  1.9578  1.3564
 3286TIP3   OH231272   3.923   1.285  16.066  0.1481 -0.0432 -0.2022
 3286TIP3    H131273   3.841   1.241  16.041  1.0914 -2.6720  0.9834
 3286TIP3    H231274   3.895   1.370  16.099 -2.2336 -1.1622  0.8934
 3287TIP3   OH231275   5.415   4.713   1.178  0.5349 -0.3996  0.1755
 3287TIP3    H131276   5.502   4.726   1.215  0.4295  0.4482  0.1531
 3287TIP3    H231277   5.355   4.749   1.244  0.3009  0.3956 -0.4463
 3288TIP3   OH231278   2.520   5.233   3.122 -0.4163  0.1373  0.2362
 3288TIP3    H131279   2.500   5.267   3.209 -2.6044 -0.7800  0.1482
 3288TIP3    H231280   2.494   5.303   3.062  0.3920  0.4724  0.2565
 3289TIP3   OH231281   0.971   6.244  12.712 -0.0001  0.0459  0.3352
 3289TIP3    H131282   0.893   6.300  12.714  1.0672  1.6799  3.7313
 3289TIP3    H231283   0.946   6.171  12.655 -3.2709  1.4754 -0.3105
 3290TIP3   OH231284   4.529   1.069  12.280  0.1515  0.2801  0.1301
 3290TIP3    H131285   4.522   1.105  12.368 -1.6205 -0.8681  0.5251
 3290TIP3    H231286   4.439   1.071  12.246  0.6649 -0.0516 -1.3460
 3291TIP3   OH231287   0.656   3.780  15.505 -0.4321  0.2108  0.7344
 3291TIP3    H131288   0.678   3.809  15.594  0.2730 -0.4943  0.7931
 3291TIP3    H231289   0.612   3.696  15.518  1.2025 -0.7433  0.3373
 3292TIP3   OH231290   3.589   3.551   1.868  0.1941  0.3695 -0.0545
 3292TIP3    H131291   3.560   3.595   1.788  1.8429  0.5423 -0.5983
 3292TIP3    H231292   3.682   3.569   1.873  0.4017 -0.8431  1.1579
 3293TIP3   OH231293   0.273   1.782   4.378  0.3495 -0.5742 -0.5986
 3293TIP3    H131294   0.190   1.737   4.392 -0.4866  1.3980  1.3403
 3293TIP3    H231295   0.275   1.800   4.284 -2.5397  1.2317 -0.4392
 3294TIP3   OH231296   4.189   3.433  14.482 -0.6247  0.6294 -0.4982
 3294TIP3    H131297   4.115   3.493  14.478 -0.9938  0.4442  2.0047
 3294TIP3    H231298   4.262   3.481  14.443 -1.5575  1.6252 -1.0603
 3295TIP3   OH231299   1.221   6.310   2.465 -0.2845 -0.0964 -0.0212
 3295TIP3    H131300   1.143   6.255   2.458  0.4773 -1.5121  1.7852
 3295TIP3    H231301   1.294   6.250   2.447  0.5776  0.2067  2.2074
 3296TIP3   OH231302   6.253   6.287  14.623  0.2653 -0.7064  0.5357
 3296TIP3    H131303   6.204   6.369  14.633 -0.2624 -0.9512  0.0172
 3296TIP3    H231304   6.276   6.262  14.712  2.5690  1.2585  0.6059
 3297TIP3   OH231305   5.691   4.941  15.925 -0.7694 -0.3097  0.3429
 3297TIP3    H131306   5.735   4.888  15.859 -1.5460 -0.3161 -0.1782
 3297TIP3    H231307   5.679   5.026  15.883  0.8945  0.4792  1.3310
 3298TIP3   OH231308   3.062   1.041   4.197 -0.0013  0.4728 -0.3868
 3298TIP3    H131309   3.133   1.039   4.133  0.9629 -1.7929  0.6127
 3298TIP3    H231310   3.016   0.958   4.184  1.1896 -0.8579  2.7660
 3299TIP3   OH231311   1.527   0.524   0.819  0.1438 -0.0940  1.1224
 3299TIP3    H131312   1.547   0.617   0.810  0.7063 -0.2327  0.9207
 3299TIP3    H231313   1.437   0.516   0.787  0.9519 -0.0349 -1.3538
 3300TIP3   OH231314   6.015   3.766  13.998  0.4605 -0.2886  0.7999
 3300TIP3    H131315   5.931   3.792  13.960  1.4666 -0.0669 -1.5116
 3300TIP3    H231316   6.073   3.841  13.981  1.2063 -0.5289  2.1329
 3301TIP3   OH231317   0.391   4.783   5.134  0.2083 -0.2597  0.1967
 3301TIP3    H131318   0.298   4.798   5.117  0.1201 -1.1686 -0.1675
 3301TIP3    H231319   0.394   4.756   5.226 -0.2225 -2.7850 -0.4695
 3302TIP3   OH231320   3.076   5.953   6.724  0.1566  0.2680 -0.5810
 3302TIP3    H131321   3.167   5.953   6.753  0.1780 -0.1854 -0.6404
 3302TIP3    H231322   3.041   5.870   6.755 -0.2975  0.5359 -0.3748
 3303TIP3   OH231323   3.341   0.894  12.201 -0.2672 -0.1400  0.7717
 3303TIP3    H131324   3.298   0.921  12.120 -0.2296 -0.5123  0.6222
 3303TIP3    H231325   3.395   0.819  12.175  0.3909  0.2510  0.9726
 3304TIP3   OH231326   4.206   2.471  13.293 -0.1755  1.0195 -0.7497
 3304TIP3    H131327   4.181   2.449  13.203  0.9901 -0.7308 -0.6962
 3304TIP3    H231328   4.190   2.391  13.342 -1.6845  2.2310  0.8441
 3305TIP3   OH231329   3.957   6.336   5.174  0.0922 -0.6958 -0.1922
 3305TIP3    H131330   4.021   6.321   5.243  0.5475  1.6520 -0.0189
 3305TIP3    H231331   4.008   6.338   5.093  0.0175 -0.3726 -0.2327
 3306TIP3   OH231332   4.314   3.756  12.452 -0.0762  0.2766  0.0270
 3306TIP3    H131333   4.323   3.661  12.464 -0.8478  0.0117 -1.2865
 3306TIP3    H231334   4.402   3.785  12.428 -0.1667 -0.4221 -1.2946
 3307TIP3   OH231335   6.369   3.873  11.868 -0.7341  0.1631 -0.1244
 3307TIP3    H131336   6.278   3.885  11.838 -1.7647 -0.8404  2.3391
 3307TIP3    H231337   6.407   3.960  11.863 -2.2026  0.8401 -0.1570
 3308TIP3   OH231338   4.642   5.229   3.171  0.3287 -0.2684 -0.0003
 3308TIP3    H131339   4.722   5.178   3.160 -0.9441 -2.4877  0.5204
 3308TIP3    H231340   4.605   5.236   3.084  1.3172  1.2986 -0.3507
 3309TIP3   OH231341   2.508   4.317   0.383 -0.2526 -0.0264 -0.1960
 3309TIP3    H131342   2.529   4.400   0.426  1.7061  0.1777 -1.4114
 3309TIP3    H231343   2.419   4.297   0.412 -1.3120  3.1314 -0.8365
 3310TIP3   OH231344   1.766   5.963   1.986 -0.0412  0.1702 -0.3356
 3310TIP3    H131345   1.862   5.958   1.987 -0.0755 -2.4412 -1.3058
 3310TIP3    H231346   1.746   6.033   1.925  1.2680  0.0927 -0.8849
 3311TIP3   OH231347   1.236   5.743  15.424  0.4316  0.2507 -0.0250
 3311TIP3    H131348   1.142   5.746  15.405  0.5997 -0.5070 -1.0514
 3311TIP3    H231349   1.251   5.818  15.481 -0.9294 -0.0508  0.7687
 3312TIP3   OH231350   5.208   6.753  13.948 -0.2484  0.1734 -0.0145
 3312TIP3    H131351   5.276   6.815  13.920 -0.3576  0.5560  0.5551
 3312TIP3    H231352   5.250   6.701  14.017  0.0423 -0.8158 -0.8992
 3313TIP3   OH231353   4.709   4.686   5.941  0.0190 -0.9658 -0.6322
 3313TIP3    H131354   4.632   4.631   5.955  0.4150 -1.5463 -0.6854
 3313TIP3    H231355   4.674   4.773   5.923 -0.5963 -0.9427  0.5750
 3314TIP3   OH231356   2.203   6.088   5.236  0.0317  0.1828 -0.0807
 3314TIP3    H131357   2.176   6.115   5.148  0.5766 -0.3621 -0.4238
 3314TIP3    H231358   2.180   5.995   5.241  0.9330 -0.0461 -0.0314
 3315TIP3   OH231359   1.836   0.172   4.908  0.2643 -0.1098 -0.4533
 3315TIP3    H131360   1.779   0.181   4.984 -0.4979 -0.5429 -0.9532
 3315TIP3    H231361   1.792   0.223   4.840  0.8549  0.1439 -0.6423
 3316TIP3   OH231362   4.613   3.945   3.116  0.1640  0.3709 -0.2324
 3316TIP3    H131363   4.624   3.942   3.211  2.0415 -0.5716 -0.4446
 3316TIP3    H231364   4.579   3.858   3.093  1.8814 -0.2192 -0.6357
 3317TIP3   OH231365   3.141   2.214  10.506 -0.0952 -0.2151  0.1171
 3317TIP3    H131366   3.107   2.156  10.574 -1.4358  0.6340  0.2286
 3317TIP3    H231367   3.212   2.262  10.549 -0.4082 -0.2457  0.6858
 3318TIP3   OH231368   3.675   2.181  13.411 -0.6691  0.0861 -0.5132
 3318TIP3    H131369   3.610   2.194  13.480 -2.3357  1.2515 -2.2138
 3318TIP3    H231370   3.624   2.163  13.333  1.2007 -4.6121 -0.9465
 3319TIP3   OH231371   6.476   2.537  14.148  0.1181  0.0104 -0.2021
 3319TIP3    H131372   6.526   2.585  14.214  0.0627 -0.5380  0.2475
 3319TIP3    H231373   6.472   2.447  14.181 -2.0427  0.2400  0.2925
 3320TIP3   OH231374   1.955   1.995   5.183  0.2591  0.5595  0.0442
 3320TIP3    H131375   1.970   1.923   5.123 -0.2721 -0.2566  0.8749
 3320TIP3    H231376   1.930   1.954   5.266  2.7079  1.5380  1.4018
 3321TIP3   OH231377   5.027   1.714  12.885 -0.5104 -0.0914 -0.0512
 3321TIP3    H131378   5.094   1.679  12.825 -0.7029 -0.8981  0.1899
 3321TIP3    H231379   4.979   1.778  12.832  0.7240  0.8337 -0.0964
 3322TIP3   OH231380   1.599   4.000  14.700  0.3169 -0.0286  0.6155
 3322TIP3    H131381   1.579   3.954  14.619  0.1701 -0.3059  0.8081
 3322TIP3    H231382   1.598   4.093  14.676 -0.1864 -0.0839  0.3960
 3323TIP3   OH231383   5.735   0.358  12.701 -0.0601  0.3336 -0.3758
 3323TIP3    H131384   5.733   0.443  12.657  1.0878  0.0634 -0.9903
 3323TIP3    H231385   5.817   0.358  12.750  0.8242 -1.0531 -1.7545
 3324TIP3   OH231386   1.959   6.355   3.425 -0.2227 -0.2394  0.0966
 3324TIP3    H131387   1.867   6.334   3.408  0.7049 -3.4453 -1.9561
 3324TIP3    H231388   1.993   6.383   3.340  0.7610  0.9544  0.8412
 3325TIP3   OH231389   1.004   5.107   1.179  0.2342 -0.4535  0.0536
 3325TIP3    H131390   1.009   5.192   1.136 -2.0052 -0.5312 -0.4751
 3325TIP3    H231391   1.033   5.124   1.269  2.6724  0.1980 -0.7755
 3326TIP3   OH231392   2.776   3.212   5.679 -0.3031  0.4329  0.1194
 3326TIP3    H131393   2.747   3.214   5.587  1.5636  1.4188 -0.4943
 3326TIP3    H231394   2.699   3.182   5.727 -1.0877 -0.9608 -1.8582
 3327TIP3   OH231395   3.453   6.091   3.548 -0.6601 -0.3664 -0.3810
 3327TIP3    H131396   3.478   6.067   3.459 -1.0355 -0.6918 -0.4028
 3327TIP3    H231397   3.383   6.156   3.536 -0.6148 -0.3068 -0.3235
 3328TIP3   OH231398   5.914   5.739  11.699 -0.0073 -0.1178 -0.5679
 3328TIP3    H131399   5.950   5.654  11.726  3.0620  1.4994  0.9779
 3328TIP3    H231400   5.962   5.760  11.619 -1.0955 -0.0217 -1.2046
 3329TIP3   OH231401   5.896   0.472   1.293 -0.4067  0.2316  0.1396
 3329TIP3    H131402   5.922   0.537   1.358  0.8224  0.0197 -0.1269
 3329TIP3    H231403   5.855   0.524   1.224 -0.5635  0.5900  0.4928
 3330TIP3   OH231404   1.267   1.237  16.541 -0.1495  0.0363 -0.3673
 3330TIP3    H131405   1.307   1.261  16.625  0.7756 -2.4707 -0.0032
 3330TIP3    H231406   1.173   1.250  16.555  0.2064  4.1287 -0.5804
 3331TIP3   OH231407   1.165   0.455   1.810  0.2029  0.0393 -0.1336
 3331TIP3    H131408   1.239   0.434   1.753  1.8960 -0.8650  2.2051
 3331TIP3    H231409   1.137   0.542   1.782  1.8207  0.1967 -1.4328
 3332TIP3   OH231410   1.946   4.001  12.206 -0.4084 -0.2159  0.5982
 3332TIP3    H131411   1.958   4.096  12.210  1.2758 -0.2668 -1.5320
 3332TIP3    H231412   1.985   3.969  12.288  0.4163  0.8144  0.6333
 3333TIP3   OH231413   3.156   4.897   4.232  0.1136  0.3489 -0.1198
 3333TIP3    H131414   3.090   4.931   4.293 -0.3104 -1.4435  0.4966
 3333TIP3    H231415   3.221   4.854   4.289  0.8243  0.4701 -0.8283
 3334TIP3   OH231416   5.279   1.605  14.041 -0.3763 -0.3782  0.2656
 3334TIP3    H131417   5.248   1.516  14.028  0.3692 -0.6952  0.5885
 3334TIP3    H231418   5.355   1.596  14.098  0.5830  0.3121 -0.8522
 3335TIP3   OH231419   5.954   2.804   0.472  0.2285 -0.2324  0.2075
 3335TIP3    H131420   5.979   2.746   0.544 -0.9119 -0.5810  0.3442
 3335TIP3    H231421   5.929   2.886   0.515 -0.8133 -0.5638  0.2550
 3336TIP3   OH231422   1.960   5.596  10.662 -0.3070  0.1095  0.7354
 3336TIP3    H131423   1.981   5.505  10.684  2.1702  0.5868  0.5934
 3336TIP3    H231424   2.022   5.619  10.594  0.4227  2.4800  2.0865
 3337TIP3   OH231425   3.663   6.364  11.926  0.0767 -0.0141  0.3904
 3337TIP3    H131426   3.736   6.332  11.978  0.2631 -0.3797 -0.0884
 3337TIP3    H231427   3.688   6.344  11.836  0.7638  2.5511 -0.0634
 3338TIP3   OH231428   4.484   2.759   1.109 -0.7341 -0.0146 -0.1736
 3338TIP3    H131429   4.466   2.837   1.162 -0.1162  1.5021 -2.0482
 3338TIP3    H231430   4.577   2.741   1.125 -0.5010  0.5520 -0.8133
 3339TIP3   OH231431   2.112   5.858  13.745 -0.1797  0.0219 -0.0889
 3339TIP3    H131432   2.070   5.933  13.785 -0.1451 -0.5112  0.9982
 3339TIP3    H231433   2.204   5.885  13.734 -0.4626  0.6281 -1.0180
 3340TIP3   OH231434   3.815   3.131  17.340  0.3141 -0.0626 -0.4983
 3340TIP3    H131435   3.807   3.060  17.404  0.4564  1.0739  0.8160
 3340TIP3    H231436   3.734   3.181  17.349  0.5577  0.4033 -0.8431
 3341TIP3   OH231437   6.235   5.205  12.020 -0.4767  0.1749  0.2925
 3341TIP3    H131438   6.329   5.219  12.008 -0.2120 -1.3643  0.4544
 3341TIP3    H231439   6.201   5.292  12.041  1.2973  0.4077  2.6751
 3342TIP3   OH231440   0.755   0.286  16.956  0.0859  0.1990  0.8118
 3342TIP3    H131441   0.792   0.357  16.904  0.9258 -0.5493  0.3729
 3342TIP3    H231442   0.665   0.315  16.975 -0.9682 -0.3438 -2.7400
 3343TIP3   OH231443   3.912   1.847  13.784  0.1018 -0.2599 -0.1753
 3343TIP3    H131444   3.992   1.825  13.736 -0.6863  0.9473 -2.2060
 3343TIP3    H231445   3.934   1.927  13.832  0.2555 -0.1962 -0.3493
 3344TIP3   OH231446   1.037   5.413  15.907 -0.1996 -0.5586 -0.1161
 3344TIP3    H131447   1.060   5.505  15.889 -2.3160 -0.0396 -0.4811
 3344TIP3    H231448   0.952   5.402  15.864 -0.3453 -2.4763  0.6133
 3345TIP3   OH231449   2.525   2.306  11.219 -0.1276  0.2884 -0.4078
 3345TIP3    H131450   2.435   2.309  11.251  0.2065 -0.3148  0.6402
 3345TIP3    H231451   2.520   2.263  11.135 -0.6943 -0.8024  0.1706
 3346TIP3   OH231452   0.756   4.219  15.165  0.0913  0.2624 -0.2879
 3346TIP3    H131453   0.718   4.223  15.253 -1.1841  0.7507 -0.8401
 3346TIP3    H231454   0.780   4.309  15.145 -1.1779  0.4630 -1.0678
 3347TIP3   OH231455   2.424   4.613   4.828 -0.1216  0.3247 -0.4240
 3347TIP3    H131456   2.372   4.601   4.748 -0.6632 -0.3226  0.0167
 3347TIP3    H231457   2.513   4.592   4.802 -0.3171 -0.0061 -0.8313
 3348TIP3   OH231458   0.851   0.797   4.010 -0.3036  0.0725 -0.2933
 3348TIP3    H131459   0.778   0.824   3.955 -0.0677  0.9906 -0.1719
 3348TIP3    H231460   0.913   0.869   4.004  0.3634 -0.4682  0.0208
 3349TIP3   OH231461   6.550   3.929   5.257  0.1525 -0.2463 -0.4986
 3349TIP3    H131462   6.566   3.838   5.281  1.8354 -0.4448 -2.1170
 3349TIP3    H231463   6.568   3.932   5.163  1.0957  1.9448 -0.3028
 3350TIP3   OH231464   3.076   2.961  13.738 -0.0266  0.1144 -0.1017
 3350TIP3    H131465   3.145   2.974  13.673  0.1863 -3.5400 -0.7785
 3350TIP3    H231466   3.012   2.905  13.695 -1.4732  0.1653  1.8429
 3351TIP3   OH231467   2.471   3.755  13.937 -0.7738  0.2544  0.0756
 3351TIP3    H131468   2.405   3.761  14.005 -1.0762  0.8578 -0.2676
 3351TIP3    H231469   2.500   3.663  13.940 -0.4345  0.3849  1.3289
 3352TIP3   OH231470   2.862   1.964  11.374 -0.2361  0.2131 -0.1359
 3352TIP3    H131471   2.819   1.911  11.307  0.1748  0.3283 -0.4951
 3352TIP3    H231472   2.808   1.953  11.452  0.0397 -1.0384 -0.0968
 3353TIP3   OH231473   0.564   0.779   2.608  0.7366  0.4024  0.9620
 3353TIP3    H131474   0.643   0.729   2.628  1.1102  0.5267 -0.1345
 3353TIP3    H231475   0.593   0.870   2.607  0.4464  0.4960  1.1762
 3354TIP3   OH231476   3.717   5.892   0.900 -0.1311 -0.1278  0.0617
 3354TIP3    H131477   3.726   5.977   0.942  0.0748  0.0875 -0.4103
 3354TIP3    H231478   3.646   5.849   0.948 -2.0909  1.3465 -1.3376
 3355TIP3   OH231479   1.884   1.655   2.567  0.2192  0.3276 -0.2271
 3355TIP3    H131480   1.884   1.743   2.530  0.0927  0.3488 -0.1785
 3355TIP3    H231481   1.950   1.658   2.636 -1.1777  0.9624  1.1309
 3356TIP3   OH231482   3.739   6.470   3.530  0.6570 -0.0624 -0.3315
 3356TIP3    H131483   3.784   6.409   3.472  0.2428 -0.3448 -0.3615
 3356TIP3    H231484   3.686   6.524   3.472 -0.1252 -0.6583 -0.1837
 3357TIP3   OH231485   4.798   6.045   2.524  0.3389 -0.1730 -0.2127
 3357TIP3    H131486   4.856   6.108   2.481 -1.1018  0.6644 -1.0239
 3357TIP3    H231487   4.759   6.095   2.596  1.3639 -1.0337  0.9794
 3358TIP3   OH231488   5.623   6.464   1.592  0.0309 -0.0872  0.3614
 3358TIP3    H131489   5.701   6.515   1.572 -0.7065  0.9648  0.0351
 3358TIP3    H231490   5.568   6.523   1.643 -2.0167  0.5043 -2.2823
 3359TIP3   OH231491   6.709   2.546  13.723  0.1569  0.2897  0.5632
 3359TIP3    H131492   6.699   2.573  13.814 -2.0382 -2.3211  1.2549
 3359TIP3    H231493   6.677   2.620  13.671  0.6277  1.4758  1.9182
 3360TIP3   OH231494   4.856   2.504   2.075 -0.1931 -0.1536  0.1245
 3360TIP3    H131495   4.892   2.588   2.047 -0.3142  0.1344  0.8146
 3360TIP3    H231496   4.930   2.444   2.072 -0.2126 -0.1579 -0.8651
 3361TIP3   OH231497   4.230   0.136  12.703  0.0078  0.2780 -0.3525
 3361TIP3    H131498   4.187   0.174  12.780 -1.0931  1.6550 -1.5772
 3361TIP3    H231499   4.166   0.075  12.667  0.4918 -0.3145 -0.2232
 3362TIP3   OH231500   0.782   5.144  17.099  0.1328  0.2791  0.0367
 3362TIP3    H131501   0.780   5.121  17.006 -0.7527 -1.1632  0.3809
 3362TIP3    H231502   0.827   5.071  17.141  1.0592  1.1993  0.6848
 3363TIP3   OH231503   2.045   4.464  11.566  0.0760 -0.0899  0.4460
 3363TIP3    H131504   1.974   4.524  11.545  1.3249  1.9327  1.7213
 3363TIP3    H231505   2.083   4.442  11.480  0.1760  1.7382 -0.0235
 3364TIP3   OH231506   3.425   2.038   2.896  0.2994  0.1659  0.2564
 3364TIP3    H131507   3.452   2.019   2.806  1.1478 -1.7579  0.8688
 3364TIP3    H231508   3.397   2.130   2.894  0.0440  0.0929 -2.0134
 3365TIP3   OH231509   2.238   1.311   0.429  0.6386 -1.0948 -0.2758
 3365TIP3    H131510   2.181   1.374   0.473  1.1732 -1.4863  1.0056
 3365TIP3    H231511   2.196   1.226   0.442  1.6496 -1.4300  0.9560
 3366TIP3   OH231512   2.986   2.824   4.466  0.1105 -0.0745 -0.4119
 3366TIP3    H131513   2.920   2.770   4.423 -0.5246  1.5975 -1.6441
 3366TIP3    H231514   3.039   2.858   4.393  0.2436  1.2660  0.2917
 3367TIP3   OH231515   1.286   6.010   2.880 -0.0482 -0.1801 -0.3828
 3367TIP3    H131516   1.370   5.965   2.874 -0.7867 -1.9802  1.2258
 3367TIP3    H231517   1.246   5.998   2.794 -0.4539 -3.3276  0.1177
 3368TIP3   OH231518   5.132   5.135   2.652  0.2100  0.0589  0.0752
 3368TIP3    H131519   5.076   5.061   2.676  1.4647 -0.8741  0.2320
 3368TIP3    H231520   5.130   5.137   2.556  1.4744 -1.2745 -0.0194
 3369TIP3   OH231521   3.957   3.591  14.412  0.0671  0.1448  0.3429
 3369TIP3    H131522   3.964   3.611  14.319  1.6722 -0.8589  0.2082
 3369TIP3    H231523   3.880   3.533  14.418  1.1720 -1.5081 -0.7095
 3370TIP3   OH231524   4.968   0.376   3.101 -0.5234 -0.0354  0.2793
 3370TIP3    H131525   4.917   0.315   3.153  1.1560 -0.8783  1.0095
 3370TIP3    H231526   4.966   0.340   3.012 -1.7192  0.3176  0.1416
 3371TIP3   OH231527   3.525   6.514   5.727  0.1345 -0.4418  0.0479
 3371TIP3    H131528   3.575   6.533   5.648  0.3711 -1.5601 -0.0774
 3371TIP3    H231529   3.450   6.463   5.697  0.7178 -1.6863  0.6541
 3372TIP3   OH231530   1.630   1.067  14.669 -0.0410  0.3018 -0.9294
 3372TIP3    H131531   1.592   0.985  14.636  1.7670 -1.3448  0.8461
 3372TIP3    H231532   1.576   1.089  14.745 -1.7748  1.9527 -2.5421
 3373TIP3   OH231533   5.607   1.655  11.084  0.0048  0.8937 -0.7510
 3373TIP3    H131534   5.516   1.667  11.057  0.2912  1.9841 -1.3027
 3373TIP3    H231535   5.628   1.734  11.133  0.4558  0.3365 -0.0245
 3374TIP3   OH231536   2.332   2.264   1.008  0.5321 -0.4910  0.0340
 3374TIP3    H131537   2.270   2.273   1.081  1.8916  1.2202  1.0325
 3374TIP3    H231538   2.281   2.219   0.940 -0.9086 -1.8122  1.8515
 3375TIP3   OH231539   1.033   4.034  11.524 -0.0044 -0.4697  0.2729
 3375TIP3    H131540   1.030   4.068  11.614 -1.2203 -1.0151  0.4682
 3375TIP3    H231541   0.944   4.049  11.491  0.7803  0.9029 -1.3061
 3376TIP3   OH231542   5.978   0.653   4.445  0.0214 -0.0980  0.4348
 3376TIP3    H131543   5.946   0.691   4.527 -1.9203 -1.6495  0.4624
 3376TIP3    H231544   5.961   0.719   4.379  1.2722  1.0257  1.1697
 3377TIP3   OH231545   1.784   5.268   1.980  0.2331  0.0969  0.1327
 3377TIP3    H131546   1.874   5.291   1.955  0.1495 -0.5805 -0.8422
 3377TIP3    H231547   1.771   5.181   1.943 -1.4928  0.9727 -1.5259
 3378TIP3   OH231548   1.674   0.441   2.353  0.1001  0.2518  0.0341
 3378TIP3    H131549   1.715   0.518   2.313  0.0177  0.2080 -0.1372
 3378TIP3    H231550   1.747   0.380   2.367  0.1688  0.3694  0.1909
 3379TIP3   OH231551   6.725   4.269   5.055 -0.0244  0.0521 -0.1175
 3379TIP3    H131552   6.785   4.220   5.112 -0.7880  0.3886  1.0274
 3379TIP3    H231553   6.782   4.315   4.994  1.0671  1.7102  1.9915
 3380TIP3   OH231554   4.047   6.484   3.077 -0.1122  0.1565 -0.3309
 3380TIP3    H131555   4.124   6.478   3.133 -0.1937  0.0765 -0.2277
 3380TIP3    H231556   4.007   6.398   3.080 -0.5957  0.3927  0.1767
 3381TIP3   OH231557   6.237   1.406  11.327 -0.1173  0.5448  0.4523
 3381TIP3    H131558   6.307   1.380  11.386  1.2427  0.8013 -0.9780
 3381TIP3    H231559   6.245   1.347  11.252 -2.5271 -0.5386  0.9293
 3382TIP3   OH231560   6.368   4.605   1.780 -0.5490  0.3159  0.2184
 3382TIP3    H131561   6.430   4.558   1.835 -0.6838  0.4539  0.4965
 3382TIP3    H231562   6.337   4.677   1.836 -1.9594 -0.5244  0.5691
 3383TIP3   OH231563   4.881   2.592  16.125 -0.7469 -0.1722 -0.2621
 3383TIP3    H131564   4.882   2.648  16.203 -0.0129  1.8395 -1.6314
 3383TIP3    H231565   4.816   2.633  16.068 -0.0143 -0.5496 -1.3978
 3384TIP3   OH231566   1.860   2.007  10.847 -0.1960  0.1137  0.1203
 3384TIP3    H131567   1.828   2.035  10.762 -1.4440  0.2493  0.6138
 3384TIP3    H231568   1.935   1.951  10.827  0.2014  1.0214 -1.0076
 3385TIP3   OH231569   3.899   6.067   4.077  0.7590 -0.3250 -0.1819
 3385TIP3    H131570   3.839   6.038   4.009  0.1460  0.9620 -0.2192
 3385TIP3    H231571   3.849   6.059   4.158  0.8509 -0.1110 -0.1029
 3386TIP3   OH231572   3.475   6.513   6.178  0.4388  0.3874  0.0904
 3386TIP3    H131573   3.439   6.553   6.257 -0.8313 -0.1323 -0.2084
 3386TIP3    H231574   3.542   6.453   6.211  1.9048  2.1772  0.5793
 3387TIP3   OH231575   0.075   0.125  17.213  0.4077  0.1599  0.1319
 3387TIP3    H131576   0.003   0.124  17.276  1.7338  0.8220  1.7232
 3387TIP3    H231577   0.134   0.055  17.242  1.5142  1.1003  0.2242
 3388TIP3   OH231578   6.445   6.426  13.199  0.3319  0.0777  1.0093
 3388TIP3    H131579   6.382   6.404  13.130 -0.7157 -2.9920  2.7395
 3388TIP3    H231580   6.430   6.519  13.217 -2.3130 -0.0612 -0.0193
 3389TIP3   OH231581   2.169   2.313   1.232  0.3539 -0.0689  0.2682
 3389TIP3    H131582   2.107   2.385   1.243 -0.4271 -0.5842 -0.5803
 3389TIP3    H231583   2.171   2.270   1.318  1.3457  1.3249  0.9904
 3390TIP3   OH231584   6.196   5.764   0.546 -0.0597 -0.2223 -0.0019
 3390TIP3    H131585   6.265   5.809   0.496 -0.1233 -1.6437 -1.4380
 3390TIP3    H231586   6.209   5.795   0.636  4.0694 -2.2283  0.3596
 3391TIP3   OH231587   4.291   5.399  13.350 -0.1667  0.0688  0.0402
 3391TIP3    H131588   4.234   5.407  13.273 -0.1353 -1.2932 -0.1406
 3391TIP3    H231589   4.376   5.376  13.314 -0.3313 -1.3569  0.5000
 3392TIP3   OH231590   0.281   0.475  15.826 -0.2473  0.0100 -0.5031
 3392TIP3    H131591   0.226   0.514  15.893  0.2471 -0.4491  0.1763
 3392TIP3    H231592   0.326   0.549  15.786  0.2117  0.2070  0.3564
 3393TIP3   OH231593   3.934   3.425  14.943 -0.8495 -1.2443 -0.7290
 3393TIP3    H131594   3.935   3.422  15.038 -0.4580 -0.1818 -0.6847
 3393TIP3    H231595   4.023   3.401  14.917 -0.2993  0.6069 -0.7117
 3394TIP3   OH231596   0.041   2.743  11.049 -0.6007  0.5310 -0.3437
 3394TIP3    H131597   0.104   2.756  10.978 -0.7076  1.3102 -0.3002
 3394TIP3    H231598   0.016   2.831  11.075 -0.4786  0.2574  0.7402
 3395TIP3   OH231599   3.128   0.236  13.973 -0.3783  0.2794  0.6681
 3395TIP3    H131600   3.206   0.290  13.977 -1.7841  2.5686 -0.8411
 3395TIP3    H231601   3.145   0.174  13.902  0.5280 -0.1232  1.2122
 3396TIP3   OH231602   3.938   1.683   1.688  0.1528 -0.1231  0.1991
 3396TIP3    H131603   3.863   1.684   1.628  0.3931  0.7340 -0.1105
 3396TIP3    H231604   3.901   1.656   1.772 -0.3824 -0.3289 -0.0954
 3397TIP3   OH231605   5.351   1.729   4.375 -0.0461  0.3887 -0.7361
 3397TIP3    H131606   5.441   1.695   4.371  0.1998  1.1208 -2.1118
 3397TIP3    H231607   5.362   1.823   4.391 -0.6254  0.2815  0.3490
 3398TIP3   OH231608   6.322   2.860   1.685 -0.1969  0.7144  0.2637
 3398TIP3    H131609   6.246   2.803   1.699  0.5676 -0.3932  0.0002
 3398TIP3    H231610   6.391   2.822   1.740  0.3327  1.3699  0.0590
 3399TIP3   OH231611   2.135   3.765   2.157  0.3806 -0.0016  0.6599
 3399TIP3    H131612   2.203   3.777   2.223 -0.1547  1.5007  0.9695
 3399TIP3    H231613   2.085   3.846   2.159  0.3685  0.1058 -1.6234
 3400TIP3   OH231614   3.522   6.392   0.819 -0.4768 -1.2239 -0.1135
 3400TIP3    H131615   3.615   6.396   0.794  0.0069 -0.2852  1.6418
 3400TIP3    H231616   3.518   6.320   0.882 -1.4598 -2.8452 -1.9101
 3401TIP3   OH231617   3.353   5.560  16.859 -0.3858 -0.1933 -0.2035
 3401TIP3    H131618   3.362   5.636  16.917 -0.9340 -0.5805  0.3937
 3401TIP3    H231619   3.439   5.551  16.818  0.7887 -1.3291  2.3156
 3402TIP3   OH231620   2.132   4.981  14.290  0.0668  0.1960 -0.2836
 3402TIP3    H131621   2.212   4.969  14.341  0.1138  0.2014 -0.3572
 3402TIP3    H231622   2.160   5.019  14.207  0.0494 -0.2715 -0.5099
 3403TIP3   OH231623   1.732   2.040   2.058 -0.0578 -0.2279  0.0775
 3403TIP3    H131624   1.703   2.041   1.967 -0.9980  0.7612  0.3691
 3403TIP3    H231625   1.667   1.984   2.102  0.0893 -0.2698  0.2410
 3404TIP3   OH231626   6.204   4.846   4.771 -0.3058 -0.2702 -0.0230
 3404TIP3    H131627   6.210   4.933   4.812  1.8082 -0.2763 -0.1939
 3404TIP3    H231628   6.216   4.784   4.843 -4.3452 -0.6538  0.5741
 3405TIP3   OH231629   4.743   0.309  12.630  0.1195 -0.1651  0.5567
 3405TIP3    H131630   4.787   0.326  12.714  1.7357  0.5893 -0.3891
 3405TIP3    H231631   4.729   0.396  12.593  0.7693 -0.5266 -0.5934
 3406TIP3   OH231632   4.835   2.864   2.110  0.4571  0.0276 -0.6994
 3406TIP3    H131633   4.857   2.956   2.122  0.5458 -0.2278  1.6554
 3406TIP3    H231634   4.896   2.833   2.043 -0.1114  1.8306 -2.1281
 3407TIP3   OH231635   1.194   4.590  17.097 -0.1105  0.1826 -0.2734
 3407TIP3    H131636   1.258   4.534  17.053 -1.6578 -1.5350 -0.4479
 3407TIP3    H231637   1.157   4.644  17.027 -0.4563 -0.4495 -0.5913
 3408TIP3   OH231638   1.640   4.421  16.140 -0.1315  0.5099  0.3994
 3408TIP3    H131639   1.688   4.356  16.191  0.9100  2.0177  1.4014
 3408TIP3    H231640   1.548   4.402  16.159  0.1501 -0.6492  0.6942
 3409TIP3   OH231641   6.103   2.889  11.909 -0.5908  0.0230  0.1195
 3409TIP3    H131642   6.038   2.821  11.923  1.8164 -2.3923  0.2189
 3409TIP3    H231643   6.124   2.884  11.816 -0.3368  0.6199  0.1367
 3410TIP3   OH231644   4.386   5.526  13.645 -0.0986  0.1136 -0.0257
 3410TIP3    H131645   4.445   5.501  13.574 -1.1798  0.0277 -0.9193
 3410TIP3    H231646   4.302   5.541  13.602 -1.2266 -1.5980  1.4260
 3411TIP3   OH231647   4.137   2.554  11.277  0.3565 -0.2102 -0.3016
 3411TIP3    H131648   4.048   2.536  11.308 -0.7763  3.1068 -1.2151
 3411TIP3    H231649   4.145   2.502  11.198 -0.7823 -0.5410 -0.2259
 3412TIP3   OH231650   5.619   6.677  11.810 -0.1577  0.5904  0.2178
 3412TIP3    H131651   5.560   6.753  11.813 -1.9121 -0.6684 -0.6062
 3412TIP3    H231652   5.599   6.634  11.727  1.1928 -0.4890  0.4119
 3413TIP3   OH231653   1.606   4.371  13.255 -0.2652  0.4341  1.1724
 3413TIP3    H131654   1.561   4.346  13.174 -0.6943  0.4728  1.3942
 3413TIP3    H231655   1.690   4.407  13.226  0.8191 -2.1162  0.8764
 3414TIP3   OH231656   0.012   4.513   3.965  0.3870  0.4545 -0.1403
 3414TIP3    H131657   0.088   4.495   3.911  0.2016  1.6386 -0.8316
 3414TIP3    H231658  -0.025   4.594   3.929  0.5719  1.6057  2.0871
 3415TIP3   OH231659   4.933   3.596  16.822  0.0536 -0.4061 -0.0005
 3415TIP3    H131660   4.927   3.610  16.917 -1.3975 -2.1695  0.2100
 3415TIP3    H231661   5.021   3.561  16.809  0.6581  0.8373  0.5159
 3416TIP3   OH231662   5.645   2.273  13.459 -0.2438 -0.1623  0.4674
 3416TIP3    H131663   5.593   2.195  13.480  0.9972 -1.4636 -0.9639
 3416TIP3    H231664   5.718   2.271  13.521  0.8549 -1.3314 -0.7745
 3417TIP3   OH231665   5.959   0.698  14.026  0.6462  0.3594  0.0982
 3417TIP3    H131666   5.944   0.786  14.060 -0.8803  0.0945  0.1715
 3417TIP3    H231667   5.876   0.673  13.985  0.3175 -1.8189  1.8765
 3418TIP3   OH231668   0.430   1.831   0.701  0.0273 -0.2454  0.5264
 3418TIP3    H131669   0.350   1.780   0.690 -0.6295  0.6650  0.9428
 3418TIP3    H231670   0.432   1.853   0.794  0.2606  0.5359  0.3429
 3419TIP3   OH231671   1.635   2.874   5.157  0.1806  0.3240  0.1015
 3419TIP3    H131672   1.677   2.957   5.132  2.1127 -0.6612 -0.1357
 3419TIP3    H231673   1.680   2.848   5.237 -1.7088  0.3847  1.2474
 3420TIP3   OH231674   1.225   5.532   4.669  0.0002 -0.0246  0.0047
 3420TIP3    H131675   1.207   5.622   4.698  1.6218 -0.3719  2.4484
 3420TIP3    H231676   1.145   5.484   4.690 -0.5515  0.6622 -0.4771
 3421TIP3   OH231677   6.607   5.482  11.487  0.1117  0.0976 -0.2334
 3421TIP3    H131678   6.577   5.420  11.553  2.5483 -0.9036  0.0737
 3421TIP3    H231679   6.604   5.567  11.530  0.0291 -0.3057  0.5777
 3422TIP3   OH231680   0.194   3.691   3.430 -0.1162  0.0851 -0.6878
 3422TIP3    H131681   0.109   3.653   3.409 -0.4395  0.8692 -0.8592
 3422TIP3    H231682   0.228   3.722   3.346 -0.0099  0.4593 -0.5093
 3423TIP3   OH231683   3.885   6.588  15.082  0.4647  0.1300 -0.6841
 3423TIP3    H131684   3.951   6.626  15.140 -0.9109  0.9380  0.3958
 3423TIP3    H231685   3.886   6.495  15.102 -0.6892  0.5274  1.4044
 3424TIP3   OH231686   1.377   5.386   0.036  0.0840 -0.0030 -0.1684
 3424TIP3    H131687   1.442   5.453   0.060 -0.6999 -0.0954  2.5434
 3424TIP3    H231688   1.428   5.305   0.029  0.6554  0.4066 -0.8455
 3425TIP3   OH231689   2.242   5.961   0.034  0.8053 -0.3878 -0.2069
 3425TIP3    H131690   2.212   5.989  -0.052  1.5195 -0.9948 -0.6655
 3425TIP3    H231691   2.243   6.042   0.086 -1.2546 -0.2989 -0.2449
 3426TIP3   OH231692   6.101   2.363   4.345 -0.4490 -0.6455  0.2537
 3426TIP3    H131693   6.197   2.361   4.341 -0.4047 -0.9084  1.1963
 3426TIP3    H231694   6.073   2.306   4.274  0.1682 -2.9353  1.7182
 3427TIP3   OH231695   2.737   0.390  11.618  0.2000  0.0480  0.0403
 3427TIP3    H131696   2.681   0.375  11.694 -1.0921 -1.0941 -1.0850
 3427TIP3    H231697   2.825   0.398  11.655 -0.3272 -0.8854  1.6249
 3428TIP3   OH231698   3.024   4.360  11.113  0.6324 -0.0172 -0.4201
 3428TIP3    H131699   2.981   4.431  11.067 -3.3110 -1.8918 -0.0482
 3428TIP3    H231700   2.970   4.346  11.191  0.7510 -3.8014 -0.8303
 3429TIP3   OH231701   6.135   5.734   1.925 -0.1778  0.0367  0.2901
 3429TIP3    H131702   6.040   5.750   1.928 -0.1710 -0.0230  0.9153
 3429TIP3    H231703   6.143   5.649   1.880 -0.2670  1.2119 -2.1135
 3430TIP3   OH231704   5.555   2.109  15.981  0.0463 -0.4546 -0.2066
 3430TIP3    H131705   5.507   2.126  16.062 -1.9585  0.2477 -1.4494
 3430TIP3    H231706   5.572   2.195  15.944  0.4565 -0.7753 -0.7765
 3431TIP3   OH231707   2.119   5.139  11.266  0.1427  0.6759  0.6130
 3431TIP3    H131708   2.121   5.095  11.181  0.5877 -0.7698  1.3344
 3431TIP3    H231709   2.120   5.233  11.245  1.7004  0.3702 -0.9525
 3432TIP3   OH231710   1.465   4.858  17.082 -0.5576  0.5812  0.0089
 3432TIP3    H131711   1.495   4.784  17.135  0.7529  0.5392 -0.7684
 3432TIP3    H231712   1.390   4.823  17.034 -1.5104  0.5022  1.4893
 3433TIP3   OH231713   3.702   0.097   1.673 -0.0226  0.7475  0.4787
 3433TIP3    H131714   3.607   0.097   1.664 -0.0109 -0.4131  0.2339
 3433TIP3    H231715   3.733   0.142   1.595 -0.2701 -2.0033 -1.3710
 3434TIP3   OH231716   3.618   1.856  14.061  0.2576  0.3380  0.8455
 3434TIP3    H131717   3.577   1.792  14.120 -0.3294  1.8403  2.1272
 3434TIP3    H231718   3.712   1.839  14.071  0.0943 -1.3196 -0.0296
 3435TIP3   OH231719   0.660   0.192   0.861 -0.3747 -0.5156  0.3491
 3435TIP3    H131720   0.601   0.266   0.877 -0.5142 -0.7300  0.8467
 3435TIP3    H231721   0.665   0.148   0.946  1.6828  0.3598  0.7332
 3436TIP3   OH231722   4.251   5.067   2.487 -0.1978 -0.0146 -0.5504
 3436TIP3    H131723   4.241   5.094   2.579 -2.0276 -0.9260 -0.4282
 3436TIP3    H231724   4.227   5.144   2.437  0.7138  0.4597 -0.2861
 3437TIP3   OH231725   4.239   3.574  16.675 -0.2954 -0.1194  0.0942
 3437TIP3    H131726   4.172   3.507  16.664 -0.1846 -0.3249  0.6214
 3437TIP3    H231727   4.313   3.527  16.714 -0.0490  0.2147  0.0323
 3438TIP3   OH231728   5.581   3.017  15.407 -0.2623  0.2402 -0.4636
 3438TIP3    H131729   5.646   2.972  15.461 -0.2458 -1.0509 -1.5224
 3438TIP3    H231730   5.497   2.992  15.444 -0.2204  0.4236 -0.2388
 3439TIP3   OH231731   4.932   3.472  11.384  0.8181  0.0636 -0.0589
 3439TIP3    H131732   4.881   3.530  11.328  1.2941  0.2475 -0.3060
 3439TIP3    H231733   4.872   3.400  11.406  0.1768  0.7071  0.3541
 3440TIP3   OH231734   6.364   1.534  15.830  0.3973 -0.1833 -0.0471
 3440TIP3    H131735   6.421   1.468  15.790 -0.3161 -0.5386 -0.4895
 3440TIP3    H231736   6.328   1.583  15.756  0.4111  0.2764  0.2499
 3441TIP3   OH231737   6.543   0.084  15.328  0.2789 -0.1086 -0.1644
 3441TIP3    H131738   6.606   0.125  15.268 -1.2004  2.8070  0.1003
 3441TIP3    H231739   6.485   0.155  15.354 -2.7796 -2.5053  0.1152
 3442TIP3   OH231740   0.796   2.624  17.097 -0.5082 -0.3434  0.2636
 3442TIP3    H131741   0.875   2.677  17.096 -0.3025 -0.6374  0.5715
 3442TIP3    H231742   0.755   2.640  17.012 -0.4708  0.3340  0.3684
 3443TIP3   OH231743   0.136   5.519   5.423 -0.2778  0.4569  0.1111
 3443TIP3    H131744   0.121   5.597   5.369 -2.3298  0.3944  0.5174
 3443TIP3    H231745   0.169   5.454   5.362  0.0633  1.1999 -0.5188
 3444TIP3   OH231746   5.668   5.062  15.337 -0.5169  0.1056 -0.2333
 3444TIP3    H131747   5.652   4.967  15.332  0.7977 -0.0938 -1.2263
 3444TIP3    H231748   5.693   5.077  15.428  0.6427 -0.7548 -0.3953
 3445TIP3   OH231749   6.447   2.713  16.404 -0.1848 -0.0150 -0.0538
 3445TIP3    H131750   6.394   2.634  16.399  0.2362 -0.2700 -0.5558
 3445TIP3    H231751   6.513   2.694  16.471  0.2432 -0.2978 -0.5450
 3446TIP3   OH231752   2.103   1.254  14.646  0.0087  0.1707  0.4155
 3446TIP3    H131753   2.023   1.205  14.625  0.1967  0.6444 -1.6185
 3446TIP3    H231754   2.168   1.186  14.663  0.0438 -0.3445 -1.5168
 3447TIP3   OH231755   1.460   4.854   2.552 -0.0861 -0.5180  0.5888
 3447TIP3    H131756   1.391   4.818   2.607  1.6014 -2.0296  1.8424
 3447TIP3    H231757   1.445   4.815   2.466 -1.8226  0.6273  0.3188
 3448TIP3   OH231758   6.284   4.887   2.544  0.6951  0.5561  0.1286
 3448TIP3    H131759   6.247   4.941   2.474 -0.5212  1.0195  1.0796
 3448TIP3    H231760   6.266   4.797   2.516  0.1478  0.7369 -0.1333
 3449TIP3   OH231761   0.408   4.391  13.554 -0.2056  0.1976  0.0113
 3449TIP3    H131762   0.338   4.456  13.553 -0.4806 -0.0937  0.0794
 3449TIP3    H231763   0.486   4.438  13.524 -0.8624  0.0333 -2.0958
 3450TIP3   OH231764   4.954   6.329  11.357  0.4458  0.1708  0.3552
 3450TIP3    H131765   5.028   6.390  11.362  0.9417 -0.3788 -0.0418
 3450TIP3    H231766   4.892   6.361  11.422 -0.1577  2.2290 -1.1430
 3451TIP3   OH231767   3.929   4.082   2.272 -0.1275  0.3270 -0.1701
 3451TIP3    H131768   4.003   4.137   2.300 -0.7097  2.3587 -2.3030
 3451TIP3    H231769   3.853   4.121   2.317 -0.2222 -0.3040  0.2204
 3452TIP3   OH231770   2.214   2.845   0.641  0.1483 -0.2210 -0.1673
 3452TIP3    H131771   2.191   2.774   0.701  2.1217 -0.0585  0.8622
 3452TIP3    H231772   2.151   2.915   0.661  1.0440  0.0141  2.1293
 3453TIP3   OH231773   0.607   2.818   0.376 -0.1052  0.0591 -0.4681
 3453TIP3    H131774   0.576   2.869   0.301 -1.1274 -1.0215 -0.8169
 3453TIP3    H231775   0.579   2.867   0.453 -1.1393  0.0083 -0.7994
 3454TIP3   OH231776   3.529   4.731  12.463  0.1905 -0.1621  0.5303
 3454TIP3    H131777   3.472   4.696  12.531  0.4823 -2.8050 -0.4612
 3454TIP3    H231778   3.558   4.654  12.414  2.9505  1.2714 -0.3077
 3455TIP3   OH231779   1.252   2.001   3.366 -0.5049 -0.3256  0.4684
 3455TIP3    H131780   1.173   1.993   3.419 -0.2777  0.0713  0.8652
 3455TIP3    H231781   1.292   1.914   3.370 -0.2602 -0.1818  1.3124
 3456TIP3   OH231782   5.051   2.233  15.339  0.0548 -0.5025 -0.4486
 3456TIP3    H131783   4.975   2.202  15.388  0.8325 -1.7756 -0.0059
 3456TIP3    H231784   5.014   2.265  15.256 -1.2819  1.6972  0.8814
 3457TIP3   OH231785   3.779   1.958  13.124 -0.4754 -0.3298 -0.0725
 3457TIP3    H131786   3.708   1.902  13.093 -1.0034  0.7867 -0.9300
 3457TIP3    H231787   3.755   1.978  13.215 -0.6236 -0.9339  0.0287
 3458TIP3   OH231788   3.345   4.113  12.261  0.0119  0.0412  0.0538
 3458TIP3    H131789   3.410   4.163  12.311  0.1556 -0.8290  0.7559
 3458TIP3    H231790   3.359   4.022  12.287 -2.1381 -0.0821  1.0133
 3459TIP3   OH231791   2.354   4.551   5.378  0.0895 -0.0852  0.1184
 3459TIP3    H131792   2.407   4.471   5.378  1.4348  0.7871  0.1314
 3459TIP3    H231793   2.335   4.567   5.471 -0.4209 -0.5184  0.0985
 3460TIP3   OH231794   4.534   2.834  14.446  0.3930 -0.0282  0.0449
 3460TIP3    H131795   4.509   2.828  14.354  0.4613  2.0316 -0.1587
 3460TIP3    H231796   4.464   2.886  14.486  0.0343 -1.4254  1.3202
 3461TIP3   OH231797   3.390   3.847   4.076 -0.5572 -0.1677  0.0647
 3461TIP3    H131798   3.426   3.922   4.028 -0.1923 -0.2551  0.1953
 3461TIP3    H231799   3.387   3.876   4.167  0.8232 -0.7434  0.3307
 3462TIP3   OH231800   1.404   0.351   3.590 -0.2305 -0.4034  0.0285
 3462TIP3    H131801   1.414   0.430   3.643 -0.6339 -0.8099  0.7288
 3462TIP3    H231802   1.479   0.352   3.530 -0.6179  0.8786 -0.4653
 3463TIP3   OH231803   1.174   2.099  14.147  0.3281  0.1782  0.1289
 3463TIP3    H131804   1.118   2.036  14.191  1.3467 -0.3548  0.6992
 3463TIP3    H231805   1.137   2.184  14.170 -0.4234 -0.1698  0.2334
 3464TIP3   OH231806   5.931   0.910   0.239 -0.4444 -0.3103  0.1323
 3464TIP3    H131807   5.970   0.831   0.279  0.8419  0.1271 -0.2162
 3464TIP3    H231808   5.946   0.899   0.145  2.1598  1.5386  0.2360
 3465TIP3   OH231809   3.406   3.483   2.739  0.4379 -0.7018 -0.0934
 3465TIP3    H131810   3.365   3.566   2.764  1.2341 -0.6790  1.2214
 3465TIP3    H231811   3.372   3.420   2.802 -0.0059 -1.3513 -0.9648
 3466TIP3   OH231812   3.425   4.942  14.763 -0.1407  0.3419  0.0239
 3466TIP3    H131813   3.401   4.886  14.838  1.3372  0.1932  0.4308
 3466TIP3    H231814   3.344   4.953  14.714 -0.8223 -0.8107  0.8381
 3467TIP3   OH231815   2.999   2.415  12.536  0.1599 -0.0617 -0.3984
 3467TIP3    H131816   2.946   2.374  12.604 -0.8055 -0.7550 -1.5293
 3467TIP3    H231817   3.010   2.347  12.470  0.0859  0.9303 -1.4750
 3468TIP3   OH231818   3.844   5.223  15.849 -0.4125 -0.1912 -0.1155
 3468TIP3    H131819   3.921   5.254  15.897 -0.2667 -1.1244  0.2729
 3468TIP3    H231820   3.806   5.303  15.812  0.1977  0.3980  0.4844
 3469TIP3   OH231821   2.409   6.684   1.917  0.2476  0.0494  0.6078
 3469TIP3    H131822   2.329   6.652   1.958  0.5401 -0.0589  1.0911
 3469TIP3    H231823   2.415   6.634   1.835  0.3670 -0.6923  1.0578
 3470TIP3   OH231824   1.212   4.438  12.998 -0.3991  0.1742  0.2040
 3470TIP3    H131825   1.259   4.358  12.972 -1.8218 -0.8694  0.7230
 3470TIP3    H231826   1.214   4.438  13.093  1.4498  1.9565  0.2425
 3471TIP3   OH231827   6.595   1.661   5.260  0.0110  0.3316 -0.4215
 3471TIP3    H131828   6.671   1.661   5.201  1.4024  0.0608  1.2619
 3471TIP3    H231829   6.558   1.573   5.250  1.4063 -0.4110  0.4423
 3472TIP3   OH231830   6.706   3.358  14.593 -0.1814  0.1710  0.1519
 3472TIP3    H131831   6.668   3.323  14.512 -2.1813  1.1541  0.6045
 3472TIP3    H231832   6.737   3.445  14.569 -0.8054  0.4754  0.4358
 3473TIP3   OH231833   5.932   0.751   1.397  0.0899 -0.0693 -0.2689
 3473TIP3    H131834   5.842   0.781   1.406  0.2201  0.5429 -0.9398
 3473TIP3    H231835   5.969   0.759   1.485  0.0404  1.5044 -0.3732
 3474TIP3   OH231836   0.184   4.443  14.257  0.7184 -0.1275 -0.4926
 3474TIP3    H131837   0.259   4.478  14.209  0.8786  1.2319  0.6940
 3474TIP3    H231838   0.189   4.484  14.343 -1.0425 -0.4782 -0.1824
 3475TIP3   OH231839   4.210   2.008  16.531 -0.7761  0.1980 -0.5555
 3475TIP3    H131840   4.125   2.052  16.538 -0.1345  1.5445 -0.9342
 3475TIP3    H231841   4.261   2.043  16.604  0.1321  0.9798 -1.5482
 3476TIP3   OH231842   2.918   2.602   2.041  0.7807  0.2997 -0.3697
 3476TIP3    H131843   2.866   2.682   2.041  1.4974  0.8419 -2.1879
 3476TIP3    H231844   2.995   2.623   2.094  0.1729  0.2210  0.5572
 3477TIP3   OH231845   5.146   3.439  14.696  0.0233  0.0036  0.1464
 3477TIP3    H131846   5.232   3.423  14.657  0.1355  0.7411  0.0762
 3477TIP3    H231847   5.137   3.535  14.695 -0.3157 -0.0061  1.1887
 3478TIP3   OH231848   3.293   4.034  14.416 -0.5744  0.2765 -0.0276
 3478TIP3    H131849   3.204   4.054  14.447 -0.1160 -0.2127  1.6737
 3478TIP3    H231850   3.350   4.088  14.471  0.3648 -1.8289  1.1742
 3479TIP3   OH231851   4.651   4.971  13.946  0.7467 -0.3761 -0.4039
 3479TIP3    H131852   4.735   4.934  13.974  0.8019 -0.3230 -0.4956
 3479TIP3    H231853   4.630   5.037  14.011 -1.1078 -2.9243  1.8135
 3480TIP3   OH231854   5.867   1.804  13.321 -0.5539  0.3726 -0.6051
 3480TIP3    H131855   5.909   1.864  13.382  1.8055 -1.5056 -0.2330
 3480TIP3    H231856   5.833   1.734  13.376 -1.4524  0.3312 -1.1930
 3481TIP3   OH231857   4.993   1.185  16.869  0.4812 -0.0955 -0.7590
 3481TIP3    H131858   5.008   1.196  16.963  0.5812  3.1958 -1.0390
 3481TIP3    H231859   4.898   1.175  16.861  0.1115  2.3289 -0.3656
 3482TIP3   OH231860   4.326   0.663  11.729  0.5628 -0.0054 -0.2924
 3482TIP3    H131861   4.409   0.662  11.681  1.0098 -1.6188  0.4588
 3482TIP3    H231862   4.312   0.572  11.756 -1.8553  0.0678 -1.0606
 3483TIP3   OH231863   3.577   4.941   3.254 -0.0502 -0.0761  0.7378
 3483TIP3    H131864   3.604   4.849   3.248 -1.7996 -0.5977  0.3219
 3483TIP3    H231865   3.493   4.939   3.299 -0.5505  1.2374 -0.0759
 3484TIP3   OH231866   2.354   6.706  12.249 -0.0695 -0.4702 -0.4893
 3484TIP3    H131867   2.431   6.743  12.293 -0.3197  1.4646 -1.5913
 3484TIP3    H231868   2.281   6.760  12.279 -0.4019  0.1882 -2.3666
 3485TIP3   OH231869   5.495   1.890  11.826  0.2257  0.1434  0.6339
 3485TIP3    H131870   5.550   1.818  11.797  0.0832  0.6476 -0.9887
 3485TIP3    H231871   5.556   1.961  11.845  0.1923  1.1604 -2.4708
 3486TIP3   OH231872   1.162   2.137  12.028  0.2089  0.4916 -0.0933
 3486TIP3    H131873   1.102   2.208  12.008  0.6833  1.0113  0.2875
 3486TIP3    H231874   1.107   2.059  12.035 -0.1122  0.4472 -2.4000
 3487TIP3   OH231875   5.712   2.294   4.482 -0.2351  0.2388  0.1556
 3487TIP3    H131876   5.654   2.349   4.535  0.2151  2.7649 -1.7842
 3487TIP3    H231877   5.667   2.286   4.398  0.7274 -0.6010 -0.2966
 3488TIP3   OH231878   4.945   0.950   3.650 -0.0849  0.1541  0.4499
 3488TIP3    H131879   4.875   0.997   3.696 -0.6754 -0.4874  0.2190
 3488TIP3    H231880   4.960   0.872   3.702  0.8619  0.5575  0.8005
 3489TIP3   OH231881   2.559   0.661   3.149 -0.5271  0.2581 -0.0466
 3489TIP3    H131882   2.635   0.606   3.133  0.1378  0.6357  1.5783
 3489TIP3    H231883   2.486   0.600   3.159 -0.0836 -0.2327  0.1965
 3490TIP3   OH231884   0.385   2.782   5.073 -0.7694  0.2001  0.0880
 3490TIP3    H131885   0.420   2.857   5.121  0.1367  0.3199 -0.7242
 3490TIP3    H231886   0.437   2.707   5.104 -2.8399 -0.4766  2.2217
 3491TIP3   OH231887   6.042   1.092   4.925 -0.0143 -0.7872 -0.0203
 3491TIP3    H131888   5.971   1.047   4.878 -0.3987 -0.3794  0.1643
 3491TIP3    H231889   6.117   1.085   4.866  0.4024 -3.0600  0.6674
 3492TIP3   OH231890   4.587   5.623   3.307  0.0254  0.0467 -0.2579
 3492TIP3    H131891   4.519   5.689   3.322 -0.0911 -0.0705 -0.2683
 3492TIP3    H231892   4.539   5.544   3.280  0.2079  0.1727 -0.9806
 3493TIP3   OH231893   1.726   2.442   4.166  0.1873  0.3515 -0.5988
 3493TIP3    H131894   1.704   2.460   4.074 -2.7388  0.4930  0.0469
 3493TIP3    H231895   1.670   2.368   4.190  1.5617 -0.2768  0.8745
 3494TIP3   OH231896   0.583   5.545  15.938  0.4134  0.2828 -0.0615
 3494TIP3    H131897   0.653   5.512  15.881  1.9920  0.8239  1.4659
 3494TIP3    H231898   0.523   5.471  15.948  1.9412 -0.9715  0.3499
 3495TIP3   OH231899   5.311   6.627  13.122  0.7833  0.2073 -0.2073
 3495TIP3    H131900   5.331   6.715  13.089 -0.0919  0.9486  1.1604
 3495TIP3    H231901   5.394   6.595  13.157  0.6820  1.3207  1.1091
 3496TIP3   OH231902   1.832   6.754   0.118  0.0722  0.6725  0.4426
 3496TIP3    H131903   1.764   6.799   0.168 -0.4902  1.1677 -0.7315
 3496TIP3    H231904   1.835   6.666   0.156 -2.8993 -0.1440 -0.9579
 3497TIP3   OH231905   4.019   2.268   0.168  0.2508 -0.9032  0.3830
 3497TIP3    H131906   3.952   2.325   0.132  0.7710 -0.8976 -0.6111
 3497TIP3    H231907   4.035   2.302   0.256  0.3044  0.2679 -0.0631
 3498TIP3   OH231908   5.433   1.561  12.032 -0.2680 -1.0779 -0.0175
 3498TIP3    H131909   5.476   1.642  12.060 -0.2259 -1.2018  0.2744
 3498TIP3    H231910   5.429   1.569  11.937 -0.8795 -0.4200  0.0534
 3499TIP3   OH231911   1.863   1.897  12.068 -0.2854 -0.1029 -0.1358
 3499TIP3    H131912   1.844   1.812  12.109  0.3396 -0.1579  0.0585
 3499TIP3    H231913   1.870   1.958  12.141  1.4341 -0.3155 -0.0748
 3500TIP3   OH231914   1.847   6.465   4.999 -0.1619 -0.3562 -0.0880
 3500TIP3    H131915   1.908   6.536   4.977  0.9850 -1.3422 -0.1971
 3500TIP3    H231916   1.797   6.499   5.073  0.3197  0.5977 -0.1797
 3501TIP3   OH231917   2.005   1.275   2.415 -0.6068 -0.9000 -0.4399
 3501TIP3    H131918   1.978   1.295   2.325 -1.9251  1.1352  0.3274
 3501TIP3    H231919   2.062   1.348   2.439 -0.0119 -1.5958  0.2642
 3502TIP3   OH231920   6.457   4.011   0.620 -0.3185 -0.0276  0.0207
 3502TIP3    H131921   6.538   4.056   0.598 -0.2213  0.1170  0.6531
 3502TIP3    H231922   6.410   4.004   0.537 -0.7703  2.0809  0.0553
 3503TIP3   OH231923   5.796   1.853  15.071 -0.4166  0.0973 -0.3393
 3503TIP3    H131924   5.824   1.903  15.147  0.8680  0.9507 -1.3307
 3503TIP3    H231925   5.836   1.766  15.082 -1.1578 -0.1493  0.4889
 3504TIP3   OH231926   2.478   4.115  13.571  0.0527  0.3773  0.3538
 3504TIP3    H131927   2.424   4.085  13.497 -0.1710  0.5560  0.4409
 3504TIP3    H231928   2.504   4.034  13.615  2.2443  0.0893 -1.3186
 3505TIP3   OH231929   1.006   1.919  12.132  0.2876  0.0313 -0.4727
 3505TIP3    H131930   0.927   1.901  12.081  1.1451 -1.2639 -1.4057
 3505TIP3    H231931   1.054   1.836  12.133  1.1416  0.5020  0.9815
 3506TIP3   OH231932   4.136   5.733  17.303 -0.0117  0.3692  0.0606
 3506TIP3    H131933   4.171   5.806  17.355  1.5033 -0.0162 -0.3657
 3506TIP3    H231934   4.184   5.736  17.221 -0.4889 -0.6468 -0.2749
 3507TIP3   OH231935   2.271   6.407  16.295  0.0201  0.4697  0.4284
 3507TIP3    H131936   2.247   6.315  16.291  0.2430  0.3510  1.4237
 3507TIP3    H231937   2.230   6.439  16.376  0.8495  0.9606  0.6726
 3508TIP3   OH231938   0.686   6.165  11.914 -0.1316  0.0247 -0.2950
 3508TIP3    H131939   0.702   6.250  11.873  1.6763 -0.0060  0.2627
 3508TIP3    H231940   0.670   6.106  11.840  0.1329  0.5371 -0.7728
 3509TIP3   OH231941   3.040   0.930  14.240  0.0180  0.0855 -0.2299
 3509TIP3    H131942   2.992   0.982  14.175 -0.4199 -0.8280 -0.6630
 3509TIP3    H231943   2.971   0.883  14.288  0.4558 -1.9029 -1.4265
 3510TIP3   OH231944   0.003   3.641   2.597 -0.2769  0.0750  0.6108
 3510TIP3    H131945  -0.066   3.620   2.535  0.0170  0.0680  0.2835
 3510TIP3    H231946   0.012   3.736   2.592 -0.4942  0.1104  0.9002
 3511TIP3   OH231947   0.504   2.096  14.120  0.3263  0.2297  0.0148
 3511TIP3    H131948   0.548   2.023  14.164 -0.3993  0.7847  1.7263
 3511TIP3    H231949   0.460   2.143  14.190 -4.6664 -1.3202 -1.6451
 3512TIP3   OH231950   3.645   4.327   4.561  0.4362  0.3167  0.0873
 3512TIP3    H131951   3.694   4.244   4.569  1.2466  0.5588 -1.7968
 3512TIP3    H231952   3.608   4.325   4.473 -0.8230  1.3077  0.5641
 3513TIP3   OH231953   5.322   5.328   3.115 -0.6369  0.2793  0.0279
 3513TIP3    H131954   5.272   5.334   3.033 -0.1032  1.5928 -0.2193
 3513TIP3    H231955   5.263   5.361   3.182 -1.3695 -1.5480  0.3450
 3514TIP3   OH231956   6.664   5.329  15.048  0.3500  0.1243 -0.2856
 3514TIP3    H131957   6.603   5.269  15.004  0.4007  0.6888 -1.1543
 3514TIP3    H231958   6.684   5.286  15.131 -1.2364 -0.0869  0.0336
 3515TIP3   OH231959   5.303   5.376  12.895  0.0271 -0.1472 -0.4154
 3515TIP3    H131960   5.225   5.327  12.868 -0.0945 -0.3154  0.2275
 3515TIP3    H231961   5.316   5.352  12.987  0.9933 -0.3309 -0.5912
 3516TIP3   OH231962   0.777   6.168   0.320 -0.0648 -0.7598 -0.3137
 3516TIP3    H131963   0.683   6.186   0.316  0.2827  1.1784 -0.6026
 3516TIP3    H231964   0.794   6.150   0.413 -0.6432 -0.6811 -0.1884
 3517TIP3   OH231965   5.259   3.184  14.766 -0.2168  0.3390  1.0785
 3517TIP3    H131966   5.325   3.198  14.833  1.6716  0.3861 -0.6919
 3517TIP3    H231967   5.206   3.264  14.768 -0.2750  0.2939  2.5393
 3518TIP3   OH231968   6.188   3.769   5.333 -0.1849  0.3390  0.4382
 3518TIP3    H131969   6.175   3.863   5.320 -0.1585  0.2063 -0.6332
 3518TIP3    H231970   6.272   3.762   5.379 -0.7353  0.8809  1.5800
 3519TIP3   OH231971   3.504   3.673   3.400 -0.2038 -0.0492  0.0286
 3519TIP3    H131972   3.432   3.717   3.353  0.1719  0.8251  0.2560
 3519TIP3    H231973   3.506   3.717   3.485  1.6013  1.0335 -0.5231
 3520TIP3   OH231974   5.347   0.386   4.616  0.7354 -0.0880  0.3621
 3520TIP3    H131975   5.432   0.390   4.571  0.0443  2.4509 -0.9186
 3520TIP3    H231976   5.300   0.316   4.571  1.1754  0.3453 -0.8326
 3521TIP3   OH231977   2.618   5.295   3.643 -0.4167 -0.0915  0.2502
 3521TIP3    H131978   2.580   5.381   3.660 -2.2578 -0.9349  0.6471
 3521TIP3    H231979   2.590   5.242   3.717  0.7091 -1.0310  0.0138
 3522TIP3   OH231980   6.454   3.042  12.170 -0.5235 -0.5220  0.5134
 3522TIP3    H131981   6.369   3.084  12.155 -0.4731 -0.3366  0.7269
 3522TIP3    H231982   6.436   2.948  12.162 -0.7015 -0.4755  0.3353
 3523TIP3   OH231983   0.225   1.235   1.951 -0.2051  0.4759 -0.2360
 3523TIP3    H131984   0.299   1.294   1.938  0.4672 -0.4362 -0.6554
 3523TIP3    H231985   0.171   1.279   2.016  0.4269  1.4136 -0.3233
 3524TIP3   OH231986   0.098   2.944   5.714 -0.2043 -0.3448  0.1902
 3524TIP3    H131987   0.170   2.920   5.655  0.3443  1.2138  0.1663
 3524TIP3    H231988   0.030   2.880   5.696  0.5370 -0.8351 -1.0319
 3525TIP3   OH231989   0.078   4.032  11.457  0.0027  0.4297  0.1022
 3525TIP3    H131990  -0.012   4.008  11.479 -0.3195  1.6623  0.1972
 3525TIP3    H231991   0.069   4.109  11.401  0.9655 -0.2108 -0.9609
 3526TIP3   OH231992   4.392   3.878  14.224 -0.2672  0.2052 -0.3851
 3526TIP3    H131993   4.476   3.834  14.213 -0.6393 -0.1887 -1.9036
 3526TIP3    H231994   4.343   3.822  14.284  0.9388  1.0520  1.4840
 3527TIP3   OH231995   5.946   3.368  11.494 -0.1423 -0.6374 -0.0191
 3527TIP3    H131996   5.859   3.329  11.483  0.3520 -1.9773  0.6456
 3527TIP3    H231997   5.945   3.407  11.581 -0.2980 -0.0400 -0.2843
 3528TIP3   OH231998   3.934   1.407   2.370  0.1093  0.3089 -0.6555
 3528TIP3    H131999   3.932   1.343   2.299 -0.2534  0.2840 -0.6231
 3528TIP3    H232000   3.854   1.459   2.358 -1.5117 -1.5099  1.4300
 3529TIP3   OH232001   2.567   4.466  17.286  0.3314  0.3344  0.0054
 3529TIP3    H132002   2.593   4.532  17.222  0.5067 -0.0191 -0.2917
 3529TIP3    H232003   2.478   4.492  17.313 -0.1893 -0.1144 -1.1944
 3530TIP3   OH232004   5.656   6.016  14.848 -0.3441 -0.0098 -0.1019
 3530TIP3    H132005   5.632   6.026  14.940 -0.5914  1.2798 -0.2904
 3530TIP3    H232006   5.616   5.933  14.822 -0.9664  0.0140  0.7343
 3531TIP3   OH232007   6.165   4.547   4.061  0.2982  0.0466 -0.4457
 3531TIP3    H132008   6.246   4.585   4.093  0.2639  0.5634 -0.9574
 3531TIP3    H232009   6.182   4.453   4.056  0.4312  0.0003  0.6925
 3532TIP3   OH232010   2.034   3.117   0.043  0.2788 -0.5481  0.0392
 3532TIP3    H132011   1.966   3.142  -0.020  1.7760  1.1852 -1.0058
 3532TIP3    H232012   1.996   3.044   0.092 -1.6029 -0.8658 -1.7422
 3533TIP3   OH232013   3.223   3.393   1.858 -0.2261 -0.0389  0.4516
 3533TIP3    H132014   3.166   3.418   1.785  2.0810  1.6944 -0.8931
 3533TIP3    H232015   3.289   3.335   1.819  1.6398  1.7081  0.8513
 3534TIP3   OH232016   5.240   0.278   3.223  0.2414  0.5578 -0.3186
 3534TIP3    H132017   5.168   0.334   3.251  0.9236  0.8787  0.8711
 3534TIP3    H232018   5.295   0.268   3.301  1.2732 -0.0054 -1.0828
 3535TIP3   OH232019   6.752   3.736   2.873  0.2354  0.0022  0.5358
 3535TIP3    H132020   6.726   3.818   2.831  0.0728  0.0591  0.7450
 3535TIP3    H232021   6.718   3.667   2.815  1.5486  0.0705 -0.3647
 3536TIP3   OH232022   2.058   2.295  11.725 -0.3940 -0.1006  0.3281
 3536TIP3    H132023   2.063   2.333  11.813 -0.1748 -0.4103  0.4475
 3536TIP3    H232024   1.966   2.308  11.699 -0.3756  0.3154  0.4553
 3537TIP3   OH232025   3.629   4.972   3.554  0.5065 -0.1167 -0.0304
 3537TIP3    H132026   3.536   4.982   3.531  0.4541 -0.8572 -0.1772
 3537TIP3    H232027   3.646   5.042   3.615  0.0223  0.4535 -0.5314
 3538TIP3   OH232028   6.017   6.214  16.679  0.0061  0.1998  0.3653
 3538TIP3    H132029   6.086   6.241  16.619 -1.7762  0.8783 -1.5047
 3538TIP3    H232030   6.028   6.272  16.755  1.4957  0.2343  0.1590
 3539TIP3   OH232031   3.550   5.830   5.924 -0.0881 -0.2857 -0.3719
 3539TIP3    H132032   3.610   5.904   5.935  1.8684 -1.9057  0.6934
 3539TIP3    H232033   3.503   5.825   6.007 -0.5470  0.0159 -0.6102
 3540TIP3   OH232034   4.765   3.728  16.325  0.3449 -0.4401 -0.2055
 3540TIP3    H132035   4.851   3.727  16.366  0.3965 -0.2967 -0.3086
 3540TIP3    H232036   4.714   3.792  16.375  0.1482 -0.8756  0.1540
 3541TIP3   OH232037   6.176   3.586   1.139  0.7392  0.2050 -0.6535
 3541TIP3    H132038   6.149   3.603   1.048  0.9709 -0.8256 -0.9293
 3541TIP3    H232039   6.251   3.527   1.131  1.2528  0.7259  0.1947
 3542TIP3   OH232040   0.149   4.428   6.166  0.0995 -0.1206 -0.5736
 3542TIP3    H132041   0.145   4.335   6.186  0.9986  0.1518  1.0472
 3542TIP3    H232042   0.220   4.462   6.220  0.8389  1.2507 -2.2875
 3543TIP3   OH232043   5.975   1.759  12.974 -0.1983 -0.3693 -0.2417
 3543TIP3    H132044   6.011   1.731  12.890  1.2231 -0.8773  0.5012
 3543TIP3    H232045   5.938   1.846  12.956  2.3966  0.7168 -0.8616
 3544TIP3   OH232046   0.666   5.250   6.868  0.3880  0.1116 -0.0510
 3544TIP3    H132047   0.756   5.218   6.877  0.5776 -0.2820 -2.5454
 3544TIP3    H232048   0.677   5.341   6.838  0.0544 -0.4496 -2.0333
 3545TIP3   OH232049   2.195   0.015   4.750  1.0606 -0.1824  0.2725
 3545TIP3    H132050   2.223   0.022   4.658 -0.8800  2.1178 -0.2544
 3545TIP3    H232051   2.260   0.065   4.799 -0.6922  3.4423 -0.6909
 3546TIP3   OH232052   1.606   3.229  12.413 -0.3406 -0.0329  0.0628
 3546TIP3    H132053   1.532   3.180  12.450  0.2162  0.0454  1.3215
 3546TIP3    H232054   1.566   3.309  12.378 -1.0020 -0.5300 -0.3404
 3547TIP3   OH232055   1.306   2.806   0.666 -0.4478  0.1925 -0.2708
 3547TIP3    H132056   1.289   2.802   0.572  2.3070  2.0338 -0.9549
 3547TIP3    H232057   1.304   2.715   0.694 -1.1674 -0.4166 -2.1303
 3548TIP3   OH232058   0.865   1.018   0.093 -0.7156 -0.1184 -0.6354
 3548TIP3    H132059   0.954   1.038   0.064 -0.5600 -0.6099 -0.5177
 3548TIP3    H232060   0.862   1.049   0.184 -0.5952 -0.2899 -0.5716
 3549TIP3   OH232061   1.542   4.303  14.737 -0.5270  0.1594 -0.0198
 3549TIP3    H132062   1.561   4.348  14.819 -1.7914  0.4749  0.1125
 3549TIP3    H232063   1.581   4.360  14.670 -0.0069  0.2052  0.3145
 3550TIP3   OH232064   5.641   3.730   5.357 -0.5090 -0.2626  0.0857
 3550TIP3    H132065   5.713   3.789   5.335  0.1923 -1.6385 -1.5428
 3550TIP3    H232066   5.681   3.659   5.407 -1.4745  0.9036  2.7176
 3551TIP3   OH232067   4.144   3.467   2.765  0.3933  0.2892 -0.5185
 3551TIP3    H132068   4.081   3.430   2.827 -0.0222 -0.6747 -1.4758
 3551TIP3    H232069   4.169   3.393   2.710  0.8243  1.0937 -1.4326
 3552TIP3   OH232070   2.247   5.669   0.971  0.1979  0.2068 -0.1677
 3552TIP3    H132071   2.294   5.589   0.946 -0.7563 -0.5683  0.4419
 3552TIP3    H232072   2.167   5.668   0.919 -0.1609  0.3741  0.3652
 3553TIP3   OH232073   5.400   3.147  16.333 -0.0043  0.5521  0.1463
 3553TIP3    H132074   5.397   3.088  16.258 -1.4246 -0.6438  1.0797
 3553TIP3    H232075   5.493   3.167  16.344  0.3065  0.1075 -1.4187
 3554TIP3   OH232076   5.173   2.571   6.233 -0.6942  0.1045  0.7521
 3554TIP3    H132077   5.174   2.515   6.310 -0.3606 -0.3880  0.3922
 3554TIP3    H232078   5.081   2.595   6.222 -1.0529 -1.4384  0.1430
 3555TIP3   OH232079   5.004   3.676   5.856 -0.3137  0.3346  0.0097
 3555TIP3    H132080   5.018   3.615   5.928  0.5808  1.8102  1.1536
 3555TIP3    H232081   5.070   3.744   5.869  0.8255 -0.0372 -3.0287
 3556TIP3   OH232082   2.681   2.310  15.392 -0.3166 -0.0119 -0.0976
 3556TIP3    H132083   2.698   2.327  15.299 -1.5536 -1.1922 -0.5763
 3556TIP3    H232084   2.669   2.397  15.430 -1.2235  0.4551 -1.3612
 3557TIP3   OH232085   1.556   1.336  11.445  0.2893  0.1687  0.1381
 3557TIP3    H132086   1.524   1.426  11.450  1.5391  0.7520 -1.4277
 3557TIP3    H232087   1.596   1.319  11.530 -1.9411  0.2546  1.2728
 3558TIP3   OH232088   1.197   1.654  14.504 -0.1608 -0.1830 -0.2882
 3558TIP3    H132089   1.253   1.587  14.543  0.6565 -0.1898 -1.4130
 3558TIP3    H232090   1.255   1.730  14.494 -1.5129  1.3476  2.6008
 3559TIP3   OH232091   0.611   1.242  14.803  0.6137  1.2135 -0.3081
 3559TIP3    H132092   0.652   1.285  14.728  1.4310 -1.3236 -1.4153
 3559TIP3    H232093   0.550   1.179  14.765  0.0168  0.8197  1.2111
 3560TIP3   OH232094   0.715   1.003   4.676 -0.4396 -0.3711  0.4582
 3560TIP3    H132095   0.779   0.995   4.746 -0.2293 -1.1075  0.1837
 3560TIP3    H232096   0.766   1.012   4.596 -0.6250  2.6384  0.5492
 3561TIP3   OH232097   1.666   2.737  11.802 -0.0451  0.6914  0.1191
 3561TIP3    H132098   1.678   2.809  11.865  0.1902  0.3754  0.4430
 3561TIP3    H232099   1.578   2.749  11.768 -0.3358  0.6107  0.8353
 3562TIP3   OH232100   4.532   3.914  14.777 -0.1828 -0.1080 -0.7324
 3562TIP3    H132101   4.595   3.899  14.847 -0.9478  1.3376  0.3233
 3562TIP3    H232102   4.572   3.981  14.721 -1.1867  1.6746  0.5851
 3563TIP3   OH232103   3.949   1.508  15.472 -0.4602  0.3493  0.4218
 3563TIP3    H132104   3.989   1.448  15.410 -1.0307  1.3528 -0.9538
 3563TIP3    H232105   3.860   1.475  15.484 -0.7911  0.9282 -0.3759
 3564TIP3   OH232106   0.027   2.164   4.921  0.0465  0.1109 -0.0735
 3564TIP3    H132107   0.023   2.259   4.924  1.2550  0.1930 -0.3706
 3564TIP3    H232108  -0.051   2.138   4.872  0.2088  1.0119 -0.8432
 3565TIP3   OH232109   5.806   0.074   4.202  0.5801 -0.6796  0.4223
 3565TIP3    H132110   5.713   0.082   4.223  0.9275 -1.2354  2.4417
 3565TIP3    H232111   5.846   0.048   4.285  2.5349 -0.4864 -0.4224
 3566TIP3   OH232112   4.109   1.168   5.950  0.1122 -0.0059 -0.0786
 3566TIP3    H132113   4.150   1.158   6.037 -0.6431  0.0906  0.2980
 3566TIP3    H232114   4.079   1.259   5.948 -1.5049 -0.4857  0.3144
 3567TIP3   OH232115   0.441   1.721  13.933 -0.0390  0.2200  0.0796
 3567TIP3    H132116   0.519   1.766  13.966 -2.1377  3.2425  1.3277
 3567TIP3    H232117   0.404   1.780  13.867 -1.8231 -0.5917  0.2894
 3568TIP3   OH232118   0.111   1.903  15.413 -0.5211 -0.2991 -0.3761
 3568TIP3    H132119   0.127   1.975  15.352 -0.6369  0.4592  0.4769
 3568TIP3    H232120   0.189   1.901  15.469  0.3898 -2.1074 -1.5937
 3569TIP3   OH232121   4.318   4.106  14.780  0.4306 -0.1728 -0.5703
 3569TIP3    H132122   4.376   4.030  14.786  0.4939 -0.0091  1.2827
 3569TIP3    H232123   4.354   4.169  14.841  0.0886  1.1899 -1.7185
 3570TIP3   OH232124   6.413   4.817   0.532  0.0164 -0.1233  0.0228
 3570TIP3    H132125   6.453   4.736   0.501 -1.2785 -0.1988 -1.5763
 3570TIP3    H232126   6.357   4.845   0.460  1.1406  2.7134  0.1218
 3571TIP3   OH232127   3.667   2.761  13.354  0.1725  0.0722 -0.4259
 3571TIP3    H132128   3.725   2.815  13.301 -0.3955  3.2305  1.9183
 3571TIP3    H232129   3.583   2.807  13.353 -0.9681 -1.8679  0.0692
 3572TIP3   OH232130   6.087   4.497   1.989 -0.0595  0.0548  0.2826
 3572TIP3    H132131   6.097   4.480   1.895  1.6988 -1.9347  0.7374
 3572TIP3    H232132   6.023   4.432   2.019  1.5562 -1.3350  0.8887
 3573TIP3   OH232133   4.519   6.631  12.354  0.5324  0.2638 -0.2184
 3573TIP3    H132134   4.443   6.577  12.375  0.8963 -0.1410  0.0962
 3573TIP3    H232135   4.494   6.720  12.379  0.0353  0.1952 -0.4625
 3574TIP3   OH232136   5.059   1.647  11.079 -0.2939  0.0501  0.1310
 3574TIP3    H132137   5.030   1.738  11.075  2.0003  0.8143 -0.4691
 3574TIP3    H232138   5.089   1.635  11.169 -0.1564  0.0292  0.0817
 3575TIP3   OH232139   3.139   3.684   4.155  0.3732  0.0889  0.0112
 3575TIP3    H132140   3.053   3.698   4.116 -0.1145  0.9386  1.3107
 3575TIP3    H232141   3.195   3.750   4.114 -0.1001  0.8858  0.6099
 3576TIP3   OH232142   5.993   3.873   5.029  0.5404  0.0404  0.0026
 3576TIP3    H132143   5.994   3.867   4.933  1.5861 -0.3599  0.0190
 3576TIP3    H232144   6.024   3.787   5.058 -0.3928 -0.0663  0.7224
 3577TIP3   OH232145   2.720   4.929  16.362 -0.0669  0.6088 -0.0717
 3577TIP3    H132146   2.642   4.976  16.333 -0.9657 -1.9065 -2.1458
 3577TIP3    H232147   2.791   4.967  16.311 -0.5106  0.7321 -0.6136
 3578TIP3   OH232148   1.023   1.479  14.361 -0.0860 -0.2855 -0.1234
 3578TIP3    H132149   1.078   1.531  14.418  1.2618 -1.3138 -0.4436
 3578TIP3    H232150   0.939   1.474  14.407  0.9059 -0.9683  1.7226
 3579TIP3   OH232151   5.657   3.154   1.747  0.6121 -0.3536 -0.2764
 3579TIP3    H132152   5.751   3.148   1.732  0.3811 -3.4142 -1.2195
 3579TIP3    H232153   5.638   3.247   1.742  3.2869  0.2119 -2.0168
 3580TIP3   OH232154   4.339   2.076   0.906 -0.0437 -0.5771  0.0059
 3580TIP3    H132155   4.302   2.058   0.820 -1.7312  0.0483  0.5667
 3580TIP3    H232156   4.279   2.140   0.945  1.4986  0.2816  1.0714
 3581TIP3   OH232157   6.750   0.740   0.163 -0.4360  0.1795 -0.1259
 3581TIP3    H132158   6.720   0.651   0.145  1.9646 -0.3501 -2.0945
 3581TIP3    H232159   6.771   0.776   0.076 -0.7824  2.4725  0.6669
 3582TIP3   OH232160   0.384   2.394  15.498 -0.5088 -0.0804  0.2444
 3582TIP3    H132161   0.465   2.393  15.549  0.8918  0.4190 -1.8526
 3582TIP3    H232162   0.322   2.443  15.553  0.9494  0.5691  1.3882
 3583TIP3   OH232163   5.006   1.326  10.639 -0.1169 -0.1601 -0.2976
 3583TIP3    H132164   4.951   1.364  10.571 -1.1248 -1.0999 -0.0479
 3583TIP3    H232165   5.042   1.246  10.600  2.1477  1.0808 -0.8895
 3584TIP3   OH232166   4.929   0.443  14.980  0.5083  0.0916  0.0011
 3584TIP3    H132167   4.862   0.390  15.022  0.7069  0.7646  1.1841
 3584TIP3    H232168   4.882   0.518  14.944  0.5649  0.3676  0.4962
 3585TIP3   OH232169   3.211   2.385   5.041  0.2098  0.4214  0.2345
 3585TIP3    H132170   3.152   2.422   5.107  1.7710  1.0538  1.3406
 3585TIP3    H232171   3.259   2.461   5.007 -1.0504  0.2265 -2.2348
 3586TIP3   OH232172   3.886   4.819  10.804 -0.0263  0.1324 -0.2111
 3586TIP3    H132173   3.925   4.863  10.728 -0.8703  0.6334 -0.3693
 3586TIP3    H232174   3.793   4.816  10.784 -0.1980 -0.1416  0.6051
 3587TIP3   OH232175   4.600   6.350   4.494  0.4980 -0.0408 -0.2567
 3587TIP3    H132176   4.578   6.270   4.446  0.7106 -0.5029  0.3917
 3587TIP3    H232177   4.696   6.352   4.494  0.6144 -1.3804  2.1907
 3588TIP3   OH232178   3.311   0.253   3.425  0.1819 -0.0874  0.2852
 3588TIP3    H132179   3.376   0.212   3.483  0.5544  1.6410  1.1587
 3588TIP3    H232180   3.355   0.331   3.392  0.2607 -1.3306 -2.9946
 3589TIP3   OH232181   1.076   5.308   0.335 -0.4221  0.4953 -0.0130
 3589TIP3    H132182   1.146   5.243   0.327 -1.0385 -0.3638  1.2499
 3589TIP3    H232183   1.100   5.361   0.412 -1.1528  0.1685  0.4581
 3590TIP3   OH232184   1.737   6.263   0.815 -0.2302 -0.4173 -0.0207
 3590TIP3    H132185   1.713   6.171   0.802 -1.0472 -0.2123 -0.0383
 3590TIP3    H232186   1.825   6.260   0.852 -0.6715 -1.2590  1.0275
 3591TIP3   OH232187   0.790   2.719  12.566  0.5963 -0.6830  0.2591
 3591TIP3    H132188   0.885   2.729  12.561  0.5644  1.0105  1.9393
 3591TIP3    H232189   0.772   2.704  12.659 -0.7622 -1.4602 -0.0958
 3592TIP3   OH232190   3.406   6.010   5.716 -0.1439  0.1416 -0.5144
 3592TIP3    H132191   3.426   5.916   5.720 -1.4960 -0.1213  1.1140
 3592TIP3    H232192   3.487   6.050   5.684  1.8763 -1.1655  2.5477
 3593TIP3   OH232193   2.576   4.162  10.798  0.0625 -0.4642  0.7113
 3593TIP3    H132194   2.487   4.198  10.791 -0.1935 -1.3543 -2.7490
 3593TIP3    H232195   2.627   4.232  10.838 -1.9863  0.4497  1.9113
 3594TIP3   OH232196   3.610   6.129  16.399  0.0533 -0.5075 -0.2368
 3594TIP3    H132197   3.691   6.092  16.436  0.4860  1.3513  0.8518
 3594TIP3    H232198   3.541   6.099  16.458  0.3143 -0.0818  0.2964
 3595TIP3   OH232199   0.883   6.672   5.145  0.0100 -0.2022 -0.3119
 3595TIP3    H132200   0.799   6.718   5.152  0.3182  0.4020 -0.5912
 3595TIP3    H232201   0.898   6.664   5.051 -1.0984 -2.8180 -0.3675
 3596TIP3   OH232202   6.335   4.394  11.050 -0.0519  0.1044  0.4781
 3596TIP3    H132203   6.287   4.466  11.091  0.0869  0.7144 -0.3884
 3596TIP3    H232204   6.393   4.438  10.987  0.5901 -0.7198  0.4869
 3597TIP3   OH232205   5.848   2.056   4.342 -0.1385 -0.1803 -0.2542
 3597TIP3    H132206   5.793   2.076   4.418 -1.2475 -0.0129 -1.0721
 3597TIP3    H232207   5.934   2.035   4.379 -1.4807 -3.6584  1.3451
 3598TIP3   OH232208   1.717   2.833   1.669  0.0324 -0.4884 -0.0436
 3598TIP3    H132209   1.675   2.795   1.593 -1.5185 -1.6327  1.3200
 3598TIP3    H232210   1.673   2.793   1.744  0.7183  1.4179  1.4723
 3599TIP3   OH232211   1.652   5.438   3.413 -0.2688 -0.5036  0.3090
 3599TIP3    H132212   1.713   5.485   3.356  1.0716  0.2961  2.3165
 3599TIP3    H232213   1.707   5.401   3.482 -1.8287 -1.5204  1.0553
 3600TIP3   OH232214   2.537   4.757  13.153 -0.2522 -0.3208 -0.0962
 3600TIP3    H132215   2.555   4.688  13.090 -1.6504 -0.9350  0.1267
 3600TIP3    H232216   2.518   4.710  13.235 -3.0922  0.1472 -0.3891
 3601TIP3   OH232217   4.766   0.636   3.533  0.5565 -0.5111 -0.6778
 3601TIP3    H132218   4.838   0.587   3.573  0.1394 -0.6079 -0.0311
 3601TIP3    H232219   4.733   0.692   3.604 -0.3707 -0.8847 -0.7916
 3602TIP3   OH232220   0.886   2.855   4.152  0.6690 -0.2557  0.1834
 3602TIP3    H132221   0.832   2.779   4.130 -0.1732  0.4800 -0.3669
 3602TIP3    H232222   0.951   2.822   4.214 -0.1881 -1.2385  0.5688
 3603TIP3   OH232223   4.414   3.909   4.631 -0.5688 -0.3467 -0.5063
 3603TIP3    H132224   4.373   3.937   4.549  0.0985 -1.6115 -1.3126
 3603TIP3    H232225   4.341   3.888   4.689 -1.0604 -0.3602 -1.1233
 3604TIP3   OH232226   1.553   5.194  12.145 -0.1188 -0.0114 -0.0764
 3604TIP3    H132227   1.521   5.134  12.079 -1.1118  0.9306 -0.4764
 3604TIP3    H232228   1.635   5.155  12.175 -1.3441 -2.2203  0.5995
 3605TIP3   OH232229   5.204   2.443  14.696  0.8850  0.0573 -0.0805
 3605TIP3    H132230   5.271   2.376  14.680  0.7047 -0.8068  2.3223
 3605TIP3    H232231   5.227   2.514  14.637  2.8163 -0.9721 -0.6765
 3606TIP3   OH232232   3.469   0.467  11.499  0.0893  0.0444  0.1075
 3606TIP3    H132233   3.472   0.374  11.477  0.6252 -0.2383  1.3070
 3606TIP3    H232234   3.405   0.504  11.438  0.0187 -1.0714 -0.5117
 3607TIP3   OH232235   5.384   6.043   0.816 -0.3451  0.7367  0.0210
 3607TIP3    H132236   5.337   5.960   0.810 -1.1486  1.1349  0.6517
 3607TIP3    H232237   5.466   6.020   0.859 -1.5894  0.6334  2.5123
 3608TIP3   OH232238   3.817   4.849   2.276  0.3776 -0.1012 -0.4159
 3608TIP3    H132239   3.885   4.913   2.254  2.6418 -1.4923  1.9465
 3608TIP3    H232240   3.865   4.775   2.312 -2.2314 -2.6257 -1.7272
 3609TIP3   OH232241   3.537   2.138   3.725  0.3512  0.3788  0.2816
 3609TIP3    H132242   3.521   2.193   3.648  1.2078  0.1145 -0.1056
 3609TIP3    H232243   3.462   2.153   3.782 -0.9920 -0.4069 -1.1827
 3610TIP3   OH232244   0.759   4.369  16.325 -0.1999 -0.3976  0.3356
 3610TIP3    H132245   0.703   4.380  16.249  0.5778 -0.5511 -0.2735
 3610TIP3    H232246   0.767   4.457  16.362 -1.5314 -0.5066  0.9506
 3611TIP3   OH232247   0.852   4.033   5.454  0.4935  0.2100  0.3709
 3611TIP3    H132248   0.871   4.060   5.544  0.7997  0.8601  0.1227
 3611TIP3    H232249   0.911   3.960   5.437 -0.8787 -1.1864  1.3174
 3612TIP3   OH232250   2.105   6.426  14.732 -0.1397 -0.1686  0.0197
 3612TIP3    H132251   2.105   6.426  14.637 -1.7226  1.3671 -0.0296
 3612TIP3    H232252   2.154   6.505  14.756 -3.4264  1.9752  0.2997
 3613TIP3   OH232253   1.271   4.129   0.284  0.5461 -0.1626  0.0751
 3613TIP3    H132254   1.363   4.108   0.266  0.8878 -0.2263  1.8040
 3613TIP3    H232255   1.267   4.224   0.279  0.3038 -0.2209 -1.6752
 3614TIP3   OH232256   0.583   5.679   2.826 -0.1911 -0.0744 -0.4374
 3614TIP3    H132257   0.644   5.671   2.899  0.4850  1.9028 -0.7349
 3614TIP3    H232258   0.625   5.633   2.754  0.4878  0.4151 -0.3572
 3615TIP3   OH232259   6.599   3.774  11.690  0.0448  0.2909 -0.0687
 3615TIP3    H132260   6.632   3.723  11.764  2.1468  1.6906  0.0466
 3615TIP3    H232261   6.522   3.819  11.725 -1.1772 -1.8258  0.1492
 3616TIP3   OH232262   4.523   1.312   4.611  0.4768 -0.6019  0.0446
 3616TIP3    H132263   4.471   1.267   4.544  0.3461  0.1624 -0.3815
 3616TIP3    H232264   4.614   1.292   4.588  0.4060 -1.2524  0.2998
 3617TIP3   OH232265   1.729   2.759  12.566  0.3980  0.3689 -0.0551
 3617TIP3    H132266   1.752   2.851  12.559 -2.2153  0.9714 -1.5329
 3617TIP3    H232267   1.690   2.736  12.482 -1.5778 -1.3175  1.2233
 3618TIP3   OH232268   0.398   1.144  11.044 -0.1123 -0.4510 -0.6820
 3618TIP3    H132269   0.450   1.129  10.966 -1.0852 -0.7679 -1.2917
 3618TIP3    H232270   0.389   1.239  11.049  0.4496 -0.3990 -0.6116
 3619TIP3   OH232271   3.849   3.576   2.681 -0.1150  0.1485 -0.0661
 3619TIP3    H132272   3.855   3.635   2.607  0.3052  0.8095  0.4875
 3619TIP3    H232273   3.894   3.621   2.752 -2.3075  0.5028  1.2065
 3620TIP3   OH232274   0.655   1.058  10.664 -0.1698  0.7045 -0.6376
 3620TIP3    H132275   0.748   1.048  10.682  0.1453  0.7083 -2.1415
 3620TIP3    H232276   0.623   1.115  10.734  1.1477  1.4684 -0.6275
 3621TIP3   OH232277   4.735   6.457  12.354 -0.7750 -0.4261  0.6004
 3621TIP3    H132278   4.813   6.496  12.394  0.1113 -0.3662 -1.0849
 3621TIP3    H232279   4.663   6.512  12.383  0.2829  1.7284 -0.6800
 3622TIP3   OH232280   5.910   2.075   1.703  0.1663 -0.4926 -0.0636
 3622TIP3    H132281   5.931   2.023   1.781  0.2293 -2.0056 -1.0391
 3622TIP3    H232282   5.846   2.022   1.655 -0.9874  1.0829 -0.3448
 3623TIP3   OH232283   6.131   0.096  13.249 -0.4305  0.5150  0.3167
 3623TIP3    H132284   6.096   0.062  13.167  0.8852  0.7800 -0.3869
 3623TIP3    H232285   6.054   0.121  13.300 -1.2819 -0.0694 -0.6521
 3624TIP3   OH232286   3.822   0.719  11.581  0.4548 -0.1699  0.1813
 3624TIP3    H132287   3.900   0.665  11.595  2.5139  2.8004  1.3919
 3624TIP3    H232288   3.853   0.792  11.528 -2.2564 -0.2157 -1.6824
 3625TIP3   OH232289   0.051   0.989   2.884  0.0309 -0.2809 -0.1424
 3625TIP3    H132290   0.132   0.957   2.925 -0.6228 -0.3181  1.1960
 3625TIP3    H232291   0.033   0.926   2.814  1.1345 -0.2848 -0.4412
 3626TIP3   OH232292   5.127   6.751  11.761  0.2635  0.3873 -0.1356
 3626TIP3    H132293   5.166   6.837  11.777  1.6976 -0.4266  0.9361
 3626TIP3    H232294   5.183   6.711  11.694 -0.1232  0.0922 -0.2883
 3627TIP3   OH232295   5.125   6.524  11.383  0.2428  0.0863  0.3309
 3627TIP3    H132296   5.140   6.572  11.301  1.3593 -1.0270 -0.1475
 3627TIP3    H232297   5.186   6.562  11.446 -1.5829  1.8918  1.0880
 3628TIP3   OH232298   3.509   3.217  17.091  0.3698  0.1228 -0.1984
 3628TIP3    H132299   3.588   3.167  17.112 -0.9110 -1.7951  0.3573
 3628TIP3    H232300   3.450   3.200  17.164 -1.2147  0.0536 -1.4379
 3629TIP3   OH232301   0.931   3.690   5.423  0.5158  0.0202 -0.5527
 3629TIP3    H132302   0.844   3.675   5.387  1.1227 -0.3295 -1.9469
 3629TIP3    H232303   0.975   3.744   5.357  1.6512 -0.5810 -0.3073
 3630TIP3   OH232304   3.376   4.744  14.060 -0.5281 -0.1012  0.5086
 3630TIP3    H132305   3.418   4.677  14.005 -0.0462  0.4583  0.1812
 3630TIP3    H232306   3.393   4.716  14.150 -0.5216 -0.5384  0.3707
 3631TIP3   OH232307   2.023   1.607   2.288  0.6511  0.1750 -0.0445
 3631TIP3    H132308   2.091   1.565   2.342 -0.5727 -0.3120  1.1763
 3631TIP3    H232309   1.964   1.646   2.352 -0.0864  0.8003 -1.1028
 3632TIP3   OH232310   3.645   2.037   3.022 -0.2908 -0.1846 -0.2829
 3632TIP3    H132311   3.641   2.132   3.029 -1.4239 -0.2312 -0.0144
 3632TIP3    H232312   3.556   2.011   2.998  0.2815 -1.0946 -1.5158
 3633TIP3   OH232313   4.379   5.809  12.749 -0.0358  0.2178  0.3773
 3633TIP3    H132314   4.407   5.888  12.795  1.0284  0.3109 -0.4010
 3633TIP3    H232315   4.346   5.840  12.665  2.3431 -0.2761 -0.8173
 3634TIP3   OH232316   5.265   3.145   2.516 -0.5858  0.9545 -0.5122
 3634TIP3    H132317   5.255   3.058   2.556  0.9852  2.1068  2.7645
 3634TIP3    H232318   5.196   3.149   2.451 -1.0818 -2.5257 -0.4039
 3635TIP3   OH232319   3.982   0.193  11.020  0.4246 -0.1644  0.6767
 3635TIP3    H132320   3.948   0.134  11.087  0.3120 -1.0605 -0.1465
 3635TIP3    H232321   3.916   0.192  10.951  1.2226 -0.4517 -0.1139
 3636TIP3   OH232322   6.741   4.838  16.522 -0.0807 -0.2193  0.3797
 3636TIP3    H132323   6.812   4.877  16.472 -0.8057  1.4742  0.5777
 3636TIP3    H232324   6.673   4.819  16.458  0.7791 -2.5102  0.0850
 3637TIP3   OH232325   0.104   4.905  17.011 -0.3450  0.0867 -0.5818
 3637TIP3    H132326   0.074   4.948  17.092 -0.6766 -0.2688 -0.5169
 3637TIP3    H232327   0.033   4.918  16.949 -0.3381 -0.1518 -0.6396
 3638TIP3   OH232328   3.789   6.532  14.357 -0.8664 -0.0232 -0.2519
 3638TIP3    H132329   3.829   6.463  14.303  1.9633  0.4231  1.0568
 3638TIP3    H232330   3.803   6.502  14.447 -1.2999  1.3829  0.3125
 3639TIP3   OH232331   4.068   1.039  15.318  0.8813  0.6720 -0.6180
 3639TIP3    H132332   4.129   0.981  15.362  0.8015  2.1782  1.6125
 3639TIP3    H232333   4.107   1.126  15.325 -1.1497  1.5828  0.2706
 3640TIP3   OH232334   3.643   3.469  15.581  0.2762 -0.3826 -0.0261
 3640TIP3    H132335   3.662   3.488  15.489 -0.1126 -0.2236 -0.0746
 3640TIP3    H232336   3.727   3.439  15.616 -0.1813 -3.1392 -1.0844
 3641TIP3   OH232337   0.924   5.335  12.546  0.2233  0.3078  0.0413
 3641TIP3    H132338   0.912   5.365  12.636  0.1192 -0.2716  0.2313
 3641TIP3    H232339   0.904   5.241  12.550 -0.2343  0.3650 -0.6778
 3642TIP3   OH232340   5.717   1.052   1.766  0.2149 -0.0860  0.8548
 3642TIP3    H132341   5.663   1.111   1.713 -0.6346 -1.0917  0.5800
 3642TIP3    H232342   5.725   1.096   1.851 -0.8793  0.1659  0.8375
 3643TIP3   OH232343   3.530   0.657  17.309 -0.5933  0.6266  0.5212
 3643TIP3    H132344   3.512   0.641  17.402 -2.5404 -0.4495  0.0168
 3643TIP3    H232345   3.445   0.682  17.272 -0.8406 -2.7385 -1.6623
 3644TIP3   OH232346   3.693   1.701  11.888  0.7823  0.4340  0.6610
 3644TIP3    H132347   3.623   1.641  11.862 -0.0465  1.1511  1.1915
 3644TIP3    H232348   3.658   1.789  11.871  2.4829  0.8151 -1.4598
 3645TIP3   OH232349   4.412   3.151   6.227 -0.0019  0.1446  0.0978
 3645TIP3    H132350   4.333   3.163   6.280  0.8897 -0.0668  1.5247
 3645TIP3    H232351   4.442   3.062   6.249  0.7413  0.2972 -0.2827
 3646TIP3   OH232352   1.270   4.149   4.241  0.0065 -0.4191  0.3130
 3646TIP3    H132353   1.263   4.060   4.206 -1.1582 -1.5937  3.2745
 3646TIP3    H232354   1.211   4.200   4.186 -3.9330 -2.7436  1.9953
 3647TIP3   OH232355   4.045   5.527   6.328  0.1161  0.0428 -0.0798
 3647TIP3    H132356   4.058   5.607   6.378 -0.0661  0.1491 -0.1997
 3647TIP3    H232357   3.993   5.470   6.385  0.0531  0.0988 -0.0813
 3648TIP3   OH232358   1.934   3.912   2.428  0.2361  0.5347 -0.1761
 3648TIP3    H132359   1.872   3.953   2.367  0.8090  2.4855  0.4653
 3648TIP3    H232360   1.887   3.836   2.463 -1.9733  2.1434  0.5726
 3649TIP3   OH232361   6.508   3.944  11.359  0.0803  1.0530 -0.0556
 3649TIP3    H132362   6.417   3.918  11.351 -0.0821  1.0631  1.3955
 3649TIP3    H232363   6.504   4.036  11.385  0.5213  1.2036 -0.5078
 3650TIP3   OH232364   2.300   1.867  13.525 -0.3053  0.8030 -0.1322
 3650TIP3    H132365   2.278   1.845  13.615  1.1182 -0.4571 -0.0376
 3650TIP3    H232366   2.393   1.846  13.517  0.4654  3.9305 -1.0082
 3651TIP3   OH232367   2.293   1.522  13.041  0.8423  0.0609  0.1193
 3651TIP3    H132368   2.256   1.446  12.996  1.0344  0.3238 -0.4951
 3651TIP3    H232369   2.362   1.554  12.982  0.4811  0.9581  0.1661
 3652TIP3   OH232370   2.628   6.582   5.532  0.4619  0.5522  0.0963
 3652TIP3    H132371   2.723   6.576   5.548  0.5074  0.9220 -0.0181
 3652TIP3    H232372   2.620   6.646   5.461  0.0214  1.8032  1.2342
 3653TIP3   OH232373   0.993   5.558   6.435 -0.2665  0.5408  0.0021
 3653TIP3    H132374   0.998   5.614   6.512  3.0621  0.8363 -0.3054
 3653TIP3    H232375   0.986   5.619   6.361  0.2951  0.4454 -0.1369
 3654TIP3   OH232376   4.200   4.249  14.185  0.1025 -0.3390 -0.0760
 3654TIP3    H132377   4.221   4.228  14.094  1.4785  0.0886  0.1246
 3654TIP3    H232378   4.265   4.203  14.237  0.7961  1.2595  0.5520
 3655TIP3   OH232379   4.939   0.662  16.227 -0.1064  0.0615 -0.5612
 3655TIP3    H132380   4.966   0.571  16.213 -0.8688 -0.3371  0.5157
 3655TIP3    H232381   5.015   0.714  16.198  1.0046 -0.9672  0.4390
 3656TIP3   OH232382   4.459   5.101   4.342 -0.4855 -0.0185  0.8884
 3656TIP3    H132383   4.502   5.185   4.360 -0.4246  0.0898  0.2591
 3656TIP3    H232384   4.448   5.061   4.428 -0.2190  0.4912  1.1654
 3657TIP3   OH232385   4.238   1.863  16.962  0.0372 -0.3204  0.3399
 3657TIP3    H132386   4.268   1.813  17.038  1.1672  1.5238  1.1938
 3657TIP3    H232387   4.312   1.862  16.902  0.0314  0.1870  0.3165
 3658TIP3   OH232388   1.376   6.098   5.869 -0.0849 -0.0671 -0.2251
 3658TIP3    H132389   1.320   6.173   5.891  0.7962  0.2002  1.2945
 3658TIP3    H232390   1.390   6.104   5.775 -0.3753  1.4479 -0.1867
 3659TIP3   OH232391   4.601   1.443  17.129  0.0597 -0.0684  0.2739
 3659TIP3    H132392   4.591   1.348  17.135 -0.0987 -0.1215 -0.6235
 3659TIP3    H232393   4.611   1.472  17.219  1.3756 -1.0733  0.4814
 3660TIP3   OH232394   0.889   6.203  16.376 -0.2457 -0.4368  0.1586
 3660TIP3    H132395   0.835   6.166  16.446  0.0911 -0.0366  0.6323
 3660TIP3    H232396   0.889   6.297  16.393 -0.7676 -0.2507 -0.8065
 3661TIP3   OH232397   1.398   2.024   1.246  0.2548  0.2699  0.4919
 3661TIP3    H132398   1.323   2.017   1.187 -0.6244  2.4102  1.2319
 3661TIP3    H232399   1.474   2.013   1.190 -0.5768  1.1364 -0.8629
 3662TIP3   OH232400   1.000   1.896  11.800 -0.3260  0.1058  0.5161
 3662TIP3    H132401   1.083   1.866  11.838  0.2606  2.1278  0.9409
 3662TIP3    H232402   0.937   1.889  11.871 -0.0113  0.6133  0.8525
 3663TIP3   OH232403   1.552   5.907  12.676  0.1382 -0.1630  0.3952
 3663TIP3    H132404   1.565   5.826  12.627  0.4336 -0.3901  0.8364
 3663TIP3    H232405   1.618   5.903  12.745 -0.1781  0.2153  0.7226
 3664TIP3   OH232406   1.188   2.149   0.680 -0.2383  0.5776  0.3950
 3664TIP3    H132407   1.234   2.212   0.626  1.7903 -2.5268 -1.8756
 3664TIP3    H232408   1.241   2.143   0.760 -0.4907  1.7113  0.6657
 3665TIP3   OH232409   6.708   5.536   3.966  0.5964  0.2030  0.6127
 3665TIP3    H132410   6.659   5.513   4.045 -0.4688 -1.0381 -0.3690
 3665TIP3    H232411   6.640   5.557   3.901  1.3919 -0.2580 -0.3999
 3666TIP3   OH232412   3.479   0.465   2.987  0.3811 -0.4359 -0.2141
 3666TIP3    H132413   3.516   0.550   2.962  2.8933 -1.0317  1.0815
 3666TIP3    H232414   3.409   0.486   3.048  0.6905  0.7192 -0.2307
 3667TIP3   OH232415   5.059   3.562  14.221 -0.6705  0.2614  0.7053
 3667TIP3    H132416   5.082   3.477  14.182  1.3661  1.1975 -0.2678
 3667TIP3    H232417   5.000   3.539  14.293 -0.7906 -1.9125  0.0117
 3668TIP3   OH232418   0.024   1.558  12.426 -0.5017  0.9673  0.2485
 3668TIP3    H132419   0.014   1.530  12.517 -2.3617 -1.0806 -0.5009
 3668TIP3    H232420   0.115   1.535  12.404 -0.3978  0.3864  1.2212
 3669TIP3   OH232421   0.098   5.168   3.876 -0.2263  0.0829 -0.0615
 3669TIP3    H132422   0.064   5.113   3.806 -0.2549  0.0196  0.0022
 3669TIP3    H232423   0.020   5.199   3.922 -0.2403  0.6558 -0.4615
 3670TIP3   OH232424   2.617   6.161  16.281 -0.7232  0.1230  0.1861
 3670TIP3    H132425   2.677   6.114  16.339  1.8189  1.6839 -0.9820
 3670TIP3    H232426   2.650   6.143  16.193 -1.3308  1.8600 -0.4387
 3671TIP3   OH232427   2.461   4.966  11.593 -0.4085  0.7037  0.1506
 3671TIP3    H132428   2.411   4.932  11.519  1.3428 -2.4765  0.2478
 3671TIP3    H232429   2.487   4.888  11.643  4.7425  1.9649 -0.0143
 3672TIP3   OH232430   3.334   6.095  16.478 -0.1715 -0.0100 -0.0241
 3672TIP3    H132431   3.258   6.153  16.468  1.0033  1.3875 -1.3521
 3672TIP3    H232432   3.327   6.033  16.406  0.0563  0.2683 -0.2894
 3673TIP3   OH232433   2.630   3.715  12.357  0.4855  0.1953  0.1283
 3673TIP3    H132434   2.615   3.633  12.404  1.6985 -0.3992 -0.4758
 3673TIP3    H232435   2.576   3.706  12.278 -0.4479  0.5892  0.7003
 3674TIP3   OH232436   6.220   3.040   0.009 -0.4512 -0.1062 -0.2819
 3674TIP3    H132437   6.296   2.987   0.032 -0.0469  0.6164  0.0861
 3674TIP3    H232438   6.148   3.003   0.059  0.1875  0.7604  1.3681
 3675TIP3   OH232439   5.206   6.652   4.973 -0.4684  0.9972 -0.1923
 3675TIP3    H132440   5.182   6.570   4.930 -1.0884  1.3687 -0.5726
 3675TIP3    H232441   5.197   6.719   4.905  0.2029  1.3604  0.0672
 3676TIP3   OH232442   1.232   6.203   5.595 -0.1692 -0.2729 -0.2476
 3676TIP3    H132443   1.153   6.239   5.635 -0.0124  0.8613 -0.9066
 3676TIP3    H232444   1.301   6.265   5.617  0.9576 -2.1014  1.7577
 3677TIP3   OH232445   6.262   1.679  13.608  0.0283 -0.0957 -0.6102
 3677TIP3    H132446   6.278   1.747  13.542 -0.1011 -0.0101 -0.5541
 3677TIP3    H232447   6.347   1.665  13.648 -0.5520  2.7561  2.0095
 3678TIP3   OH232448   5.309   3.808   2.993 -0.0410 -0.1013  0.0826
 3678TIP3    H132449   5.224   3.820   3.035 -0.0453 -0.1578  0.0900
 3678TIP3    H232450   5.290   3.757   2.914  0.4312 -3.2918  1.8881
 3679TIP3   OH232451   0.381   1.776   5.310 -0.1052  0.4824  0.1631
 3679TIP3    H132452   0.436   1.748   5.383  0.4450 -0.2400 -0.5135
 3679TIP3    H232453   0.402   1.869   5.298  2.6265 -0.2127 -1.4189
 3680TIP3   OH232454   1.878   2.234   0.401 -0.3774 -0.1192 -0.0490
 3680TIP3    H132455   1.934   2.195   0.467 -0.7192  1.0308  0.9489
 3680TIP3    H232456   1.828   2.302   0.447  0.2552  1.5628 -1.7013
 3681TIP3   OH232457   0.759   5.935  14.174 -0.2476 -0.1481  0.3293
 3681TIP3    H132458   0.822   5.865  14.157  1.6490  1.1170  1.7008
 3681TIP3    H232459   0.726   5.959  14.088 -1.7310 -3.3267 -0.1151
 3682TIP3   OH232460   1.091   6.636   2.670 -1.1116  0.2087 -0.2109
 3682TIP3    H132461   1.159   6.607   2.731 -1.1547  0.6588  0.0595
 3682TIP3    H232462   1.038   6.558   2.654  1.5008 -1.1651 -3.2488
 3683TIP3   OH232463   2.585   3.487  12.511 -0.1716 -0.1735 -0.6073
 3683TIP3    H132464   2.491   3.478  12.527 -0.1538  2.1753  1.2963
 3683TIP3    H232465   2.625   3.481  12.598  1.2024  1.0771 -1.1060
 3684TIP3   OH232466   5.584   0.308  13.598 -0.3891 -0.3403 -0.5239
 3684TIP3    H132467   5.560   0.221  13.629  0.4732 -0.5065 -0.3164
 3684TIP3    H232468   5.611   0.355  13.677  0.7376 -0.4115 -0.8614
 3685TIP3   OH232469   1.997   1.960  14.381  0.0672  0.1398 -0.0172
 3685TIP3    H132470   1.928   2.019  14.351 -1.2506 -0.7915  1.0521
 3685TIP3    H232471   2.055   2.015  14.433 -0.4696  0.7256 -0.0304
 3686TIP3   OH232472   5.396   1.858   1.753 -0.0611  0.1156 -0.1204
 3686TIP3    H132473   5.451   1.806   1.811 -0.2785  1.2322  1.1535
 3686TIP3    H232474   5.334   1.796   1.715 -0.2034 -0.5935  1.2122
 3687TIP3   OH232475   3.807   3.374  11.087 -0.1201  0.3121  0.2127
 3687TIP3    H132476   3.788   3.420  11.006 -0.1229  0.2341  0.1693
 3687TIP3    H232477   3.814   3.443  11.153 -2.7965  0.2195  0.6886
 3688TIP3   OH232478   6.146   1.250  11.856  0.4980  0.0139  0.4662
 3688TIP3    H132479   6.168   1.293  11.773 -3.8939  1.0499 -0.4010
 3688TIP3    H232480   6.204   1.291  11.920  0.7540  2.7824 -1.3614
 3689TIP3   OH232481   0.855   3.861   4.409  0.6659  0.2878 -0.3506
 3689TIP3    H132482   0.787   3.907   4.359  0.5207  0.5586  0.0873
 3689TIP3    H232483   0.859   3.907   4.492  1.3621  0.2437 -0.3531
 3690TIP3   OH232484   5.941   0.264  12.909 -0.4139  0.2271  0.0808
 3690TIP3    H132485   5.867   0.283  12.965 -0.1396 -0.5666  0.7402
 3690TIP3    H232486   6.008   0.327  12.935 -0.5421  0.3461  0.1236
 3691TIP3   OH232487   0.193   0.332  16.154  0.0837  0.0325 -0.3131
 3691TIP3    H132488   0.128   0.397  16.128  1.2523  0.3184 -2.8555
 3691TIP3    H232489   0.189   0.265  16.085  1.7399 -0.4571  0.0059
 3692TIP3   OH232490   2.298   4.141  13.235  0.9318 -0.5192 -0.1305
 3692TIP3    H132491   2.235   4.084  13.280 -0.8511 -0.1622 -2.0369
 3692TIP3    H232492   2.274   4.135  13.142  2.5342  1.1201 -0.7142
 3693TIP3   OH232493   2.185   5.175  11.804 -0.1433  0.4020  0.4134
 3693TIP3    H132494   2.246   5.118  11.757 -2.1650 -2.3364  0.9083
 3693TIP3    H232495   2.226   5.262  11.800  2.2359 -0.6914 -1.8992
 3694TIP3   OH232496   5.314   3.748  12.484 -0.2410 -0.6055 -0.4191
 3694TIP3    H132497   5.405   3.719  12.490 -0.1117  0.1057  1.7145
 3694TIP3    H232498   5.276   3.726  12.569 -2.1828 -1.2025 -1.3944
 3695TIP3   OH232499   0.016   4.160   1.864  0.3051 -0.2187 -0.2015
 3695TIP3    H132500  -0.035   4.085   1.836 -0.2135 -0.2652  0.8128
 3695TIP3    H232501   0.107   4.131   1.857  0.1180 -0.8373 -0.1272
 3696TIP3   OH232502   3.050   0.648   6.685 -0.3055 -0.3803 -0.0612
 3696TIP3    H132503   3.113   0.715   6.658 -1.8846  0.3871 -2.1319
 3696TIP3    H232504   2.986   0.696   6.739  0.4865 -1.0389  1.5510
 3697TIP3   OH232505   1.634   6.536   4.066  0.1235  0.3814  0.0042
 3697TIP3    H132506   1.712   6.525   4.121 -0.1115  0.1044  0.2869
 3697TIP3    H232507   1.665   6.521   3.977  0.5272  0.9124  0.0491
 3698TIP3   OH232508   3.068   6.598   2.056 -0.1645  0.0070  0.1379
 3698TIP3    H132509   3.081   6.538   2.129  1.7054  0.1205 -0.0330
 3698TIP3    H232510   3.016   6.670   2.092 -1.1328 -0.9819  0.7470
 3699TIP3   OH232511   2.294   4.331   3.597 -0.0844 -0.4267 -0.1567
 3699TIP3    H132512   2.234   4.295   3.662  0.6977  0.0171  0.8328
 3699TIP3    H232513   2.377   4.286   3.612  1.1691  2.2213  1.6536
 3700TIP3   OH232514   0.453   1.035  14.681 -0.2168 -0.1209  0.5614
 3700TIP3    H132515   0.477   0.943  14.670 -0.3343 -0.1055  0.1704
 3700TIP3    H232516   0.368   1.032  14.724 -0.7098 -0.2173 -0.3887
 3701TIP3   OH232517   5.566   0.766  14.718  0.2265  0.1070 -0.5614
 3701TIP3    H132518   5.497   0.700  14.709 -1.0388  1.3416 -0.2780
 3701TIP3    H232519   5.645   0.715  14.735 -0.4885 -1.3915 -1.4260
 3702TIP3   OH232520   3.789   0.774  12.489 -0.8793  0.1583 -0.0202
 3702TIP3    H132521   3.857   0.834  12.457 -1.3087  0.6800  0.0212
 3702TIP3    H232522   3.792   0.785  12.584  0.2880 -1.2699  0.1499
 3703TIP3   OH232523   6.081   0.708  17.062 -0.0346 -0.0598 -0.1433
 3703TIP3    H132524   6.054   0.757  16.984  0.5079 -0.8108 -0.8239
 3703TIP3    H232525   6.001   0.697  17.113 -0.2503  1.1274 -0.1898
 3704TIP3   OH232526   6.349   6.052   6.015  0.1519  0.1223  0.0608
 3704TIP3    H132527   6.287   5.987   6.050  0.6345 -0.7639 -0.6962
 3704TIP3    H232528   6.414   6.001   5.968  1.5282  1.0342  0.8952
 3705TIP3   OH232529   6.019   2.970   5.987  0.1060  0.1777  0.7711
 3705TIP3    H132530   6.064   2.982   5.904 -2.0788 -0.3833 -0.5871
 3705TIP3    H232531   6.084   2.929   6.044  1.6973  0.6856 -0.6173
 3706TIP3   OH232532   4.647   2.316   5.399  0.3007  0.7388 -0.8530
 3706TIP3    H132533   4.718   2.274   5.351  1.7054 -0.9539  2.4305
 3706TIP3    H232534   4.685   2.397   5.432  0.6910 -0.0464  0.6952
 3707TIP3   OH232535   2.167   1.884  15.358  0.6753 -0.2119  0.4634
 3707TIP3    H132536   2.257   1.886  15.324  0.5705 -0.4230  0.1643
 3707TIP3    H232537   2.125   1.961  15.319  0.3427 -0.8604 -0.5073
 3708TIP3   OH232538   4.455   3.624  11.946 -0.4220 -0.0061  0.1944
 3708TIP3    H132539   4.451   3.705  11.895  0.4114 -0.1163 -0.0765
 3708TIP3    H232540   4.447   3.554  11.880  0.2841 -0.1456  0.2405
 3709TIP3   OH232541   4.578   4.734   1.500  0.0443  0.0289  0.2890
 3709TIP3    H132542   4.635   4.728   1.577  0.6839  0.8237 -0.1065
 3709TIP3    H232543   4.637   4.759   1.429 -0.7485  0.5239 -0.2059
 3710TIP3   OH232544   6.743   0.579  13.917  0.4581  0.1980 -0.4631
 3710TIP3    H132545   6.791   0.517  13.861  0.6310  0.8412 -1.0379
 3710TIP3    H232546   6.694   0.523  13.978  0.0267 -0.5289 -1.4433
 3711TIP3   OH232547   3.403   3.765  10.872  0.3553 -0.3618 -0.0114
 3711TIP3    H132548   3.402   3.754  10.777  1.5010 -0.9759  0.0279
 3711TIP3    H232549   3.466   3.836  10.887  0.0008 -0.1068  0.2802
 3712TIP3   OH232550   1.669   6.622   4.673  0.0404  0.0619 -0.2553
 3712TIP3    H132551   1.669   6.694   4.610  1.7681  0.4565  0.1215
 3712TIP3    H232552   1.752   6.633   4.721 -0.9878 -0.5069  1.7509
 3713TIP3   OH232553   2.775   2.064   5.725 -0.3186  0.6751 -0.0781
 3713TIP3    H132554   2.710   2.083   5.658  0.4293 -0.7603 -1.2804
 3713TIP3    H232555   2.859   2.072   5.680  0.1662 -1.4021  0.3321
 3714TIP3   OH232556   1.618   5.452  11.674 -0.5044  0.6027  0.2192
 3714TIP3    H132557   1.698   5.404  11.694 -1.4258 -2.0005 -1.8442
 3714TIP3    H232558   1.648   5.530  11.626  0.8302  0.3489  0.6100
 3715TIP3   OH232559   2.214   5.437  15.636  0.2001 -0.1176  0.4308
 3715TIP3    H132560   2.216   5.500  15.708  0.7477 -0.3676  0.6378
 3715TIP3    H232561   2.130   5.391  15.647 -0.4266  0.8910 -0.0076
 3716TIP3   OH232562   4.920   0.605   5.608  0.4049 -0.6996 -0.4360
 3716TIP3    H132563   4.932   0.683   5.662  1.3913 -0.0363 -1.5694
 3716TIP3    H232564   5.002   0.556   5.617  0.3161 -0.9180 -0.7835
 3717TIP3   OH232565   3.914   0.689  12.810 -0.1354  0.8252  0.1442
 3717TIP3    H132566   3.982   0.694  12.743  0.8144  1.7169  1.1268
 3717TIP3    H232567   3.859   0.765  12.794 -1.4053 -0.3046 -1.1207
 3718TIP3   OH232568   5.615   6.420  14.960 -0.3456  0.1851 -0.3061
 3718TIP3    H132569   5.568   6.503  14.968 -2.6567 -1.0057 -0.5838
 3718TIP3    H232570   5.672   6.432  14.884  1.3981  2.3607  1.2386
 3719TIP3   OH232571   3.077   0.710  14.661  0.5583 -0.2331 -0.5222
 3719TIP3    H132572   3.030   0.653  14.600 -2.9058  1.3835  0.3944
 3719TIP3    H232573   3.100   0.787  14.608  0.1499 -0.0782 -0.4794
 3720TIP3   OH232574   6.532   1.588   1.770  0.2591  0.9906  0.3748
 3720TIP3    H132575   6.542   1.525   1.841 -1.3771 -0.3121 -0.4688
 3720TIP3    H232576   6.464   1.648   1.800 -1.2668 -0.2392 -0.4606
 3721TIP3   OH232577   6.562   3.658  14.473 -0.0409 -0.1554 -0.0494
 3721TIP3    H132578   6.609   3.638  14.392  0.4423 -0.6999  0.3547
 3721TIP3    H232579   6.629   3.695  14.530 -0.1223 -0.8123  0.4873
 3722TIP3   OH232580   4.374   1.601  17.080  0.1590  0.0523  0.1459
 3722TIP3    H132581   4.438   1.584  17.149  0.2835 -0.6821 -0.1417
 3722TIP3    H232582   4.426   1.611  17.000 -0.1497 -2.3337 -0.4277
 3723TIP3   OH232583   4.957   6.338  13.689 -0.0968  0.1904  0.0478
 3723TIP3    H132584   5.015   6.268  13.719 -1.1140 -0.6628  0.0671
 3723TIP3    H232585   4.899   6.355  13.764  1.0318  2.0689  0.5673
 3724TIP3   OH232586   2.819   1.241  14.918 -0.4422  0.0400  0.1607
 3724TIP3    H132587   2.821   1.243  14.823 -1.5671 -0.4421  0.1118
 3724TIP3    H232588   2.815   1.148  14.941  1.4907  0.0537  0.7523
 3725TIP3   OH232589   4.866   6.379  14.826 -0.1002  0.0709  0.2110
 3725TIP3    H132590   4.820   6.328  14.892  0.1980 -0.6269 -0.1181
 3725TIP3    H232591   4.808   6.378  14.750 -0.9498  1.7822  0.7803
 3726TIP3   OH232592   2.169   2.730   4.026  0.0514  0.0425  0.1476
 3726TIP3    H132593   2.132   2.707   3.941 -0.5108 -0.0208  0.4027
 3726TIP3    H232594   2.115   2.682   4.089  0.2505  0.3474  0.5544
 3727TIP3   OH232595   5.856   0.081   2.408  0.0328 -0.1057  0.3249
 3727TIP3    H132596   5.937   0.131   2.408 -0.6692  1.0805  1.2784
 3727TIP3    H232597   5.859   0.029   2.488 -0.0014 -0.3363  0.1810
 3728TIP3   OH232598   4.890   2.133   6.250  0.6198  0.3107  0.4374
 3728TIP3    H132599   4.943   2.055   6.232 -0.5148 -0.6134  0.9910
 3728TIP3    H232600   4.926   2.168   6.332 -1.0545 -1.6984  2.1689
 3729TIP3   OH232601   2.573   3.339  14.458 -0.0173  0.8311 -0.4232
 3729TIP3    H132602   2.666   3.321  14.446  0.0255  1.0100 -0.3558
 3729TIP3    H232603   2.529   3.261  14.424  0.1865  0.3531  0.3896
 3730TIP3   OH232604   0.718   1.146  11.285 -0.1149 -0.3694  0.1948
 3730TIP3    H132605   0.708   1.216  11.221  0.3931 -1.5936 -1.2794
 3730TIP3    H232606   0.783   1.087  11.246 -0.0276 -1.3162  1.7016
 3731TIP3   OH232607   0.434   4.339  15.084  0.1364  0.1798  0.7080
 3731TIP3    H132608   0.504   4.318  15.021 -1.1865  0.4611 -0.9255
 3731TIP3    H232609   0.358   4.290  15.052 -0.6828  0.6466  1.8758
 3732TIP3   OH232610   6.024   3.090   0.245  0.3235  0.2949  0.4874
 3732TIP3    H132611   6.037   3.054   0.333  0.2873 -0.2363  0.2783
 3732TIP3    H232612   5.943   3.049   0.215  1.5257 -1.3261 -0.6961
 3733TIP3   OH232613   0.539   4.006  13.082 -0.1708 -0.0825  0.4187
 3733TIP3    H132614   0.604   4.068  13.114  0.8376 -0.6909 -0.3725
 3733TIP3    H232615   0.584   3.921  13.082 -1.1312 -0.6103  0.3425
 3734TIP3   OH232616   4.637   5.295  13.079  0.1202  0.0193  0.1443
 3734TIP3    H132617   4.549   5.307  13.044 -0.1693 -2.8408 -0.3504
 3734TIP3    H232618   4.695   5.312  13.005 -0.1641 -0.3409 -0.1653
 3735TIP3   OH232619   4.642   5.517  14.401  0.1429  0.2032  0.1160
 3735TIP3    H132620   4.694   5.488  14.325 -0.1411  1.0054 -0.3934
 3735TIP3    H232621   4.553   5.526  14.367  0.2171  1.6226  0.2723
 3736TIP3   OH232622   6.189   5.072   0.655 -0.2454  0.5322  0.0684
 3736TIP3    H132623   6.142   5.156   0.653 -0.5577  0.3871  0.9877
 3736TIP3    H232624   6.222   5.062   0.566 -1.0721  1.1444 -0.3286
 3737TIP3   OH232625   3.189   5.060  11.092  0.6068 -0.5535 -0.0900
 3737TIP3    H132626   3.238   5.142  11.082  0.2396 -0.3857 -0.5538
 3737TIP3    H232627   3.247   4.993  11.056  0.4035 -0.3202 -0.8798
 3738TIP3   OH232628   5.374   4.951  11.448  0.0047  0.2091 -0.6106
 3738TIP3    H132629   5.316   4.877  11.431 -0.8966  0.9078 -0.7029
 3738TIP3    H232630   5.386   4.993  11.363 -1.8841  1.8340 -0.1538
 3739TIP3   OH232631   1.574   5.272  17.091 -0.3418 -0.0467  0.2630
 3739TIP3    H132632   1.658   5.231  17.072 -0.0729  0.7392 -0.3269
 3739TIP3    H232633   1.587   5.365  17.069 -1.4883  0.0176 -0.2580
 3740TIP3   OH232634   0.777   1.486   3.039  0.1017  0.2220 -0.4209
 3740TIP3    H132635   0.815   1.421   3.097 -1.7766 -1.8194 -1.3299
 3740TIP3    H232636   0.827   1.566   3.056  3.0123 -1.5974  0.2089
 3741TIP3   OH232637   1.948   0.081  11.031  0.1234  0.6988 -0.6321
 3741TIP3    H132638   1.940   0.073  11.126  1.3286 -0.5604 -0.6194
 3741TIP3    H232639   2.033   0.042  11.010 -0.4718  0.2277 -2.3168
 3742TIP3   OH232640   1.655   1.669  16.952  0.3693 -0.2086 -0.2387
 3742TIP3    H132641   1.665   1.718  16.870  0.7929  0.9024  0.4503
 3742TIP3    H232642   1.707   1.718  17.016 -1.2876 -0.0716  1.0881
 3743TIP3   OH232643   1.462   6.476   3.826  0.0687  0.0808 -0.4598
 3743TIP3    H132644   1.475   6.428   3.744 -1.2876 -0.0957 -0.6031
 3743TIP3    H232645   1.369   6.464   3.846  0.5871 -0.8489  1.7286
 3744TIP3   OH232646   5.626   0.362   2.541 -0.5389  0.1612 -0.1509
 3744TIP3    H132647   5.607   0.288   2.484  1.2040 -1.1486  0.8898
 3744TIP3    H232648   5.579   0.343   2.622 -0.0932  0.1741  0.1162
 3745TIP3   OH232649   5.696   6.134  15.309 -0.1649  0.4325  0.6806
 3745TIP3    H132650   5.650   6.103  15.231  0.9801 -1.0547  0.5307
 3745TIP3    H232651   5.655   6.086  15.381  0.6840 -0.4148  0.6195
 3746TIP3   OH232652   0.412   4.859  14.921 -0.4329 -0.3796  0.2383
 3746TIP3    H132653   0.414   4.926  14.989 -0.8529 -0.5476  0.4228
 3746TIP3    H232654   0.333   4.808  14.941 -0.6413 -0.3384 -0.4536
 3747TIP3   OH232655   6.519   5.378   3.650 -0.2048  0.2783  0.4116
 3747TIP3    H132656   6.565   5.435   3.588 -1.0539  0.2970 -0.2153
 3747TIP3    H232657   6.491   5.437   3.720 -1.9192  0.8645 -0.6941
 3748TIP3   OH232658   3.018   6.017  17.160 -0.3621 -0.4091  0.0862
 3748TIP3    H132659   2.951   6.003  17.227  0.7994 -2.0135  0.9631
 3748TIP3    H232660   3.061   5.933  17.150 -0.0444 -0.0403 -2.2344
 3749TIP3   OH232661   5.138   1.292   4.959 -0.3974 -0.1646  0.4735
 3749TIP3    H132662   5.172   1.210   4.923  0.6756  0.6727 -0.4815
 3749TIP3    H232663   5.060   1.311   4.908  0.0370  0.0183 -0.1350
 3750TIP3   OH232664   2.481   5.584   5.348 -0.3541 -0.0357 -0.3083
 3750TIP3    H132665   2.476   5.491   5.329  3.0382 -0.4854  0.3580
 3750TIP3    H232666   2.448   5.592   5.438 -2.0049 -0.2849 -0.8483
 3751TIP3   OH232667   1.859   2.377  16.424  0.4671  0.4542  0.1390
 3751TIP3    H132668   1.804   2.419  16.490  1.9065  1.1999  0.9230
 3751TIP3    H232669   1.798   2.334  16.364 -0.8813 -0.1434  1.8875
 3752TIP3   OH232670   0.693   4.168  15.738 -0.4260  0.4642 -0.2045
 3752TIP3    H132671   0.666   4.165  15.647 -0.9596  2.4147 -0.1440
 3752TIP3    H232672   0.752   4.244  15.743  1.0079 -0.6414  0.7368
 3753TIP3   OH232673   4.516   0.321  15.557 -0.5630 -0.4745 -0.1083
 3753TIP3    H132674   4.546   0.411  15.541  0.6902 -0.5685  1.4832
 3753TIP3    H232675   4.559   0.269  15.489 -0.2637 -0.0569 -0.2453
 3754TIP3   OH232676   4.982   5.711  10.622 -0.3759  0.2268 -0.5779
 3754TIP3    H132677   4.959   5.620  10.641 -1.0540  0.2216 -1.3456
 3754TIP3    H232678   4.898   5.754  10.604 -0.0620  0.9959 -0.2661
 3755TIP3   OH232679   3.979   1.908   1.144  0.1922 -0.3004  0.4000
 3755TIP3    H132680   3.976   1.815   1.168 -2.3934 -0.3202  0.3177
 3755TIP3    H232681   4.021   1.909   1.058 -1.1022 -1.6146 -0.2926
 3756TIP3   OH232682   4.249   0.687  17.046  0.1537 -0.2184  0.0932
 3756TIP3    H132683   4.226   0.674  17.138  0.0645 -1.5036 -0.1051
 3756TIP3    H232684   4.242   0.601  17.006  0.1698  0.3251 -1.1346
 3757TIP3   OH232685   1.466   1.626   4.185  0.3835  0.1031 -0.8952
 3757TIP3    H132686   1.446   1.689   4.116 -0.2663  0.4560 -0.3931
 3757TIP3    H232687   1.381   1.598   4.218  0.6500 -1.2911 -1.3139
 3758TIP3   OH232688   1.427   1.790  13.664 -0.8110 -0.0948  0.0367
 3758TIP3    H132689   1.459   1.728  13.598 -1.8449 -2.1677  1.3757
 3758TIP3    H232690   1.493   1.858  13.667  0.7193 -1.4559 -1.0741
 3759TIP3   OH232691   1.576   3.600  17.060  0.4591  0.0864  0.3338
 3759TIP3    H132692   1.610   3.651  17.134  0.9928 -0.9294  0.8162
 3759TIP3    H232693   1.650   3.595  16.999  0.1477  0.5773 -0.0873
 3760TIP3   OH232694   5.141   4.163  12.191 -0.2864  0.7476 -0.0849
 3760TIP3    H132695   5.231   4.162  12.159 -0.5697 -0.3948 -0.9097
 3760TIP3    H232696   5.087   4.165  12.112 -0.9854  0.1181  0.3580
 3761TIP3   OH232697   0.973   0.109   1.375  0.1538  0.0285 -0.1915
 3761TIP3    H132698   1.056   0.154   1.362 -1.1086  2.4666 -0.3519
 3761TIP3    H232699   0.936   0.100   1.287 -0.0507 -0.4570 -0.0613
 3762TIP3   OH232700   2.581   2.604   2.243 -0.1322 -0.4501  0.4488
 3762TIP3    H132701   2.642   2.594   2.317 -0.4409 -1.1244  0.6277
 3762TIP3    H232702   2.496   2.621   2.285 -0.3771 -1.1971  0.2681
 3763TIP3   OH232703   4.006   0.163  11.720 -0.3592 -0.4388  0.2557
 3763TIP3    H132704   3.925   0.200  11.686  0.2347 -0.2238 -1.0110
 3763TIP3    H232705   4.033   0.223  11.789 -0.5618  0.2714 -0.2644
 3764TIP3   OH232706   5.975   1.297   0.934 -0.2952 -0.2144 -0.6018
 3764TIP3    H132707   5.945   1.358   1.001  0.1811 -1.5438  0.8993
 3764TIP3    H232708   6.067   1.318   0.921 -0.5917  0.6057 -1.5215
 3765TIP3   OH232709   3.116   1.096   2.453 -0.2301 -0.1210  0.1137
 3765TIP3    H132710   3.175   1.032   2.416 -0.2220  0.0539 -0.1810
 3765TIP3    H232711   3.135   1.096   2.547  0.3117  0.0128  0.0073
 3766TIP3   OH232712   1.553   1.053  12.524  0.4486 -0.0830  0.5374
 3766TIP3    H132713   1.572   1.096  12.608  0.1213  1.4492 -0.1473
 3766TIP3    H232714   1.504   1.118  12.474 -2.7743 -2.2903  0.5514
 3767TIP3   OH232715   2.211   4.493  12.389  0.9434  0.0004  0.0861
 3767TIP3    H132716   2.280   4.547  12.349  0.9337  0.2706  0.4365
 3767TIP3    H232717   2.256   4.442  12.456  1.0300 -0.7385 -0.5247
 3768TIP3   OH232718   2.554   5.277  15.240  0.1567  0.2855 -0.2363
 3768TIP3    H132719   2.588   5.305  15.155 -0.6103  0.5049 -0.4794
 3768TIP3    H232720   2.459   5.272  15.227  0.0148  0.5177  0.6607
 3769TIP3   OH232721   3.688   0.095   0.258  0.9725  0.4785  0.0352
 3769TIP3    H132722   3.683   0.142   0.175 -1.5193 -1.1103 -0.8382
 3769TIP3    H232723   3.715   0.007   0.234 -1.4673 -0.5106  0.5473
 3770TIP3   OH232724   5.360   6.711   2.997  0.0329 -0.1396 -0.0582
 3770TIP3    H132725   5.328   6.793   2.959  2.3118  0.7006 -0.3001
 3770TIP3    H232726   5.346   6.646   2.928  0.0209  0.4582 -0.6280
 3771TIP3   OH232727   5.577   5.400  12.813  0.3418 -0.4290 -0.1870
 3771TIP3    H132728   5.608   5.489  12.826 -2.7033  0.8786 -0.8273
 3771TIP3    H232729   5.487   5.401  12.848  0.7731 -3.7733  1.4185
 3772TIP3   OH232730   6.001   4.206  16.890 -0.8581  0.2753 -0.9761
 3772TIP3    H132731   6.092   4.175  16.894 -1.2578 -1.3634 -3.0389
 3772TIP3    H232732   5.949   4.127  16.907 -1.9206  1.0785 -0.4134
 3773TIP3   OH232733   5.303   5.076   2.384  0.1246 -0.9197  0.0916
 3773TIP3    H132734   5.363   5.078   2.310 -0.3752 -1.4902 -0.3441
 3773TIP3    H232735   5.232   5.136   2.359  1.2926  1.0866  1.3270
 3774TIP3   OH232736   4.719   1.276   1.817  0.0055  0.1070 -0.5104
 3774TIP3    H132737   4.708   1.203   1.756  1.4718 -0.2587 -0.3746
 3774TIP3    H232738   4.630   1.309   1.832 -0.4766 -0.4386 -2.0438
 3775TIP3   OH232739   5.191   1.281  16.267  0.1357 -0.1392 -0.6816
 3775TIP3    H132740   5.111   1.312  16.224  0.9277  2.9599 -0.1948
 3775TIP3    H232741   5.166   1.271  16.359  0.1915  0.5367 -0.5838
 3776TIP3   OH232742   0.577   2.386  13.417  0.5467  0.3026 -0.1042
 3776TIP3    H132743   0.614   2.420  13.498  0.7660  2.8522 -1.1854
 3776TIP3    H232744   0.485   2.367  13.438  0.5879  0.9686  0.7301
 3777TIP3   OH232745   0.510   2.648   1.654  0.1407  0.9144  0.1914
 3777TIP3    H132746   0.473   2.713   1.714 -3.3146  0.0425 -0.7568
 3777TIP3    H232747   0.471   2.565   1.682  2.2865 -0.3365 -0.3256
 3778TIP3   OH232748   1.095   2.492   0.857 -0.0159 -0.5361 -0.1851
 3778TIP3    H132749   1.020   2.433   0.863 -0.0087 -0.4899  0.4100
 3778TIP3    H232750   1.059   2.578   0.880 -0.1426 -0.2060 -1.5735
 3779TIP3   OH232751   3.669   3.990   6.240  0.0869  0.0831  0.0658
 3779TIP3    H132752   3.615   3.968   6.316 -0.4654  0.4794 -0.2094
 3779TIP3    H232753   3.731   3.917   6.233  0.8506  0.5397  1.5372
 3780TIP3   OH232754   3.769   3.976  12.189 -0.3105 -0.5457 -0.2852
 3780TIP3    H132755   3.739   3.937  12.271  0.7455 -0.0313  0.3786
 3780TIP3    H232756   3.702   4.040  12.167  0.3902  0.8497  1.3647
 3781TIP3   OH232757   0.491   3.087  16.966  1.1175  0.5917 -0.0962
 3781TIP3    H132758   0.507   3.115  17.056 -0.9105  0.5638  0.3003
 3781TIP3    H232759   0.570   3.037  16.943  1.7475  0.7374  1.5834
 3782TIP3   OH232760   1.680   0.740   5.242 -0.0312  0.7016  0.3952
 3782TIP3    H132761   1.653   0.792   5.317 -0.0649  1.7959 -0.3465
 3782TIP3    H232762   1.772   0.719   5.259  0.0411  1.1774  0.6214
 3783TIP3   OH232763   1.350   2.618  14.200 -0.3473  0.1293 -0.2219
 3783TIP3    H132764   1.391   2.703  14.185  1.0372  0.1730  3.0486
 3783TIP3    H232765   1.397   2.581  14.274 -1.0426 -3.4492 -1.3679
 3784TIP3   OH232766   0.570   0.511   1.489 -0.5296  0.0645  0.0436
 3784TIP3    H132767   0.498   0.449   1.503 -0.4682  0.2521  1.3823
 3784TIP3    H232768   0.532   0.596   1.509 -0.3800  0.3622 -0.9364
 3785TIP3   OH232769   6.442   0.518  13.507 -0.1936 -0.1192 -0.6678
 3785TIP3    H132770   6.515   0.544  13.563  0.7674 -1.7184 -1.1367
 3785TIP3    H232771   6.446   0.578  13.432 -0.4565  0.9300  0.1383
 3786TIP3   OH232772   5.664   0.097   4.858 -0.5920 -0.3608  0.5735
 3786TIP3    H132773   5.713   0.169   4.818 -0.4196 -1.3580 -1.1198
 3786TIP3    H232774   5.720   0.021   4.844 -1.5761 -1.1252  0.7092
 3787TIP3   OH232775   4.924   5.132  12.597 -0.2716  0.1547 -0.6162
 3787TIP3    H132776   4.910   5.185  12.519  0.5078 -0.1613 -0.9804
 3787TIP3    H232777   4.837   5.100  12.621 -0.6305  0.9380 -0.8587
 3788TIP3   OH232778   4.369   5.075  13.257 -0.5114 -0.8304  0.3673
 3788TIP3    H132779   4.363   5.111  13.169 -2.2649 -0.0109  0.7747
 3788TIP3    H232780   4.413   5.143  13.308 -3.2711  0.6270  0.9994
 3789TIP3   OH232781   2.758   5.447  12.785  0.4874 -0.3093 -0.3794
 3789TIP3    H132782   2.688   5.386  12.808 -0.8606  0.9179 -1.0606
 3789TIP3    H232783   2.805   5.403  12.714 -0.4141 -0.6253 -0.8071
 3790TIP3   OH232784   3.717   0.959   1.009  0.2674 -0.5584 -0.6829
 3790TIP3    H132785   3.793   0.914   0.974  1.9910  1.7658 -0.1981
 3790TIP3    H232786   3.643   0.929   0.956  1.4519 -3.0080 -1.0512
 3791TIP3   OH232787   1.829   2.674   0.807 -0.0186  0.3514 -0.0236
 3791TIP3    H132788   1.830   2.769   0.810 -2.6555  0.4369  0.9818
 3791TIP3    H232789   1.778   2.654   0.728 -0.3580 -0.1918  0.3288
 3792TIP3   OH232790   6.474   4.105  13.625  0.7793  0.1993  0.0364
 3792TIP3    H132791   6.561   4.139  13.605  1.4370 -1.2224  0.3500
 3792TIP3    H232792   6.444   4.066  13.544  0.9269 -0.3230  0.2302
 3793TIP3   OH232793   4.411   3.701   0.830  0.5498  0.6803 -0.0450
 3793TIP3    H132794   4.439   3.632   0.890 -1.1595  0.3039  0.3530
 3793TIP3    H232795   4.472   3.695   0.756 -0.3579 -2.1688 -0.6742
 3794TIP3   OH232796   6.531   5.636  15.621  0.1310 -0.3655  0.4737
 3794TIP3    H132797   6.534   5.703  15.690 -2.5410  0.5128 -0.1386
 3794TIP3    H232798   6.437   5.620  15.608  0.6483 -2.9018 -0.7181
 3795TIP3   OH232799   6.294   2.247  14.713  0.5928  0.5987  0.6056
 3795TIP3    H132800   6.248   2.326  14.744  0.9501  1.2289 -0.4220
 3795TIP3    H232801   6.224   2.186  14.689  0.3091  0.8887  0.6854
 3796TIP3   OH232802   1.671   2.278  13.706  0.2715 -0.5609  0.8577
 3796TIP3    H132803   1.695   2.313  13.792  0.0622  2.9862 -0.3624
 3796TIP3    H232804   1.728   2.325  13.645 -0.5535 -1.9488 -1.0859
 3797TIP3   OH232805   2.933   3.434  13.303 -0.5492 -0.4346 -0.2237
 3797TIP3    H132806   2.880   3.403  13.377 -0.4917  0.3134  0.1384
 3797TIP3    H232807   3.021   3.444  13.339 -0.6035  0.3217 -0.2777
 3798TIP3   OH232808   0.487   6.223   0.410  0.3515 -0.1802  0.4000
 3798TIP3    H132809   0.406   6.178   0.387 -0.1260  0.5098  0.6999
 3798TIP3    H232810   0.481   6.236   0.505  0.4861  0.5011  0.3206
 3799TIP3   OH232811   4.458   2.915  11.294 -0.0492 -0.2051 -0.1309
 3799TIP3    H132812   4.371   2.886  11.268 -0.6704  0.0010  1.5726
 3799TIP3    H232813   4.514   2.839  11.279 -1.0582 -1.2909  1.2957
 3800TIP3   OH232814   3.022   1.630  10.405  0.2412  0.2293 -0.1438
 3800TIP3    H132815   3.110   1.666  10.396 -0.3768  1.6531 -0.6450
 3800TIP3    H232816   2.979   1.685  10.470 -1.0192  1.0655 -1.6037
 3801TIP3   OH232817   1.285   3.145   5.020 -0.0728 -0.0484  0.1298
 3801TIP3    H132818   1.212   3.105   4.973 -0.8360  1.2240  0.1856
 3801TIP3    H232819   1.248   3.174   5.103  0.7297 -0.2444  0.5658
 3802TIP3   OH232820   4.721   0.417   5.307  0.7806  0.0030 -0.0886
 3802TIP3    H132821   4.666   0.494   5.319  0.3931 -0.0718 -1.2813
 3802TIP3    H232822   4.697   0.359   5.379  1.7009  1.3169  1.3651
 3803TIP3   OH232823   5.635   5.263   6.314  0.0431 -0.3181  0.4152
 3803TIP3    H132824   5.601   5.238   6.228  1.3092 -0.1410 -0.1601
 3803TIP3    H232825   5.601   5.196   6.374 -0.0357 -1.0171 -0.3967
 3804TIP3   OH232826   6.275   4.786  13.807  0.6136 -0.1006 -0.5986
 3804TIP3    H132827   6.316   4.761  13.724  1.4282 -1.0396  0.0637
 3804TIP3    H232828   6.336   4.849  13.845  0.2469  0.3177 -0.6969
 3805TIP3   OH232829   1.694   6.314   3.296  0.5530 -0.0661 -0.1747
 3805TIP3    H132830   1.622   6.265   3.258  0.3012 -0.8199  1.1905
 3805TIP3    H232831   1.665   6.405   3.293 -0.5944 -0.3758  0.5652
 3806TIP3   OH232832   1.507   4.373  14.426  0.4031 -0.2358  0.0473
 3806TIP3    H132833   1.416   4.357  14.449 -0.2172  0.4847 -1.6924
 3806TIP3    H232834   1.542   4.286  14.407 -0.4292 -0.4020 -0.8581
 3807TIP3   OH232835   1.678   4.814   4.696 -0.1539 -0.9057  0.1335
 3807TIP3    H132836   1.723   4.789   4.615 -0.3648 -1.2263  0.1124
 3807TIP3    H232837   1.696   4.742   4.756  0.6765 -0.2917  0.6387
 3808TIP3   OH232838   1.747   3.415   2.420 -0.3464  0.3199  0.1087
 3808TIP3    H132839   1.683   3.390   2.487  0.1913 -0.4973  0.3297
 3808TIP3    H232840   1.728   3.357   2.346  1.1426 -1.0762  0.7572
 3809TIP3   OH232841   0.042   3.861   4.776  0.2288 -0.7940 -0.3989
 3809TIP3    H132842  -0.007   3.917   4.716  0.4241 -0.8635 -0.6228
 3809TIP3    H232843   0.132   3.893   4.770  0.0706 -0.0810  0.6746
 3810TIP3   OH232844   5.263   5.652  14.754  0.0905 -0.8432  0.2385
 3810TIP3    H132845   5.169   5.657  14.773 -0.2657 -2.2044 -0.9580
 3810TIP3    H232846   5.301   5.615  14.834 -0.1526  0.9316  1.2324
 3811TIP3   OH232847   4.934   5.649   5.605 -0.0733  0.0093 -0.2563
 3811TIP3    H132848   4.975   5.698   5.676 -0.3750 -0.6602  0.3923
 3811TIP3    H232849   4.970   5.561   5.612 -1.6319 -0.6262  0.3825
 3812TIP3   OH232850   0.621   5.447  11.596 -0.0159 -0.5013  0.1932
 3812TIP3    H132851   0.562   5.442  11.521  0.4139  0.6939 -0.2572
 3812TIP3    H232852   0.582   5.391  11.662 -0.7366 -1.0831 -0.7072
 3813TIP3   OH232853   4.636   1.853  14.792  0.3029  0.4899 -1.0984
 3813TIP3    H132854   4.701   1.829  14.726  1.6719  2.0330 -0.4092
 3813TIP3    H232855   4.574   1.909  14.747  0.7921  0.9085 -1.2569
 3814TIP3   OH232856   2.908   3.407  12.098 -0.1352 -0.1622 -0.0889
 3814TIP3    H132857   2.849   3.333  12.112 -0.8506  0.7512  2.0894
 3814TIP3    H232858   2.912   3.452  12.182  2.5117  0.7070 -0.5752
 3815TIP3   OH232859   6.092   2.537   0.326  0.2137 -0.4888  0.3428
 3815TIP3    H132860   6.084   2.485   0.406 -1.9887 -2.1666 -0.8842
 3815TIP3    H232861   6.139   2.616   0.354  1.8515 -2.1717  2.7037
 3816TIP3   OH232862   2.764   1.575   3.522 -0.8418  0.5058 -0.2168
 3816TIP3    H132863   2.850   1.586   3.561 -2.2091  2.9879  2.4908
 3816TIP3    H232864   2.774   1.604   3.432  1.0647  1.1339  0.1647
 3817TIP3   OH232865   6.197   3.984  13.965  0.2446  0.0387  0.4229
 3817TIP3    H132866   6.271   3.941  13.922  1.2701  0.2485  1.9235
 3817TIP3    H232867   6.179   4.060  13.910  0.4142 -0.6063 -0.5620
 3818TIP3   OH232868   5.701   2.698   0.372 -0.4662 -0.4131  0.4377
 3818TIP3    H132869   5.665   2.674   0.457 -0.4010 -2.9833 -0.1746
 3818TIP3    H232870   5.794   2.713   0.389 -0.6334  0.0490  0.9696
 3819TIP3   OH232871   5.892   3.922   6.254 -0.5577 -0.0585  0.3285
 3819TIP3    H132872   5.865   3.831   6.242 -0.5612  0.1344 -1.2386
 3819TIP3    H232873   5.810   3.971   6.260 -0.5747  0.0532 -0.6532
 3820TIP3   OH232874   6.135   2.864   3.368 -0.1296 -0.0169  0.0384
 3820TIP3    H132875   6.085   2.901   3.441  0.7226 -2.5609  2.0728
 3820TIP3    H232876   6.081   2.791   3.337  1.0650 -1.1066  0.4610
 3821TIP3   OH232877   5.635   3.915   2.509 -0.3377 -0.0656  0.9959
 3821TIP3    H132878   5.712   3.863   2.531  0.4191  1.0328  1.0148
 3821TIP3    H232879   5.666   4.006   2.510 -0.9092  0.2514 -1.7765
 3822TIP3   OH232880   1.080   4.246  16.378  0.4261 -0.2145 -0.4975
 3822TIP3    H132881   0.985   4.243  16.385  0.4352 -0.6745 -0.5516
 3822TIP3    H232882   1.099   4.221  16.287  0.6633 -1.7299 -0.0653
 3823TIP3   OH232883   6.082   6.471  12.020  0.2092  0.2228  0.4525
 3823TIP3    H132884   6.033   6.525  11.959 -0.6726  0.3618  1.2600
 3823TIP3    H232885   6.025   6.396  12.037 -0.3676  1.0397  2.4389
 3824TIP3   OH232886   2.658   5.042   1.967  0.5021 -0.6324  0.3163
 3824TIP3    H132887   2.713   5.111   2.006 -1.3368  0.7593  0.5972
 3824TIP3    H232888   2.639   4.983   2.040 -0.6169  0.4213  0.9118
 3825TIP3   OH232889   4.303   5.564  11.425  0.2501  0.5775 -0.2337
 3825TIP3    H132890   4.378   5.573  11.366  1.1379  0.7997  0.8829
 3825TIP3    H232891   4.316   5.632  11.491 -0.5282  0.1279  0.4075
 3826TIP3   OH232892   3.672   3.762  13.945  0.7151  0.1714 -0.2894
 3826TIP3    H132893   3.707   3.812  13.871  4.3036 -0.6254  0.6442
 3826TIP3    H232894   3.666   3.672  13.913 -1.2007  0.3675 -0.5879
 3827TIP3   OH232895   0.755   2.843   3.588 -0.1462  0.3861  0.4785
 3827TIP3    H132896   0.668   2.878   3.566 -0.1219 -0.1121 -0.4793
 3827TIP3    H232897   0.758   2.758   3.543  0.1417 -0.4478  2.0039
 3828TIP3   OH232898   5.572   6.243  11.536 -0.0779 -0.5021  0.1210
 3828TIP3    H132899   5.661   6.237  11.502 -0.1454  0.1189 -0.1896
 3828TIP3    H232900   5.520   6.189  11.476  0.0551 -0.7121  0.1928
 3829TIP3   OH232901   4.015   4.461  15.223 -0.1287 -0.1710  0.3875
 3829TIP3    H132902   4.032   4.371  15.196  1.0979  0.5697 -1.4543
 3829TIP3    H232903   3.980   4.504  15.145  0.1772  1.1832  0.9662
 3830TIP3   OH232904   3.627   2.589  14.613 -0.2859 -0.3972  0.0298
 3830TIP3    H132905   3.562   2.619  14.677  2.0571  0.4242  2.1521
 3830TIP3    H232906   3.672   2.669  14.585  1.5518 -1.1854  0.6156
 3831TIP3   OH232907   0.997   6.360  11.663 -0.5657  0.9662 -0.3127
 3831TIP3    H132908   0.928   6.423  11.686  0.7608  2.9688 -1.5955
 3831TIP3    H232909   1.066   6.375  11.728 -1.1468 -0.8466  0.8014
 3832TIP3   OH232910   4.199   0.447  16.932  0.3923  0.2383 -0.2254
 3832TIP3    H132911   4.176   0.354  16.942  1.0966  0.0565 -0.2958
 3832TIP3    H232912   4.251   0.450  16.852  1.2010  0.5538  0.3093
 3833TIP3   OH232913   6.242   2.433   1.748 -0.7616  0.0454 -0.3368
 3833TIP3    H132914   6.193   2.515   1.759 -0.6721  0.1895 -0.9903
 3833TIP3    H232915   6.227   2.385   1.830 -1.0966  0.5629 -0.0894
 3834TIP3   OH232916   6.569   6.489  12.960 -0.2359  0.2887  0.8152
 3834TIP3    H132917   6.500   6.445  12.910  0.7115  0.8448 -1.1012
 3834TIP3    H232918   6.541   6.482  13.051 -2.2705 -0.4348  0.1978
 3835TIP3   OH232919   0.989   3.025   5.226  0.0298 -0.4984  0.0393
 3835TIP3    H132920   1.059   3.085   5.248 -1.4292  0.8238  1.3127
 3835TIP3    H232921   0.952   3.060   5.144 -0.5987  0.1879  0.5992
 3836TIP3   OH232922   3.844   2.534  14.325 -0.6718 -0.5533  0.3067
 3836TIP3    H132923   3.885   2.612  14.286  2.9969 -1.4572  1.8841
 3836TIP3    H232924   3.824   2.561  14.415  0.3749 -1.2936  0.7782
 3837TIP3   OH232925   5.368   2.487   5.403  0.3614  0.0141 -0.5199
 3837TIP3    H132926   5.339   2.492   5.494 -0.6041  0.4443 -0.8323
 3837TIP3    H232927   5.449   2.538   5.400 -0.5537  1.5644 -0.2425
 3838TIP3   OH232928   2.200   0.643  13.031 -0.3157  0.1677  0.4558
 3838TIP3    H132929   2.189   0.592  13.112 -4.3687  1.4077  0.9010
 3838TIP3    H232930   2.197   0.578  12.961  3.5298 -0.9582  1.1016
 3839TIP3   OH232931   3.690   0.550  14.435 -0.3189  0.8636  0.1872
 3839TIP3    H132932   3.734   0.518  14.356  1.4454 -0.6375  1.6881
 3839TIP3    H232933   3.760   0.562  14.498 -1.7481  1.4896  1.7269
 3840TIP3   OH232934   0.571   3.587  16.693  0.0805 -0.2854  0.0802
 3840TIP3    H132935   0.607   3.593  16.782  2.3067  0.4145 -0.8072
 3840TIP3    H232936   0.588   3.497  16.666  1.4811  0.0939 -0.4087
 3841TIP3   OH232937   5.278   2.314  11.971 -0.3294  0.3665 -0.2746
 3841TIP3    H132938   5.374   2.308  11.979 -0.4096 -0.5098  0.2202
 3841TIP3    H232939   5.247   2.303  12.061 -0.9477 -0.8985 -0.6232
 3842TIP3   OH232940   1.296   6.066  16.345  0.0214  0.3016  0.2202
 3842TIP3    H132941   1.310   6.147  16.394 -0.7652 -1.1281  2.9636
 3842TIP3    H232942   1.375   6.015  16.360 -0.0567 -0.0024 -0.3753
 3843TIP3   OH232943   0.120   2.282   2.042 -0.0130 -0.5305  0.0943
 3843TIP3    H132944   0.169   2.360   2.068 -2.1387  1.1123 -0.6109
 3843TIP3    H232945   0.129   2.223   2.116  0.2664  1.0579  1.3852
 3844TIP3   OH232946   6.146   4.067   3.223 -0.2852  0.4118  0.2160
 3844TIP3    H132947   6.104   3.998   3.172  1.7286  0.3001 -1.4537
 3844TIP3    H232948   6.088   4.142   3.214 -0.5721  0.0467 -1.3123
 3845TIP3   OH232949   2.589   6.057  14.119  0.3497 -0.0164  0.5519
 3845TIP3    H132950   2.509   6.042  14.069  0.0609  0.6720  0.8088
 3845TIP3    H232951   2.631   6.131  14.075  1.0124 -0.5642  0.2251
 3846TIP3   OH232952   0.578   2.048  14.855 -0.3392 -0.0009  0.1102
 3846TIP3    H132953   0.616   2.134  14.868 -0.5825 -0.0123  0.9281
 3846TIP3    H232954   0.501   2.046  14.912 -0.2325 -0.8211  0.2469
 3847TIP3   OH232955   4.482   2.210   4.576  0.6993  0.0079 -0.0160
 3847TIP3    H132956   4.544   2.140   4.597 -2.2816 -2.2385  2.2007
 3847TIP3    H232957   4.486   2.268   4.652  0.4076  0.0830 -0.0564
 3848TIP3   OH232958   6.279   5.795  13.606  0.0043 -0.0602  0.1967
 3848TIP3    H132959   6.373   5.800  13.593 -0.0044 -0.6667 -0.1397
 3848TIP3    H232960   6.268   5.775  13.699  0.1919  0.4217  0.3226
 3849TIP3   OH232961   5.025   2.197   3.266  0.7459 -0.0437  0.6832
 3849TIP3    H132962   4.998   2.105   3.264  0.3927  0.0237  1.5124
 3849TIP3    H232963   5.114   2.195   3.301  0.8370 -0.0853  0.4522
 3850TIP3   OH232964   1.233   6.491  11.442 -0.0628  0.9722 -0.3977
 3850TIP3    H132965   1.180   6.567  11.467 -0.2131  1.1860 -1.3248
 3850TIP3    H232966   1.170   6.420  11.434  0.0561  0.7758  0.3058
 3851TIP3   OH232967   4.455   2.023  14.142 -0.5537  0.0924 -0.6820
 3851TIP3    H132968   4.534   1.971  14.124 -0.9784 -0.8526  0.0980
 3851TIP3    H232969   4.405   2.019  14.061 -1.0159 -1.5424 -0.3671
 3852TIP3   OH232970   0.886   6.469   3.945 -0.2609  0.0174 -0.3136
 3852TIP3    H132971   0.793   6.493   3.955 -0.4539 -1.5335  2.9048
 3852TIP3    H232972   0.934   6.543   3.982 -0.2052  0.4577 -1.2276
 3853TIP3   OH232973   2.976   5.362   1.795  0.3153 -0.2451  0.2041
 3853TIP3    H132974   3.041   5.431   1.806 -1.2191  1.3459 -0.2116
 3853TIP3    H232975   2.958   5.361   1.701  1.0889 -1.9998  0.0409
 3854TIP3   OH232976   0.999   0.496   2.467 -0.2902 -0.0025  0.0668
 3854TIP3    H132977   0.947   0.542   2.401 -0.2616 -0.5856 -0.3683
 3854TIP3    H232978   0.934   0.469   2.533 -0.8683 -2.2273 -1.3062
 3855TIP3   OH232979   0.195   5.865   5.430  0.4648  0.5498 -0.4857
 3855TIP3    H132980   0.133   5.853   5.358 -1.3856  1.7446  0.8010
 3855TIP3    H232981   0.149   5.922   5.492  2.0129 -0.2862  1.5724
 3856TIP3   OH232982   0.439   3.334  13.658 -0.0012  0.0413 -0.0511
 3856TIP3    H132983   0.533   3.338  13.639 -0.2991 -0.1575 -1.7214
 3856TIP3    H232984   0.397   3.358  13.575 -1.4386 -0.8501  0.3875
 3857TIP3   OH232985   6.493   6.533   1.527  0.0344 -0.3713  0.3169
 3857TIP3    H132986   6.402   6.536   1.556 -0.1563  1.8044 -0.2734
 3857TIP3    H232987   6.522   6.624   1.531  2.2180 -1.0181  0.5179
 3858TIP3   OH232988   6.680   4.140  14.526  0.5575 -0.9362  0.3082
 3858TIP3    H132989   6.611   4.075  14.541  2.0975 -2.9158 -0.6985
 3858TIP3    H232990   6.653   4.187  14.447 -0.1656 -0.9142  0.5659
 3859TIP3   OH232991   1.904   2.125   2.331 -0.0881  0.2408  0.2688
 3859TIP3    H132992   1.960   2.123   2.253  0.8247 -1.9939  0.8933
 3859TIP3    H232993   1.947   2.187   2.390  1.2729 -0.7525  0.3721
 3860TIP3   OH232994   2.543   3.113  11.381  0.8877  0.1432 -0.5776
 3860TIP3    H132995   2.576   3.202  11.370  0.6157  0.1800 -1.1123
 3860TIP3    H232996   2.536   3.101  11.475 -2.6721  2.0267 -0.4611
 3861TIP3   OH232997   6.001   2.462   5.110  0.5813  0.1997 -0.1245
 3861TIP3    H132998   5.999   2.554   5.083  2.5934  0.5572  0.7502
 3861TIP3    H232999   5.967   2.462   5.200  0.8274  0.1286 -0.0313
 3862TIP3   OH233000   5.654   4.499  12.463 -0.0598  0.2913 -0.2110
 3862TIP3    H133001   5.650   4.589  12.495 -1.2200 -0.6992  2.7909
 3862TIP3    H233002   5.578   4.456  12.503  0.5669 -2.0680 -1.3824
 3863TIP3   OH233003   2.653   0.486   2.749  0.5195 -0.5415 -0.1846
 3863TIP3    H133004   2.602   0.558   2.787  2.2729  1.0745 -0.7363
 3863TIP3    H233005   2.595   0.410   2.754 -1.1757  0.7561  1.0057
 3864TIP3   OH233006   1.319   2.090   0.932 -0.6798  0.2341  0.5963
 3864TIP3    H133007   1.396   2.055   0.976  0.3529 -1.6981 -2.4165
 3864TIP3    H233008   1.247   2.035   0.963  0.1070 -1.4182 -0.3856
 3865TIP3   OH233009   6.660   6.410  13.426 -0.7888  0.2835 -0.1878
 3865TIP3    H133010   6.606   6.343  13.385  1.5841 -1.2540 -1.0009
 3865TIP3    H233011   6.748   6.373  13.427 -0.1110  1.6013  3.3727
 3866TIP3   OH233012   1.597   1.787  15.712 -0.2022  0.4094 -0.1078
 3866TIP3    H133013   1.580   1.819  15.801 -1.2342  0.2273 -0.2239
 3866TIP3    H233014   1.519   1.735  15.690  0.7477 -0.8764 -0.5200
 3867TIP3   OH233015   4.371   5.792   1.135  0.1595  0.2948 -0.0677
 3867TIP3    H133016   4.443   5.846   1.169  1.1595  0.0988 -1.7975
 3867TIP3    H233017   4.414   5.717   1.095 -1.0772 -0.3261 -0.2777
 3868TIP3   OH233018   3.784   4.069   3.829 -0.0716 -0.0073  0.3511
 3868TIP3    H133019   3.779   4.155   3.872 -2.0240 -0.1230  0.4302
 3868TIP3    H233020   3.765   4.087   3.737 -0.1739 -0.3025  0.3132
 3869TIP3   OH233021   6.406   2.770   0.621 -0.0134 -0.2595 -0.8776
 3869TIP3    H133022   6.396   2.677   0.603 -0.1747 -0.1519 -1.3909
 3869TIP3    H233023   6.329   2.794   0.672 -1.3885  0.1243 -2.9984
 3870TIP3   OH233024   4.654   2.623   5.590 -0.2955  0.4718  0.0868
 3870TIP3    H133025   4.611   2.621   5.675 -1.4433 -0.4231 -0.4885
 3870TIP3    H233026   4.741   2.587   5.606 -0.3095  0.8023  0.9683
 3871TIP3   OH233027   2.273   2.837   6.291 -0.1043 -0.4411  0.4793
 3871TIP3    H133028   2.223   2.907   6.248  0.0050  0.1901  1.3620
 3871TIP3    H233029   2.273   2.765   6.227 -0.4515  0.2621 -0.3298
 3872TIP3   OH233030   5.950   2.055  12.920 -0.4782  0.2979  0.1494
 3872TIP3    H133031   5.933   2.089  12.832  0.3391 -1.0697 -0.5679
 3872TIP3    H233032   5.871   2.076  12.970 -0.5539  1.9817 -0.6122
 3873TIP3   OH233033   4.370   1.925   4.667  0.1094 -0.0811 -0.0430
 3873TIP3    H133034   4.457   1.951   4.638  0.4562 -0.1105  0.9148
 3873TIP3    H233035   4.343   1.995   4.727 -0.8340  0.2923 -0.8668
 3874TIP3   OH233036   6.673   3.787   0.712 -0.0831  0.2182 -0.0548
 3874TIP3    H133037   6.683   3.873   0.752 -1.8921 -0.2655  1.6010
 3874TIP3    H233038   6.582   3.784   0.684 -0.8642 -2.0755  2.3681
 3875TIP3   OH233039   1.064   4.607   3.493  0.3010  0.0903 -0.5964
 3875TIP3    H133040   1.073   4.524   3.446 -0.5678 -1.2602  1.4496
 3875TIP3    H233041   1.154   4.631   3.516  0.5967 -0.0336 -1.6020
 3876TIP3   OH233042   1.468   0.532  11.986 -0.1920 -0.4648 -0.0202
 3876TIP3    H133043   1.444   0.526  11.893  1.1194 -0.6936 -0.3725
 3876TIP3    H233044   1.436   0.451  12.024  1.7982 -1.7863 -0.9421
 3877TIP3   OH233045   4.334   3.759   5.159 -0.2001  0.0665 -0.5740
 3877TIP3    H133046   4.290   3.789   5.238 -0.5873 -0.0242 -0.7499
 3877TIP3    H233047   4.405   3.822   5.144  0.6476 -0.5927  0.5205
 3878TIP3   OH233048   1.748   6.629  11.610  0.4864  0.1441  0.5321
 3878TIP3    H133049   1.708   6.563  11.666  2.0480  0.3669  2.0002
 3878TIP3    H233050   1.675   6.666  11.560 -0.4335 -2.6313 -0.3511
 3879TIP3   OH233051   6.369   0.496   3.007 -0.2769  0.2753  0.3745
 3879TIP3    H133052   6.335   0.407   3.017 -0.5533  0.5003  1.5788
 3879TIP3    H233053   6.324   0.531   2.930 -1.4075 -0.0540  0.8737
 3880TIP3   OH233054   1.153   3.500   4.743 -0.2445 -0.5539  0.1752
 3880TIP3    H133055   1.106   3.583   4.738  0.0618 -0.3683  0.2926
 3880TIP3    H233056   1.127   3.462   4.827 -1.6530 -1.3654 -0.6039
 3881TIP3   OH233057   5.462   3.471  17.274  0.9103 -0.0998  0.0394
 3881TIP3    H133058   5.451   3.408  17.345  1.4509  0.6005  0.7645
 3881TIP3    H233059   5.381   3.465  17.223 -0.6851  1.2724  2.2340
 3882TIP3   OH233060   0.295   1.409   6.043 -0.1825  0.7835  0.4747
 3882TIP3    H133061   0.353   1.335   6.064 -0.6772  0.1448 -0.3599
 3882TIP3    H233062   0.280   1.452   6.128  0.8774  0.5023  0.8223
 3883TIP3   OH233063   0.845   5.651   0.334 -0.1044  0.0664  0.0092
 3883TIP3    H133064   0.867   5.716   0.267 -0.3345  0.0713 -0.0625
 3883TIP3    H233065   0.924   5.643   0.387  0.3096 -0.4429 -0.6764
 3884TIP3   OH233066   5.501   6.439   5.106  0.1914  0.3490  0.0462
 3884TIP3    H133067   5.433   6.425   5.172 -0.3720  0.7444 -0.4460
 3884TIP3    H233068   5.480   6.525   5.068  0.8820  0.4070 -0.2063
 3885TIP3   OH233069   0.785   2.263  16.086  0.3894 -0.5680 -0.0137
 3885TIP3    H133070   0.731   2.294  16.014 -1.8924 -2.3035  0.8396
 3885TIP3    H233071   0.792   2.338  16.146 -0.5081 -0.1044 -0.4772
 3886TIP3   OH233072   2.140   5.426  15.183  0.2746  0.2028  0.1287
 3886TIP3    H133073   2.173   5.489  15.119  0.5506 -0.6025 -0.5486
 3886TIP3    H233074   2.047   5.419  15.164  0.3015  0.1812  0.0028
 3887TIP3   OH233075   4.617   3.968  11.615 -0.3557 -0.2824 -0.2395
 3887TIP3    H133076   4.691   3.949  11.557 -0.7012 -0.1212 -0.7295
 3887TIP3    H233077   4.573   4.042  11.575  0.7493  1.3812  1.4477
 3888TIP3   OH233078   4.327   5.700  13.837  0.1834 -0.0560  0.8817
 3888TIP3    H133079   4.393   5.758  13.799 -0.6291  0.1849 -0.2391
 3888TIP3    H233080   4.330   5.621  13.783  1.2668 -1.0918  2.3830
 3889TIP3   OH233081   3.035   5.147   0.734  0.1659 -0.5514 -0.1695
 3889TIP3    H133082   3.102   5.158   0.667 -1.1775 -0.8922 -1.6311
 3889TIP3    H233083   3.016   5.236   0.764 -0.2714 -0.2499 -1.3171
 3890TIP3   OH233084   0.637   1.972  13.140 -0.5384 -0.1772  0.0860
 3890TIP3    H133085   0.610   2.050  13.188  0.3570 -1.1324  2.2326
 3890TIP3    H233086   0.617   1.993  13.048 -1.3496  2.1074  0.7154
 3891TIP3   OH233087   4.552   0.808   1.149  0.1248  0.2464  0.0295
 3891TIP3    H133088   4.494   0.877   1.182 -0.7949 -1.5868  2.5628
 3891TIP3    H233089   4.519   0.788   1.062 -1.2998  1.1167  0.3421
 3892TIP3   OH233090   5.528   4.765   1.452  0.0662 -0.3588  0.2776
 3892TIP3    H133091   5.582   4.773   1.530 -2.2275 -1.5774  2.0879
 3892TIP3    H233092   5.508   4.855   1.427  1.0464  0.0480  0.9148
 3893TIP3   OH233093   3.001   2.638  13.573  0.5199  0.2915  0.7083
 3893TIP3    H133094   3.094   2.623  13.557  0.1338  0.2368 -1.7754
 3893TIP3    H233095   2.959   2.628  13.488 -1.6561  1.2504  1.5772
 3894TIP3   OH233096   3.553   3.005  11.494  0.3269 -0.6876 -0.0698
 3894TIP3    H133097   3.520   3.062  11.564  0.8406 -0.0184 -0.3651
 3894TIP3    H233098   3.648   3.006  11.504  0.7152  2.0791 -2.7362
 3895TIP3   OH233099   6.111   3.025   3.669 -0.3716  0.3189 -0.2592
 3895TIP3    H133100   6.203   3.050   3.666 -0.2481  0.1285  1.1856
 3895TIP3    H233101   6.064   3.102   3.638  0.2348  0.6705 -0.3230
 3896TIP3   OH233102   0.063   2.193  12.681 -0.0474  0.2142 -0.3775
 3896TIP3    H133103   0.045   2.099  12.671 -0.8318  0.4307 -1.1103
 3896TIP3    H233104   0.155   2.197  12.708 -0.6053 -0.8744  1.9829
 3897TIP3   OH233105   4.568   4.454  11.429 -0.5273 -0.3702 -0.0609
 3897TIP3    H133106   4.520   4.527  11.390  2.8193  2.2384  0.2805
 3897TIP3    H233107   4.631   4.427  11.362  0.8924 -0.2431  1.1707
 3898TIP3   OH233108   6.666   3.203  16.043 -0.6297  0.5437 -0.4848
 3898TIP3    H133109   6.593   3.254  16.007  0.8240  0.8200 -3.2940
 3898TIP3    H233110   6.674   3.127  15.986  0.2763 -0.3453  0.7570
 3899TIP3   OH233111   5.676   4.284  11.124 -0.4183 -0.2476  0.2248
 3899TIP3    H133112   5.722   4.212  11.082 -0.2959 -0.3754  0.5764
 3899TIP3    H233113   5.614   4.315  11.058 -0.1953 -0.4168 -0.0638
 3900TIP3   OH233114   0.714   6.607   5.937  0.2779  0.1770 -0.1655
 3900TIP3    H133115   0.663   6.616   6.017 -0.7462 -0.1263 -0.7570
 3900TIP3    H233116   0.724   6.512   5.926 -0.7500  0.1470 -1.0741
 3901TIP3   OH233117   5.836   1.085  11.667 -0.0210  0.0490  0.0134
 3901TIP3    H133118   5.826   1.180  11.652 -0.4917  0.2274  1.3241
 3901TIP3    H233119   5.763   1.047  11.618 -0.1835  0.4197 -0.0441
 3902TIP3   OH233120   5.251   0.228   3.516 -0.1405  0.0436 -0.5475
 3902TIP3    H133121   5.338   0.238   3.555 -0.5388 -1.1036  0.7172
 3902TIP3    H233122   5.200   0.184   3.583 -1.5645  0.2149 -1.4792
 3903TIP3   OH233123   6.247   4.943  14.323 -0.4398 -0.7175  0.1389
 3903TIP3    H133124   6.169   4.944  14.379 -1.1995 -0.0954 -0.8744
 3903TIP3    H233125   6.217   4.900  14.243  0.6095 -1.5439  0.1820
 3904TIP3   OH233126   5.691   2.765   5.609  0.0170 -0.3979  0.3973
 3904TIP3    H133127   5.777   2.799   5.632  0.1864 -0.2137 -0.4948
 3904TIP3    H233128   5.692   2.674   5.639  0.5586 -0.4293  0.2850
 3905TIP3   OH233129   3.746   0.577   1.920  0.7368 -0.0145  0.5495
 3905TIP3    H133130   3.841   0.577   1.919  0.7539  0.2118  1.6443
 3905TIP3    H233131   3.721   0.494   1.961  0.4501 -0.2703 -0.1272
 3906TIP3   OH233132   6.011   2.001  14.962 -0.4624 -0.4009  0.6564
 3906TIP3    H133133   5.930   1.960  14.991 -0.1420 -1.2490  0.3910
 3906TIP3    H233134   6.071   1.993  15.036 -0.4644 -0.2268  0.6769
 3907TIP3   OH233135   2.625   2.460   4.754  0.0691 -0.7364 -0.2399
 3907TIP3    H133136   2.604   2.531   4.694  1.3913  0.1913  0.3553
 3907TIP3    H233137   2.554   2.460   4.818 -0.3675 -0.5177 -0.7155
 3908TIP3   OH233138   1.714   5.937   4.971  0.4152  0.2531 -0.3326
 3908TIP3    H133139   1.727   6.028   4.995 -2.9076  0.7803 -0.0414
 3908TIP3    H233140   1.703   5.891   5.054 -2.4324  0.5195 -0.4471
 3909TIP3   OH233141   4.284   1.055   2.424  0.3835  0.0448  0.1553
 3909TIP3    H133142   4.273   1.083   2.514  0.8026 -2.0199  0.9000
 3909TIP3    H233143   4.200   1.074   2.382 -0.1803  0.0533  1.2694
 3910TIP3   OH233144   6.430   5.886  16.245  0.2951 -0.1031  0.4374
 3910TIP3    H133145   6.415   5.889  16.151 -0.4852 -1.5327  0.4861
 3910TIP3    H233146   6.429   5.792  16.267  0.3513  0.2038  1.8734
 3911TIP3   OH233147   2.573   5.809  15.457  0.1491 -0.3898  0.9810
 3911TIP3    H133148   2.544   5.848  15.540  1.1059 -1.6714  1.9492
 3911TIP3    H233149   2.522   5.728  15.450 -0.9004  0.3513 -0.3806
 3912TIP3   OH233150   4.972   2.666   2.523 -0.6400 -0.1614  0.5330
 3912TIP3    H133151   4.928   2.598   2.473  0.6855 -0.6916  0.0289
 3912TIP3    H233152   5.065   2.642   2.520 -0.0607  1.8830 -0.0478
 3913TIP3   OH233153   5.260   2.115  14.669 -0.2870 -0.0583 -0.3893
 3913TIP3    H133154   5.333   2.096  14.727 -0.1924 -2.2975 -1.1572
 3913TIP3    H233155   5.191   2.147  14.727  0.7069  0.4478  0.5599
 3914TIP3   OH233156   2.448   5.456   6.380 -0.2291  0.3924  0.2006
 3914TIP3    H133157   2.512   5.385   6.378 -1.0517 -0.3722 -1.2163
 3914TIP3    H233158   2.453   5.491   6.469  0.8744 -0.8095  0.6464
 3915TIP3   OH233159   4.921   3.174   2.586  0.2930  0.4242  0.4201
 3915TIP3    H133160   4.918   3.241   2.518  0.6035  0.6373  0.6179
 3915TIP3    H233161   4.870   3.210   2.658  1.1155  0.7812  0.8257
 3916TIP3   OH233162   0.929   1.427   0.386 -0.3198  0.6139 -0.3794
 3916TIP3    H133163   0.966   1.508   0.422  0.5627  0.1162 -0.1241
 3916TIP3    H233164   0.994   1.360   0.408 -0.8593 -0.0958 -0.9192
 3917TIP3   OH233165   5.875   4.009  14.592 -1.3058  0.6898 -0.3791
 3917TIP3    H133166   5.790   3.970  14.570 -0.8269 -0.1519 -0.7992
 3917TIP3    H233167   5.932   3.933  14.606 -1.4683  1.0996  3.4993
 3918TIP3   OH233168   2.683   6.728  14.368 -0.2192 -0.6105 -0.2286
 3918TIP3    H133169   2.704   6.819  14.348  0.5128 -0.6202  0.4611
 3918TIP3    H233170   2.719   6.713  14.455 -1.7324 -1.0939  0.3589
 3919TIP3   OH233171   1.471   6.470  14.120 -0.0523  0.1356 -0.0066
 3919TIP3    H133172   1.452   6.564  14.129  0.8344  0.2718  0.6578
 3919TIP3    H233173   1.567   6.466  14.121 -0.0546 -0.6642 -1.3406
 3920TIP3   OH233174   1.415   5.567   3.268  1.0241  0.5802 -0.4425
 3920TIP3    H133175   1.331   5.523   3.279  1.4292 -0.3559 -1.0244
 3920TIP3    H233176   1.436   5.599   3.356  1.8669 -2.5305  0.6337
 3921TIP3   OH233177   4.803   6.734  15.105 -0.1548  0.0064 -0.0734
 3921TIP3    H133178   4.880   6.697  15.063  0.6798 -0.7172  1.9561
 3921TIP3    H233179   4.735   6.667  15.093  0.4111 -0.7316  0.7030
 3922TIP3   OH233180   6.513   3.384   5.803 -0.6672 -0.5936  0.1073
 3922TIP3    H133181   6.564   3.436   5.866 -0.4117 -1.9917  1.0933
 3922TIP3    H233182   6.580   3.344   5.747 -0.8511 -0.1057 -0.4724
 3923TIP3   OH233183   0.874   2.973  15.897  0.3000 -0.1630 -0.5162
 3923TIP3    H133184   0.964   2.969  15.863  0.6839  0.3855  0.4203
 3923TIP3    H233185   0.825   3.021  15.830  0.7912 -0.0928 -0.8267
 3924TIP3   OH233186   5.463   6.075  16.302  0.0572  0.0726  0.1131
 3924TIP3    H133187   5.409   6.014  16.352  2.7746 -1.3938  1.5067
 3924TIP3    H233188   5.442   6.161  16.338 -1.9256 -0.3059 -0.0313
 3925TIP3   OH233189   5.277   3.201  13.864  0.3139  0.4826  0.1951
 3925TIP3    H133190   5.224   3.127  13.832  1.1022  0.5553 -1.3939
 3925TIP3    H233191   5.236   3.278  13.826  0.5832  0.6925  0.3268
 3926TIP3   OH233192   2.003   3.704   4.646  0.1982 -0.4319 -0.3419
 3926TIP3    H133193   2.011   3.707   4.550 -0.9536 -0.1638 -0.4420
 3926TIP3    H233194   1.924   3.653   4.661 -0.7284  1.1758  0.4088
 3927TIP3   OH233195   3.876   5.924  13.179 -0.1837 -0.1857  1.0147
 3927TIP3    H133196   3.863   6.019  13.185 -0.5182  0.0473 -1.8053
 3927TIP3    H233197   3.943   5.905  13.245  1.6331  2.4485  0.1166
 3928TIP3   OH233198   6.215   0.130   4.544  0.2930 -0.6761 -0.4684
 3928TIP3    H133199   6.135   0.082   4.525 -0.3726  0.4266 -0.5332
 3928TIP3    H233200   6.277   0.100   4.478 -0.6862 -0.0637 -1.7003
 3929TIP3   OH233201   1.735   4.785   5.918  0.4994 -0.2869 -1.0088
 3929TIP3    H133202   1.732   4.848   5.990  1.9571  1.7378 -2.5766
 3929TIP3    H233203   1.645   4.753   5.910  0.0795  0.2719  0.9606
 3930TIP3   OH233204   1.009   4.808  12.739  0.0753 -0.0762 -0.0589
 3930TIP3    H133205   1.016   4.713  12.743  1.0301  0.0093  0.7031
 3930TIP3    H233206   0.996   4.827  12.647  1.2770 -0.8838 -0.4294
 3931TIP3   OH233207   0.272   3.541  16.962 -0.0214  0.0729 -0.0932
 3931TIP3    H133208   0.361   3.549  16.996  0.5701 -0.9390 -1.2941
 3931TIP3    H233209   0.257   3.447  16.957 -1.2963  0.2371  0.4012
 3932TIP3   OH233210   1.559   5.132  13.320  0.4311  0.0832  0.0771
 3932TIP3    H133211   1.482   5.086  13.287  1.5034 -0.8261 -1.2564
 3932TIP3    H233212   1.592   5.076  13.390  1.4885 -1.0700 -1.2625
 3933TIP3   OH233213   2.696   4.630  14.565  0.4518 -0.3859  0.6593
 3933TIP3    H133214   2.714   4.682  14.643  3.8188 -0.3632 -0.0063
 3933TIP3    H233215   2.782   4.611  14.527 -0.8887 -2.5804 -1.6584
 3934TIP3   OH233216   5.945   4.883   0.311  0.1178 -0.4239  0.2796
 3934TIP3    H133217   5.905   4.858   0.394  0.4948 -0.1493  0.5518
 3934TIP3    H233218   5.874   4.880   0.247 -0.4322  0.4694  0.8338
 3935TIP3   OH233219   6.133   5.613  13.383  0.0717  0.1638  0.2138
 3935TIP3    H133220   6.159   5.691  13.433  0.4537  0.7438 -0.8483
 3935TIP3    H233221   6.214   5.583  13.343 -0.4522  0.5948 -1.2410
 3936TIP3   OH233222   2.311   1.837   0.099 -0.5091 -0.0912 -0.4554
 3936TIP3    H133223   2.331   1.866   0.188 -0.4354  0.6436 -0.7035
 3936TIP3    H233224   2.244   1.769   0.110 -1.0152  0.4888  0.1204
 3937TIP3   OH233225   5.471   0.804   5.393  0.8230  0.1187 -0.2369
 3937TIP3    H133226   5.491   0.777   5.483  1.9308  0.1344 -0.4567
 3937TIP3    H233227   5.385   0.766   5.375  1.0953 -0.8760  0.4391
 3938TIP3   OH233228   3.261   5.431  13.874  0.9092 -0.1636 -0.0126
 3938TIP3    H133229   3.284   5.395  13.788  1.3670  0.6440 -0.2366
 3938TIP3    H233230   3.168   5.410  13.885  1.2101 -1.6054 -0.0291
 3939TIP3   OH233231   6.255   3.066  13.877  0.8660  0.2678  0.1195
 3939TIP3    H133232   6.235   3.044  13.968  1.6026 -0.5532  0.0969
 3939TIP3    H233233   6.288   3.156  13.881  0.7620  0.2879  0.6411
 3940TIP3   OH233234   1.359   2.552   3.870  0.0668  0.6027  0.5155
 3940TIP3    H133235   1.398   2.565   3.783 -1.3710 -1.2634 -0.4729
 3940TIP3    H233236   1.279   2.606   3.868 -1.5338 -1.6477 -0.5127
 3941TIP3   OH233237   5.135   0.981  17.317 -0.4225  0.0928 -0.1564
 3941TIP3    H133238   5.191   1.023  17.383 -1.2978  0.0586  0.6265
 3941TIP3    H233239   5.081   1.052  17.283 -0.0848  0.0793 -0.7465
 3942TIP3   OH233240   3.321   0.980   4.536 -0.2628 -0.0353  0.1055
 3942TIP3    H133241   3.276   0.915   4.481  0.1574 -0.7450  0.5852
 3942TIP3    H233242   3.402   0.998   4.490 -0.0642 -0.3745  0.3237
 3943TIP3   OH233243   0.727   0.801  14.270 -0.6775 -0.4356  0.1948
 3943TIP3    H133244   0.748   0.762  14.185 -1.0962  0.9622 -0.5687
 3943TIP3    H233245   0.670   0.736  14.312  0.4158 -1.6371 -0.1109
 3944TIP3   OH233246   5.219   2.179  14.962  1.0301  0.7739 -0.2486
 3944TIP3    H133247   5.286   2.226  15.012  1.9950  0.1475 -0.9341
 3944TIP3    H233248   5.256   2.092  14.948 -0.4949 -0.0521  0.5267
 3945TIP3   OH233249   3.497   1.156  12.541  0.5550 -0.5243 -0.0456
 3945TIP3    H133250   3.453   1.235  12.571  1.8141  0.7366 -1.3778
 3945TIP3    H233251   3.548   1.127  12.617  1.8562  1.2676 -0.1657
 3946TIP3   OH233252   3.582   3.836  11.609 -0.4918 -0.1359  0.0781
 3946TIP3    H133253   3.582   3.796  11.521  1.2142  0.4546 -0.2276
 3946TIP3    H233254   3.604   3.764  11.668 -0.4217 -0.2817 -0.1235
 3947TIP3   OH233255   3.746   0.794  13.337 -0.0947 -0.7083  0.4696
 3947TIP3    H133256   3.798   0.845  13.399 -0.8332  0.5548  0.1001
 3947TIP3    H233257   3.764   0.835  13.252 -2.0991  0.1509  0.4086
 3948TIP3   OH233258   6.126   3.687   3.759  0.6527 -0.2043  0.2579
 3948TIP3    H133259   6.211   3.718   3.792  0.3673 -0.2005  0.9960
 3948TIP3    H233260   6.077   3.662   3.837 -0.9025  1.9469  0.0437
 3949TIP3   OH233261   3.261   3.783   5.643 -0.1845 -0.0680  0.3384
 3949TIP3    H133262   3.257   3.708   5.702 -3.1957 -0.5352 -0.2729
 3949TIP3    H233263   3.262   3.859   5.702 -1.5430 -0.5570  1.0436
 3950TIP3   OH233264   6.666   2.442   4.404 -0.1326  0.0609 -0.0546
 3950TIP3    H133265   6.709   2.368   4.447 -1.1256 -0.4711  0.0406
 3950TIP3    H233266   6.736   2.507   4.392  1.3622 -1.8108 -2.3706
 3951TIP3   OH233267   5.720   0.070   2.170 -0.7923 -0.1970  0.6342
 3951TIP3    H133268   5.778   0.015   2.118  0.3029  1.1705  0.3414
 3951TIP3    H233269   5.755   0.065   2.259 -0.7926 -0.1065  0.6399
 3952TIP3   OH233270   2.747   2.124  14.061  0.7337 -0.1263 -0.4843
 3952TIP3    H133271   2.753   2.182  14.137 -0.3869  1.2714 -1.3941
 3952TIP3    H233272   2.692   2.051  14.091 -0.7607  1.0337 -0.2639
 3953TIP3   OH233273   6.255   6.216   1.089  0.0301 -0.0009 -0.3929
 3953TIP3    H133274   6.167   6.239   1.119 -0.2077 -1.0023 -0.2712
 3953TIP3    H233275   6.302   6.192   1.168  0.9832  2.1793 -0.2278
 3954TIP3   OH233276   4.171   2.735   0.825  0.2316  0.2878  0.1183
 3954TIP3    H133277   4.127   2.777   0.899  0.2980  0.4435  0.0701
 3954TIP3    H233278   4.110   2.668   0.796 -0.8770  1.8267 -1.2398
 3955TIP3   OH233279   1.506   5.917   4.817 -0.0376  0.2234 -0.0483
 3955TIP3    H133280   1.580   5.923   4.878 -0.9202  0.4477  1.0330
 3955TIP3    H233281   1.481   6.007   4.802  0.1211  0.1613 -0.6881
 3956TIP3   OH233282   4.637   4.788  16.766  0.1867  0.6654 -0.2074
 3956TIP3    H133283   4.619   4.832  16.684 -4.3046  1.8655  1.1418
 3956TIP3    H233284   4.654   4.858  16.829 -1.9333  0.2722  0.9083
 3957TIP3   OH233285   5.324   3.932  12.251  0.2827 -0.0261 -0.3458
 3957TIP3    H133286   5.234   3.953  12.276 -0.4930 -0.8020 -2.2719
 3957TIP3    H233287   5.347   3.857  12.306 -0.7313 -0.6053 -0.6739
 3958TIP3   OH233288   3.531   0.569  15.946  0.0095  0.5991 -0.1808
 3958TIP3    H133289   3.496   0.587  15.859 -0.6116  0.2740 -0.0025
 3958TIP3    H233290   3.509   0.647  15.997  0.9825  1.0893 -0.4837
 3959TIP3   OH233291   0.739   5.246   4.731  0.8100  0.0906 -0.3329
 3959TIP3    H133292   0.713   5.247   4.639  2.0631  1.5387 -0.7159
 3959TIP3    H233293   0.685   5.313   4.772  1.3834  0.5898 -0.3765
 3960TIP3   OH233294   4.010   2.073  14.906 -0.2033 -0.0030 -0.4116
 3960TIP3    H133295   3.943   2.013  14.937 -0.9826  1.6430  1.3185
 3960TIP3    H233296   3.962   2.148  14.871  0.7053 -0.9640 -4.1209
 3961TIP3   OH233297   2.031   6.316  16.133  0.1039 -0.1401 -0.3761
 3961TIP3    H133298   2.110   6.330  16.080  1.3822  0.3580  1.5425
 3961TIP3    H233299   1.962   6.363  16.087  1.2138  0.5057 -1.4427
 3962TIP3   OH233300   0.291   4.002   4.732  0.6315  0.1952 -0.4356
 3962TIP3    H133301   0.347   4.067   4.775  1.9860 -1.5853  0.6089
 3962TIP3    H233302   0.255   4.049   4.656  2.6422  1.7631 -0.5155
 3963TIP3   OH233303   2.581   5.130  15.575 -0.1000 -0.1492 -0.1949
 3963TIP3    H133304   2.670   5.154  15.600 -0.3555  0.3352  0.2658
 3963TIP3    H233305   2.576   5.149  15.482  0.4526 -0.7126 -0.3435
 3964TIP3   OH233306   2.296   0.786   4.928  0.2015  0.3697 -0.0251
 3964TIP3    H133307   2.297   0.710   4.871 -0.3410  0.0636  0.3650
 3964TIP3    H233308   2.304   0.861   4.869  0.5539  0.0217 -0.4204
 3965TIP3   OH233309   6.333   5.678  12.848  0.0160  0.6737  0.8577
 3965TIP3    H133310   6.319   5.673  12.943  0.8473  0.3022  0.9714
 3965TIP3    H233311   6.317   5.589  12.817 -1.6811  1.0957  0.4190
 3966TIP3   OH233312   1.421   3.702  12.387  0.2776 -0.7889 -0.2199
 3966TIP3    H133313   1.331   3.671  12.380  0.0934 -0.1448 -0.8159
 3966TIP3    H233314   1.435   3.752  12.307  0.6851  0.3227  0.5268
 3967TIP3   OH233315   2.563   1.718   2.954 -0.0560 -0.1104  0.5575
 3967TIP3    H133316   2.565   1.771   3.033  0.0490  1.0875 -0.2240
 3967TIP3    H233317   2.653   1.686   2.944  0.0199  0.0530  0.7160
 3968TIP3   OH233318   1.834   6.755  14.349 -0.0040  0.1336 -0.3553
 3968TIP3    H133319   1.893   6.824  14.320 -0.6137  0.3839 -1.0253
 3968TIP3    H233320   1.753   6.770  14.301 -0.5715 -0.2992  0.4315
 3969TIP3   OH233321   6.493   1.808  12.284  0.0868 -0.4202 -0.0176
 3969TIP3    H133322   6.559   1.800  12.215 -0.1980  1.0352 -0.4872
 3969TIP3    H233323   6.449   1.723  12.285  1.5783 -1.2206 -0.0714
 3970TIP3   OH233324   2.957   4.573  14.438 -1.0356  0.3878  0.2899
 3970TIP3    H133325   2.965   4.519  14.517  0.3788  0.2779  0.1014
 3970TIP3    H233326   2.961   4.510  14.366 -1.5441  0.5623  0.1042
 3971TIP3   OH233327   1.119   3.485   1.837 -0.2366  0.3384 -0.1596
 3971TIP3    H133328   1.069   3.483   1.756  1.3694  1.2771 -1.2419
 3971TIP3    H233329   1.206   3.513   1.810  0.8144 -0.9630  1.6788
 3972TIP3   OH233330   1.772   4.173  11.812 -0.2115 -0.8116  0.0544
 3972TIP3    H133331   1.803   4.121  11.887 -0.4087  0.0278  0.7316
 3972TIP3    H233332   1.851   4.211  11.775 -0.2110 -0.4206  0.4532
 3973TIP3   OH233333   0.057   5.789   3.889 -0.0566  0.2092  0.0051
 3973TIP3    H133334  -0.011   5.856   3.897  0.7431  0.9951  0.3701
 3973TIP3    H233335   0.013   5.708   3.915 -0.8158  0.7304  0.3912
 3974TIP3   OH233336   3.542   5.521   2.393 -0.3031  0.0645 -0.0108
 3974TIP3    H133337   3.618   5.491   2.342 -0.0768  0.6529 -0.0314
 3974TIP3    H233338   3.486   5.444   2.401  0.6333 -0.5689  0.6153
 3975TIP3   OH233339   1.342   6.499  12.535  0.4127 -0.2557  0.1021
 3975TIP3    H133340   1.349   6.413  12.493  0.9095  0.5485 -1.5375
 3975TIP3    H233341   1.248   6.513  12.544  0.3288 -1.2848  1.1142
 3976TIP3   OH233342   5.684   1.911  11.138 -0.0737  0.9560 -0.2480
 3976TIP3    H133343   5.763   1.898  11.086 -0.6520  0.1260 -0.9436
 3976TIP3    H233344   5.708   1.978  11.202  0.1214  3.3953 -2.7060
 3977TIP3   OH233345   6.322   4.322   1.265 -0.2344  0.4406  0.2417
 3977TIP3    H133346   6.238   4.347   1.226  0.2867  4.1225  1.1108
 3977TIP3    H233347   6.310   4.337   1.358  1.4836  1.4873  0.3307
 3978TIP3   OH233348   2.718   3.680   2.918  0.7012  0.3475 -0.3979
 3978TIP3    H133349   2.701   3.586   2.928 -0.3801  0.6689  1.0348
 3978TIP3    H233350   2.798   3.695   2.970 -0.0565  0.4837  0.7686
 3979TIP3   OH233351   5.808   2.188   2.392 -0.0764  0.3585  0.1223
 3979TIP3    H133352   5.805   2.151   2.304  2.4929 -2.2313  0.9236
 3979TIP3    H233353   5.824   2.281   2.379 -0.4037  0.1532 -2.1306
 3980TIP3   OH233354   2.203   2.735  12.685 -0.4132  0.5754  0.3850
 3980TIP3    H133355   2.152   2.759  12.607  0.1515 -0.9139 -0.4753
 3980TIP3    H233356   2.273   2.679  12.652  1.7562  2.4267  1.5633
 3981TIP3   OH233357   4.958   2.104   1.811 -0.2359 -0.1526  0.3120
 3981TIP3    H133358   4.925   2.076   1.726 -2.0027  0.1330  0.8555
 3981TIP3    H233359   4.928   2.037   1.872  1.5321 -0.6746  0.6764
 3982TIP3   OH233360   1.203   1.902   0.570 -0.0548  0.3134  0.1419
 3982TIP3    H133361   1.144   1.848   0.621  1.1628 -1.4291 -0.1862
 3982TIP3    H233362   1.194   1.990   0.607 -1.3399 -0.3080  1.3919
 3983TIP3   OH233363   1.752   2.255  14.914  0.3421 -0.1019  0.1953
 3983TIP3    H133364   1.694   2.305  14.857  1.4494  1.3831  0.2905
 3983TIP3    H233365   1.714   2.264  15.001 -0.8425 -1.5965 -0.1237
 3984TIP3   OH233366   3.523   6.478   0.399  0.0209 -0.1367 -0.5640
 3984TIP3    H133367   3.532   6.556   0.345  2.4960 -0.5438 -0.8416
 3984TIP3    H233368   3.500   6.512   0.486  1.2926  0.9347 -0.6240
 3985TIP3   OH233369   5.930   4.195  14.246  0.4343  0.2774 -0.1576
 3985TIP3    H133370   5.963   4.174  14.333 -0.5201 -1.3713 -0.1541
 3985TIP3    H233371   5.983   4.270  14.218  1.0312  0.5887  1.6548
 3986TIP3   OH233372   0.693   2.303   1.630  0.3278 -0.5458  0.1612
 3986TIP3    H133373   0.750   2.379   1.634  0.6086 -0.5369 -2.2321
 3986TIP3    H233374   0.747   2.234   1.591 -0.1614 -1.7601  1.5205
 3987TIP3   OH233375   0.048   3.396  13.246 -0.0251 -0.4416 -0.5677
 3987TIP3    H133376   0.017   3.314  13.284 -0.4644  0.0391  0.1432
 3987TIP3    H233377  -0.004   3.463  13.290  0.9881  0.2839 -0.4558
 3988TIP3   OH233378   5.373   0.685   0.459 -0.4361 -0.6459 -0.3351
 3988TIP3    H133379   5.386   0.745   0.532 -1.5754 -0.3410 -0.3581
 3988TIP3    H233380   5.457   0.681   0.414 -0.5187  1.5326 -0.7694
 3989TIP3   OH233381   0.676   2.660  13.152  0.4163 -0.0314 -0.1694
 3989TIP3    H133382   0.732   2.701  13.086  1.8733  0.9779  1.5732
 3989TIP3    H233383   0.713   2.690  13.236 -0.3510 -2.5333  1.1507
 3990TIP3   OH233384   5.203   4.786   4.335  0.0671 -0.0316 -0.1409
 3990TIP3    H133385   5.189   4.694   4.311 -1.2290  0.1774 -0.3008
 3990TIP3    H233386   5.130   4.832   4.293 -0.0489  0.8808  1.0194
 3991TIP3   OH233387   4.917   5.110   5.934 -0.3180  0.0852  0.4286
 3991TIP3    H133388   4.895   5.058   5.857  0.3985 -0.5707  0.6442
 3991TIP3    H233389   5.008   5.136   5.919  0.2509 -1.1194  1.6141
 3992TIP3   OH233390   0.005   1.244   5.928  0.3996  0.1798  0.4668
 3992TIP3    H133391  -0.009   1.167   5.873  0.4670  0.5499 -0.0861
 3992TIP3    H233392  -0.033   1.221   6.012 -1.1919  0.2025 -0.2067
 3993TIP3   OH233393   5.568   6.720  17.096  0.1492 -0.1578 -0.3302
 3993TIP3    H133394   5.486   6.681  17.067  0.1006  0.2102 -0.7098
 3993TIP3    H233395   5.542   6.797  17.146  0.2573 -0.0338 -0.4599
 3994TIP3   OH233396   1.509   0.464  13.165  0.0114  0.3722 -0.2146
 3994TIP3    H133397   1.556   0.542  13.135  0.2223  0.0889 -0.6370
 3994TIP3    H233398   1.564   0.429  13.235  1.2884 -0.8340 -1.7386
 3995TIP3   OH233399   0.302   5.801   3.996  0.2351 -0.2625 -0.5918
 3995TIP3    H133400   0.221   5.756   3.974 -1.9541  2.7681  0.6245
 3995TIP3    H233401   0.275   5.890   4.019  3.9601  0.9867 -0.3882
 3996TIP3   OH233402   1.810   4.288   2.500 -0.0339  0.1573  0.0210
 3996TIP3    H133403   1.814   4.328   2.413  0.0489  2.9103  1.2071
 3996TIP3    H233404   1.858   4.348   2.557 -1.0498 -0.9658  2.1983
 3997TIP3   OH233405   6.183   2.333   0.018 -0.2117  0.0567 -0.2879
 3997TIP3    H133406   6.131   2.294  -0.052 -0.8059  0.8430 -0.2975
 3997TIP3    H233407   6.227   2.259   0.059 -1.9462 -0.7562  0.2242
 3998TIP3   OH233408   2.581   5.052   5.442 -0.5127 -0.0546 -0.0668
 3998TIP3    H133409   2.543   5.118   5.385 -0.3471 -1.8727 -2.4344
 3998TIP3    H233410   2.505   5.011   5.485 -1.1645 -1.7351 -2.5872
 3999TIP3   OH233411   2.597   4.348  11.840 -0.2197 -0.4695  0.0391
 3999TIP3    H133412   2.648   4.428  11.848 -1.6381  0.5242 -0.4865
 3999TIP3    H233413   2.609   4.320  11.749 -0.8113 -0.0789 -0.1646
 4000TIP3   OH233414   5.892   1.445   1.756 -0.2307 -0.6012 -0.1708
 4000TIP3    H133415   5.971   1.435   1.703  0.2672 -2.0029  0.7667
 4000TIP3    H233416   5.923   1.478   1.840 -0.6786 -0.7930  0.0748
 4001TIP3   OH233417   3.999   2.872  12.634  0.1229  0.3191 -0.9474
 4001TIP3    H133418   3.988   2.804  12.701 -0.1557 -1.0115 -2.3111
 4001TIP3    H233419   4.094   2.875  12.618  0.0390 -0.5556 -1.6751
 4002TIP3   OH233420   2.537   6.652   6.446  0.3170  0.4283  0.3099
 4002TIP3    H133421   2.545   6.602   6.527  1.2789 -0.7076 -0.4525
 4002TIP3    H233422   2.526   6.585   6.378  2.3274  1.1814 -0.8359
 4003TIP3   OH233423   6.415   5.259   2.924  0.9735 -0.1625  0.0798
 4003TIP3    H133424   6.357   5.184   2.942  0.6196  0.2478  0.6742
 4003TIP3    H233425   6.362   5.316   2.869  0.9186  0.0722  0.3753
 4004TIP3   OH233426   2.713   0.096  15.235 -0.3201 -0.1648  0.2167
 4004TIP3    H133427   2.632   0.146  15.229 -1.2838 -1.4134  1.9020
 4004TIP3    H233428   2.686   0.005  15.221  0.6165 -0.6936  1.6751
 4005TIP3   OH233429   5.516   0.289  14.853 -0.4976 -0.2109  0.2854
 4005TIP3    H133430   5.593   0.233  14.862 -0.8979 -0.7149  0.6384
 4005TIP3    H233431   5.482   0.297  14.942 -0.5700  0.4195  0.2048
 4006TIP3   OH233432   3.589   5.641   1.866  0.0862  0.4083  0.2587
 4006TIP3    H133433   3.512   5.664   1.813 -0.3471 -1.1842  0.1390
 4006TIP3    H233434   3.559   5.647   1.956  0.4004  1.6666  0.3016
 4007TIP3   OH233435   3.932   2.264   5.811 -0.3949 -0.5446  0.0296
 4007TIP3    H133436   3.911   2.246   5.719 -0.6738 -1.3349  0.2372
 4007TIP3    H233437   3.896   2.351   5.828 -0.7089 -0.5720 -0.4925
 4008TIP3   OH233438   1.204   3.492   0.003  0.7127 -0.2007  0.3528
 4008TIP3    H133439   1.228   3.509  -0.088 -0.0618  1.6732  0.4547
 4008TIP3    H233440   1.242   3.565   0.052 -0.9464  0.1567  1.1740
 4009TIP3   OH233441   4.295   5.262   5.215 -0.0975  0.0280 -0.2066
 4009TIP3    H133442   4.256   5.331   5.268  1.2081 -0.9352  2.1629
 4009TIP3    H233443   4.389   5.277   5.221  0.2202 -1.9034  0.3412
 4010TIP3   OH233444   2.877   6.418  13.784 -0.0964  0.4701  0.0900
 4010TIP3    H133445   2.952   6.455  13.737  0.2109  0.9101  0.9056
 4010TIP3    H233446   2.824   6.378  13.716 -0.2899  2.1764 -0.8266
 4011TIP3   OH233447   3.456   6.431   3.317  0.8217 -0.8527 -0.1689
 4011TIP3    H133448   3.492   6.344   3.334 -0.1577 -1.1279  0.5402
 4011TIP3    H233449   3.393   6.418   3.246 -0.7397 -1.0947  1.2118
 4012TIP3   OH233450   5.695   0.528  15.018 -0.4464 -0.6289 -0.4560
 4012TIP3    H133451   5.724   0.454  14.965  0.0571 -1.5685  1.0676
 4012TIP3    H233452   5.739   0.604  14.980  1.9684 -1.6389  0.1402
 4013TIP3   OH233453   0.851   4.658   4.347  0.0997 -0.3000 -0.2261
 4013TIP3    H133454   0.941   4.627   4.337  0.6626  1.0475  0.4631
 4013TIP3    H233455   0.798   4.595   4.297  1.5350 -0.4071 -1.6654
 4014TIP3   OH233456   0.128   6.632  10.582 -0.1843  0.2329 -0.0610
 4014TIP3    H133457   0.049   6.654  10.632 -1.4301  0.0987 -1.8997
 4014TIP3    H233458   0.143   6.540  10.600 -2.1211 -0.4935 -1.8367
 4015TIP3   OH233459   2.940   0.034  11.447  0.2937 -0.3623  0.3164
 4015TIP3    H133460   2.892   0.116  11.435 -2.3400 -1.6835  1.0662
 4015TIP3    H233461   2.985   0.019  11.364 -1.3365  0.5347 -0.7813
 4016TIP3   OH233462   5.794   4.365   0.634 -0.4978  0.0024  0.2529
 4016TIP3    H133463   5.822   4.281   0.598 -0.1925  0.5911 -0.9505
 4016TIP3    H233464   5.771   4.417   0.557  0.4270  1.4220  0.8892
 4017TIP3   OH233465   0.619   3.196   2.416  0.1641  0.7276 -0.5289
 4017TIP3    H133466   0.654   3.107   2.414 -1.6397 -0.2301  2.8409
 4017TIP3    H233467   0.550   3.197   2.349 -1.8195 -1.5109  1.2977
 4018TIP3   OH233468   6.587   1.372  11.805  0.3864 -0.2244 -0.0767
 4018TIP3    H133469   6.664   1.324  11.834  0.3432  0.4170  1.2140
 4018TIP3    H233470   6.621   1.456  11.773  0.1904  0.4760  1.4490
 4019TIP3   OH233471   6.086   0.501   3.497  0.2658 -0.2311 -0.0047
 4019TIP3    H133472   6.008   0.449   3.516  0.2295 -0.3569 -0.4840
 4019TIP3    H233473   6.145   0.440   3.453  0.5476 -0.0807  0.1663
 4020TIP3   OH233474   3.232   4.987   3.681 -0.2258  0.3416  0.1194
 4020TIP3    H133475   3.293   4.994   3.755 -1.1982  0.7662  0.9207
 4020TIP3    H233476   3.208   4.895   3.678  0.7472  0.0991 -0.4576
 4021TIP3   OH233477   1.972   0.470  14.499  0.0502  0.0473  0.3268
 4021TIP3    H133478   1.973   0.475  14.403  2.5920 -1.5214  0.1749
 4021TIP3    H233479   1.958   0.377  14.517 -1.3561  0.4602  1.5555
 4022TIP3   OH233480   0.113   5.209  12.270  0.4168 -0.2504 -0.1792
 4022TIP3    H133481   0.142   5.189  12.181  1.7998  0.1591  0.1542
 4022TIP3    H233482   0.189   5.189  12.325 -0.0415  0.5702  0.7785
 4023TIP3   OH233483   0.875   5.017  16.434  0.1868 -0.7598 -0.2634
 4023TIP3    H133484   0.837   5.088  16.382 -0.1079 -0.8502 -0.1738
 4023TIP3    H233485   0.935   4.972  16.374  1.2543  0.2588 -0.0069
 4024TIP3   OH233486   0.400   3.361  12.121  0.0429 -0.3447 -0.3865
 4024TIP3    H133487   0.342   3.429  12.156  0.6661 -0.0994  0.2100
 4024TIP3    H233488   0.389   3.287  12.181  1.0939  0.0656  0.3411
 4025TIP3   OH233489   1.989   0.112   3.799 -0.3641  0.0935 -0.5657
 4025TIP3    H133490   1.894   0.115   3.803 -0.3144  1.2214  0.0588
 4025TIP3    H233491   2.010   0.018   3.793 -1.4805 -0.1987 -0.0584
 4026TIP3   OH233492   0.982   6.727  12.005  0.3357 -0.4388  0.1538
 4026TIP3    H133493   0.997   6.708  12.098  0.9854 -0.4139  0.0594
 4026TIP3    H233494   0.891   6.756  12.001  0.3158 -0.3935  0.7940
 4027TIP3   OH233495   1.525   2.053   3.241 -0.2530  0.5665 -0.0552
 4027TIP3    H133496   1.545   1.974   3.192  0.2446  1.1455 -0.8084
 4027TIP3    H233497   1.446   2.032   3.291  0.0042 -0.4668 -0.0738
 4028TIP3   OH233498   2.841   1.906   3.986  0.5833  0.7436  0.0682
 4028TIP3    H133499   2.768   1.882   3.929 -0.8812  2.7303  1.0152
 4028TIP3    H233500   2.888   1.974   3.938  1.0068  0.4416  0.0510
 4029TIP3   OH233501   6.246   5.016  14.701  0.0477 -0.0103 -0.2488
 4029TIP3    H133502   6.194   4.946  14.661 -0.3179  0.1851 -0.1211
 4029TIP3    H233503   6.195   5.095  14.685 -0.1264  0.0663  0.6321
 4030TIP3   OH233504   0.895   0.461  11.032  0.2322  0.3057  0.4638
 4030TIP3    H133505   0.989   0.441  11.038  0.6424  1.6361 -0.8824
 4030TIP3    H233506   0.867   0.418  10.951 -0.1343  0.4941  0.4912
 4031TIP3   OH233507   6.423   2.402  11.954 -0.2648  0.1570  0.4396
 4031TIP3    H133508   6.512   2.376  11.929 -0.7694  0.3086 -1.6745
 4031TIP3    H233509   6.393   2.331  12.011  1.1710  0.1015  1.1971
 4032TIP3   OH233510   0.079   3.964   6.099  0.2723 -0.2661 -0.3268
 4032TIP3    H133511   0.042   4.022   6.165  1.8662  1.0322 -0.5124
 4032TIP3    H233512   0.134   3.903   6.148  0.0213 -0.4676 -0.2947
 4033TIP3   OH233513   6.436   2.972   5.437 -0.2776 -0.3306 -0.0119
 4033TIP3    H133514   6.430   2.983   5.342  1.0441  0.9722  0.0284
 4033TIP3    H233515   6.529   2.979   5.456 -0.5703 -0.1042  1.4456
 4034TIP3   OH233516   4.894   6.343   1.433  0.5207 -0.1085  0.4573
 4034TIP3    H133517   4.897   6.438   1.445 -0.2981 -0.2660  2.2048
 4034TIP3    H233518   4.935   6.329   1.347 -2.1325  2.0640 -1.3552
 4035TIP3   OH233519   6.478   5.901  10.426 -0.1284  0.1857  0.5150
 4035TIP3    H133520   6.522   5.817  10.415  1.0546  0.8043  0.3231
 4035TIP3    H233521   6.415   5.886  10.497 -1.4279 -1.3924 -0.9072
 4036TIP3   OH233522   1.051   5.605   6.000 -0.6418  0.0741  0.3635
 4036TIP3    H133523   1.128   5.563   6.037 -0.7330 -1.4456 -1.0279
 4036TIP3    H233524   0.978   5.572   6.054 -0.4710  0.3572  0.7704
 4037TIP3   OH233525   3.603   4.047  11.190 -0.4527 -0.3805 -0.0801
 4037TIP3    H133526   3.601   4.052  11.094  1.5180 -2.2889 -0.2907
 4037TIP3    H233527   3.554   3.968  11.211 -1.5374  0.4336  0.6115
 4038TIP3   OH233528   5.818   2.322  11.771  0.0244  0.0726  0.1806
 4038TIP3    H133529   5.812   2.237  11.729 -1.0367  1.5533 -2.9073
 4038TIP3    H233530   5.843   2.383  11.701 -2.9230  2.9095  1.3249
 4039TIP3   OH233531   3.858   4.935  12.313  0.6140 -0.7901  0.2812
 4039TIP3    H133532   3.917   4.917  12.386 -0.1028 -2.5647  0.4796
 4039TIP3    H233533   3.856   4.853  12.263  0.3866  0.0977 -1.2318
 4040TIP3   OH233534   6.125   4.788   5.238 -0.3170  0.0648 -0.0594
 4040TIP3    H133535   6.051   4.839   5.269 -0.2952 -0.1130  0.2923
 4040TIP3    H233536   6.179   4.774   5.316  1.2700  2.1223 -0.6913
 4041TIP3   OH233537   4.067   4.562   3.009 -0.1267 -0.1565 -0.0646
 4041TIP3    H133538   4.155   4.599   3.006 -0.2003  0.0793  0.4939
 4041TIP3    H233539   4.026   4.590   2.927  0.4848 -0.7045 -0.5648
 4042TIP3   OH233540   0.577   1.137   5.779  0.1182  0.1352  0.0451
 4042TIP3    H133541   0.606   1.124   5.869  0.4557 -0.0025 -0.0839
 4042TIP3    H233542   0.646   1.098   5.726 -1.4073 -2.4878 -0.2271
 4043TIP3   OH233543   5.376   1.024   2.938  0.2652  0.4548 -0.0901
 4043TIP3    H133544   5.316   0.964   2.983 -0.3778  1.1873  0.0488
 4043TIP3    H233545   5.461   0.980   2.943 -0.3246 -0.8021 -0.6662
 4044TIP3   OH233546   3.815   4.442  13.153  0.2410  0.6544 -0.8051
 4044TIP3    H133547   3.833   4.526  13.111  0.7860  1.3950  0.8115
 4044TIP3    H233548   3.889   4.430  13.213  0.0558 -0.8831 -0.8672
 4045TIP3   OH233549   3.329   1.782  15.974  0.2164  0.8615 -0.0094
 4045TIP3    H133550   3.313   1.764  15.881 -0.3151  1.7240 -0.0914
 4045TIP3    H233551   3.245   1.768  16.016  0.1891  1.5462  0.1703
 4046TIP3   OH233552   6.483   2.299  13.372  0.2314  0.3525 -0.4413
 4046TIP3    H133553   6.477   2.313  13.278 -1.5205 -0.9510 -0.5825
 4046TIP3    H233554   6.514   2.208  13.381 -0.9299 -0.0020  0.1823
 4047TIP3   OH233555   3.117   6.651   3.811 -0.5106  0.4004  0.8406
 4047TIP3    H133556   3.202   6.683   3.838 -0.1640 -0.3022  0.6136
 4047TIP3    H233557   3.065   6.730   3.794  0.9659  0.9187 -1.8260
 4048TIP3   OH233558   3.754   2.411  15.436 -0.4629  0.0989 -0.1090
 4048TIP3    H133559   3.754   2.412  15.340 -0.2817  0.1355 -0.1083
 4048TIP3    H233560   3.820   2.346  15.459  1.1621  1.7084 -0.0026
 4049TIP3   OH233561   0.378   4.769  12.097  0.2799 -0.3308  0.4593
 4049TIP3    H133562   0.459   4.751  12.144  0.1042 -0.6958  0.6220
 4049TIP3    H233563   0.326   4.689  12.105 -0.5314  0.2570  1.2412
 4050TIP3   OH233564   4.900   2.250  11.270 -0.0706 -0.0080  0.4436
 4050TIP3    H133565   4.871   2.178  11.327 -0.3881 -1.3046 -1.2561
 4050TIP3    H233566   4.958   2.208  11.207 -1.0283  1.0341 -1.1907
 4051TIP3   OH233567   3.727   0.195  12.368  0.4773 -0.2738 -0.0439
 4051TIP3    H133568   3.638   0.166  12.387  1.2739 -2.0020  1.2815
 4051TIP3    H233569   3.716   0.276  12.317 -1.8483 -1.5695 -1.7666
 4052TIP3   OH233570   5.829   4.038  13.351  0.1838  0.6367 -0.5784
 4052TIP3    H133571   5.782   4.111  13.312 -0.2909  0.9339  0.5317
 4052TIP3    H233572   5.766   3.966  13.352  0.7066  0.1187 -1.8462
 4053TIP3   OH233573   5.267   0.240  13.467  0.2395  0.1227 -0.0674
 4053TIP3    H133574   5.323   0.317  13.459 -1.5186  1.5293  0.4574
 4053TIP3    H233575   5.328   0.166  13.469  1.9835  1.4720 -0.6534
 4054TIP3   OH233576   3.182   0.562   4.853 -0.3394 -0.2192 -0.7300
 4054TIP3    H133577   3.269   0.565   4.813 -1.0945 -0.6719 -2.4811
 4054TIP3    H233578   3.150   0.474   4.835 -0.8979 -0.2986  0.5294
 4055TIP3   OH233579   3.805   2.203   6.456 -0.4285 -0.2172  0.6584
 4055TIP3    H133580   3.857   2.273   6.416 -0.4635  0.1676  1.2708
 4055TIP3    H233581   3.824   2.126   6.403 -0.8932  0.3940 -0.4281
 4056TIP3   OH233582   4.620   2.695  12.359  0.3179 -0.3574  0.2986
 4056TIP3    H133583   4.621   2.649  12.275 -0.3206 -0.0512  0.1228
 4056TIP3    H233584   4.622   2.788  12.337 -0.3077 -0.2620  0.5974
 4057TIP3   OH233585   2.884   0.238   5.093 -0.1266 -0.1828  0.1368
 4057TIP3    H133586   2.875   0.242   5.189 -0.5637  0.0721  0.0897
 4057TIP3    H233587   2.870   0.329   5.065  0.7016 -0.1219 -0.1166
 4058TIP3   OH233588   4.253   2.273  13.659 -0.0643  0.3357  0.3240
 4058TIP3    H133589   4.264   2.252  13.567 -3.4611  1.5044 -0.5082
 4058TIP3    H233590   4.302   2.205  13.705  1.9562 -0.1346 -2.2837
 4059TIP3   OH233591   4.661   3.934   2.340 -0.0380  0.1011 -0.0265
 4059TIP3    H133592   4.722   3.865   2.366  1.8899  2.1391  1.2269
 4059TIP3    H233593   4.657   3.992   2.417 -1.1817  1.6564 -1.1965
 4060TIP3   OH233594   3.174   2.378  15.786 -0.1506 -0.2778 -0.0237
 4060TIP3    H133595   3.168   2.285  15.808  0.9910 -0.5568 -0.7364
 4060TIP3    H233596   3.084   2.406  15.774 -0.5002 -1.3948 -0.1537
 4061TIP3   OH233597   3.910   0.627   0.080  0.1452  0.3561  0.5228
 4061TIP3    H133598   3.923   0.535   0.104 -0.6565 -0.1077 -0.7562
 4061TIP3    H233599   3.850   0.661   0.147  0.4161 -0.0499  0.9810
 4062TIP3   OH233600   6.644   3.433   1.702  0.2018  0.5430 -0.5601
 4062TIP3    H133601   6.739   3.433   1.691  0.6688  0.0220  2.5645
 4062TIP3    H233602   6.622   3.524   1.721 -0.0720  0.7787 -1.8818
 4063TIP3   OH233603   2.353   4.773   0.796 -0.0856 -0.1631 -0.3051
 4063TIP3    H133604   2.329   4.826   0.872  0.4751 -0.6390  0.2094
 4063TIP3    H233605   2.363   4.684   0.831 -2.1155 -0.8530 -1.3438
 4064TIP3   OH233606   0.070   3.989  12.439  0.3812  0.1019 -0.1600
 4064TIP3    H133607   0.101   4.010  12.351 -0.3612  1.2163 -0.1773
 4064TIP3    H233608   0.110   3.904  12.460  1.2357  0.2288 -1.2300
 4065TIP3   OH233609   0.092   5.849   0.552  0.1349  0.7306 -0.3847
 4065TIP3    H133610  -0.003   5.850   0.570  0.5029  0.1902  1.8952
 4065TIP3    H233611   0.101   5.793   0.475 -1.5839  2.8874 -2.3346
 4066TIP3   OH233612   2.433   2.321  12.702 -0.0200 -0.4272  0.4036
 4066TIP3    H133613   2.445   2.412  12.677 -0.5550 -0.6893 -0.8926
 4066TIP3    H233614   2.355   2.320  12.757 -0.2928 -0.1674  0.0192
 4067TIP3   OH233615   6.240   1.643   6.597  0.0586 -0.1266  0.1086
 4067TIP3    H133616   6.249   1.611   6.507 -0.2373  0.3015 -0.0788
 4067TIP3    H233617   6.211   1.566   6.647  0.6634 -0.4783 -0.0712
 4068TIP3   OH233618   5.110   0.318  13.670  0.1595  0.5939  0.3430
 4068TIP3    H133619   5.085   0.403  13.633 -0.3939 -0.1266 -0.9808
 4068TIP3    H233620   5.180   0.287  13.614  0.6605  0.3552  1.0875
 4069TIP3   OH233621   2.378   0.621   1.649  0.5550  0.2424 -0.4827
 4069TIP3    H133622   2.467   0.588   1.660  0.6766  0.7877  0.2578
 4069TIP3    H233623   2.321   0.549   1.674  0.8066  0.1922 -0.0391
 4070TIP3   OH233624   5.929   3.529  11.741  0.2040  0.0818  0.2894
 4070TIP3    H133625   5.851   3.581  11.759 -0.8054 -0.2494 -2.7163
 4070TIP3    H233626   5.909   3.443  11.776  1.3364  1.1431  4.0364
 4071TIP3   OH233627   2.974   2.328  14.240  0.4034  0.4215  0.5936
 4071TIP3    H133628   2.879   2.324  14.230  0.4017  1.3164  0.1872
 4071TIP3    H233629   2.994   2.421  14.245  1.4854  0.3666 -1.5118
 4072TIP3   OH233630   2.700   5.381   5.478  0.4133  0.1988 -0.4024
 4072TIP3    H133631   2.676   5.473   5.466  0.2238  0.2710  0.4776
 4072TIP3    H233632   2.677   5.339   5.396  0.8014  1.0003 -0.9358
 4073TIP3   OH233633   0.604   6.216   4.927  0.3241  0.3897 -0.2151
 4073TIP3    H133634   0.590   6.151   4.997  1.2269  0.1843 -0.2148
 4073TIP3    H233635   0.633   6.295   4.973 -2.6192  1.4854 -0.0092
 4074TIP3   OH233636   2.724   5.258  16.194  0.7609  0.6823  0.7769
 4074TIP3    H133637   2.754   5.303  16.273  1.7469  2.4882 -0.5611
 4074TIP3    H233638   2.647   5.307  16.167  0.3162 -0.0465  0.6977
 4075TIP3   OH233639   5.196   4.225   4.727 -0.4471  0.0376  0.8209
 4075TIP3    H133640   5.131   4.240   4.658  1.9762 -0.8520 -1.8485
 4075TIP3    H233641   5.222   4.313   4.754  1.9590  0.7551 -3.0137
 4076TIP3   OH233642   0.969   6.318  10.682  0.2528 -0.1909  0.3496
 4076TIP3    H133643   1.030   6.339  10.611 -1.3256  0.0949 -0.9969
 4076TIP3    H233644   0.933   6.232  10.658  0.2679 -0.4461  1.2241
 4077TIP3   OH233645   3.321   2.815  14.919 -0.0049 -0.1699 -0.3401
 4077TIP3    H133646   3.239   2.856  14.949 -0.8844 -2.3084  0.3631
 4077TIP3    H233647   3.386   2.844  14.983 -0.9388 -1.1024  1.0895
 4078TIP3   OH233648   0.871   6.524  16.518 -0.3290  0.6014  0.3391
 4078TIP3    H133649   0.784   6.548  16.550 -0.1178  1.5349  0.2395
 4078TIP3    H233650   0.930   6.551  16.588 -0.3046 -3.0729  1.9996
 4079TIP3   OH233651   3.372   3.208  12.507 -0.9886  0.0668  0.0895
 4079TIP3    H133652   3.359   3.274  12.575 -0.0309  1.6031 -1.1266
 4079TIP3    H233653   3.405   3.131  12.553 -1.6920  0.5818  1.5032
 4080TIP3   OH233654   5.389   1.614   6.437  0.2682  0.3079  0.0368
 4080TIP3    H133655   5.444   1.543   6.470 -1.4566 -1.8776 -1.5104
 4080TIP3    H233656   5.449   1.688   6.428  1.5709  0.0768  4.4914
 4081TIP3   OH233657   6.531   5.038  15.604  0.2391 -0.4612  0.3657
 4081TIP3    H133658   6.517   5.003  15.516 -1.2068 -0.9296  0.7546
 4081TIP3    H233659   6.477   4.982  15.660  1.2072 -0.2157  1.5633
 4082TIP3   OH233660   5.887   6.749   0.232  0.3861 -0.1705 -0.2581
 4082TIP3    H133661   5.981   6.767   0.222  0.5885 -1.2685 -0.5081
 4082TIP3    H233662   5.873   6.668   0.182 -0.6951 -0.0186 -0.2183
 4083TIP3   OH233663   3.644   4.909   4.363  0.0762  0.3639  0.0525
 4083TIP3    H133664   3.707   4.864   4.420 -0.1091 -0.7073 -0.5492
 4083TIP3    H233665   3.659   5.002   4.379  0.4173  0.0989  1.4211
 4084TIP3   OH233666   3.599   6.054   1.617  0.9224 -0.1245 -0.2739
 4084TIP3    H133667   3.650   5.987   1.662 -0.2218 -1.3207 -0.6992
 4084TIP3    H233668   3.640   6.060   1.530  0.6626 -0.7110 -0.4398
 4085TIP3   OH233669   5.369   4.211   5.237 -0.3968  0.0278 -0.3768
 4085TIP3    H133670   5.301   4.186   5.175 -2.1776 -0.2299  1.5762
 4085TIP3    H233671   5.443   4.154   5.216 -0.7104  0.3710 -2.6081
 4086TIP3   OH233672   6.461   6.265  10.650 -1.1854 -0.3056 -0.6835
 4086TIP3    H133673   6.376   6.221  10.647 -0.6679 -1.2847 -2.9854
 4086TIP3    H233674   6.458   6.329  10.580  0.1673 -0.7736 -1.2101
 4087TIP3   OH233675   6.165   4.982  16.521 -0.1559 -0.0784  0.3060
 4087TIP3    H133676   6.180   5.041  16.447 -0.5273  0.4615  0.6587
 4087TIP3    H233677   6.088   4.931  16.496 -0.6241  0.4985  0.5626
 4088TIP3   OH233678   0.022   0.707  10.919  0.0464  0.9796 -0.2183
 4088TIP3    H133679  -0.013   0.668  10.999  0.9632 -0.4819 -0.4835
 4088TIP3    H233680   0.114   0.683  10.919  0.1170  1.1721 -1.5828
 4089TIP3   OH233681   4.511   0.026  14.041 -0.1796  0.1766 -0.8930
 4089TIP3    H133682   4.556  -0.049  14.081  1.2312  1.0173 -0.8239
 4089TIP3    H233683   4.435  -0.012  13.997 -0.6200 -1.0441  0.7957
 4090TIP3   OH233684   4.865   6.427   5.785  0.4101  0.3009  0.6124
 4090TIP3    H133685   4.911   6.360   5.835  0.5928 -0.7993 -0.9622
 4090TIP3    H233686   4.779   6.390   5.767  1.6368 -1.1197 -3.2051
 4091TIP3   OH233687   1.546   1.114   3.433 -0.0904  0.9299 -0.0679
 4091TIP3    H133688   1.484   1.052   3.394 -0.8118  1.2531  0.5408
 4091TIP3    H233689   1.548   1.091   3.525  1.1485  0.5583 -0.1736
 4092TIP3   OH233690   1.856   2.673   4.793  0.8407 -0.0065 -0.1601
 4092TIP3    H133691   1.761   2.664   4.803  0.5267  2.5378 -0.1598
 4092TIP3    H233692   1.892   2.617   4.861 -0.7890  1.4864  2.0900
 4093TIP3   OH233693   4.248   5.041   3.768 -0.0801 -0.2612 -0.7052
 4093TIP3    H133694   4.172   4.985   3.754  0.3308 -1.0276  0.0155
 4093TIP3    H233695   4.228   5.122   3.721 -1.5839 -0.2315 -0.0648
 4094TIP3   OH233696   3.456   1.262   2.469 -0.2090 -0.2066  0.7680
 4094TIP3    H133697   3.506   1.192   2.428 -0.8564 -0.2414 -0.0187
 4094TIP3    H233698   3.504   1.342   2.448 -1.9811  0.1515 -2.7536
 4095TIP3   OH233699   1.925   3.351   1.934  0.0747  0.0143  0.0226
 4095TIP3    H133700   1.872   3.414   1.984  0.2014  0.9741 -1.0028
 4095TIP3    H233701   2.011   3.393   1.928  0.0458 -0.0487 -1.0261
 4096TIP3   OH233702   5.509   4.896  15.521 -0.3885 -0.3362  0.0609
 4096TIP3    H133703   5.435   4.957  15.515 -1.9313 -2.0938  0.4862
 4096TIP3    H233704   5.508   4.848  15.439  0.0801 -0.6256  0.2179
 4097TIP3   OH233705   0.038   5.388  16.251 -0.4541  0.0048 -0.0480
 4097TIP3    H133706   0.006   5.362  16.338 -1.8203  0.7071 -0.3170
 4097TIP3    H233707  -0.031   5.359  16.191  0.2540 -0.0261 -0.8559
 4098TIP3   OH233708   5.393   0.651   2.217 -0.0075 -0.0216 -0.5033
 4098TIP3    H133709   5.315   0.658   2.271 -0.2224  1.1054 -0.9359
 4098TIP3    H233710   5.465   0.638   2.280 -0.3545  0.4424 -0.0033
 4099TIP3   OH233711   1.432   3.190  14.892 -0.6326  0.3516  0.4930
 4099TIP3    H133712   1.417   3.280  14.922  0.3227  0.6202  0.2003
 4099TIP3    H233713   1.356   3.171  14.837 -1.3564  0.6004  1.3807
 4100TIP3   OH233714   2.274   0.695   4.365 -0.7066 -0.0112 -0.3248
 4100TIP3    H133715   2.366   0.720   4.375 -0.3891 -1.2800  0.1183
 4100TIP3    H233716   2.263   0.620   4.424 -1.8021 -0.4143 -1.0145
 4101TIP3   OH233717   3.083   5.272  15.448  0.5589 -0.0366  0.0026
 4101TIP3    H133718   3.153   5.323  15.407  0.1887  0.7645  0.3381
 4101TIP3    H233719   3.073   5.196  15.391  1.1713  0.2338 -0.4832
 4102TIP3   OH233720   4.427   6.431  13.240  0.0972  0.2550  0.0583
 4102TIP3    H133721   4.427   6.520  13.275 -0.5757  0.2881 -0.0003
 4102TIP3    H233722   4.423   6.374  13.317 -0.5676  0.3094  0.0758
 4103TIP3   OH233723   1.203   3.763  12.097  0.5658  0.5856  0.0715
 4103TIP3    H133724   1.188   3.756  12.003  2.0296  1.2090 -0.2377
 4103TIP3    H233725   1.131   3.817  12.129 -0.6852 -0.7148 -0.4393
 4104TIP3   OH233726   4.701   2.478  15.340 -0.0494 -0.0525  0.4863
 4104TIP3    H133727   4.733   2.388  15.337 -0.5869 -0.2380  0.0073
 4104TIP3    H233728   4.773   2.529  15.377  0.5385 -0.5604  0.0602
 4105TIP3   OH233729   3.130   1.178   4.610  0.8325 -0.7977 -0.0734
 4105TIP3    H133730   3.181   1.099   4.592 -0.9739 -2.2944  0.9731
 4105TIP3    H233731   3.101   1.207   4.523  1.4891 -1.3083 -0.4773
 4106TIP3   OH233732   1.220   2.964   2.610 -0.3393 -0.0804 -0.1230
 4106TIP3    H133733   1.266   2.901   2.554 -1.3027 -1.1241  0.2258
 4106TIP3    H233734   1.130   2.965   2.578 -0.4354  0.8469  0.1266
 4107TIP3   OH233735   1.154   0.374  16.964 -0.3908 -0.0974 -0.6842
 4107TIP3    H133736   1.149   0.326  17.047 -0.4423 -1.3132 -1.3849
 4107TIP3    H233737   1.067   0.413  16.954 -0.4845 -0.2076 -0.3285
 4108TIP3   OH233738   0.482   2.539  15.746 -0.3474 -0.1719 -0.2095
 4108TIP3    H133739   0.413   2.552  15.811 -0.2732 -0.5738 -0.0472
 4108TIP3    H233740   0.500   2.627  15.713  0.3496  0.2092  1.0878
 4109TIP3   OH233741   1.736   3.308  15.096  0.7047  0.2806  0.4943
 4109TIP3    H133742   1.753   3.215  15.112 -1.1648 -0.0691  0.6910
 4109TIP3    H233743   1.726   3.314  15.001  0.7266  0.2618  0.4912
 4110TIP3   OH233744   2.647   5.324  14.958  0.5585 -0.2821 -0.0537
 4110TIP3    H133745   2.717   5.260  14.944  0.4731 -0.1687 -1.1123
 4110TIP3    H233746   2.673   5.399  14.905 -0.7187 -0.5285 -1.0771
 4111TIP3   OH233747   3.491   2.157  16.572  0.0499 -0.1277 -0.5702
 4111TIP3    H133748   3.448   2.184  16.490  0.3789 -0.2728 -0.7927
 4111TIP3    H233749   3.419   2.137  16.631 -0.1983 -0.6407 -1.0309
 4112TIP3   OH233750   0.703   2.814  11.904 -0.1012  0.1911 -0.1740
 4112TIP3    H133751   0.634   2.785  11.964 -2.0162  1.1926 -1.7725
 4112TIP3    H233752   0.755   2.876  11.955 -0.5490 -0.3495  0.9681
 4113TIP3   OH233753   1.797   0.665   0.976 -0.1951 -0.2250 -0.3645
 4113TIP3    H133754   1.717   0.613   0.968 -0.5565  0.6551 -3.4475
 4113TIP3    H233755   1.766   0.754   0.993  0.1500  0.0165 -0.9833
 4114TIP3   OH233756   1.007   1.171   3.036 -0.5456 -0.1298 -0.0668
 4114TIP3    H133757   1.003   1.238   3.104  0.1125  0.0873 -0.2346
 4114TIP3    H233758   1.085   1.120   3.057 -1.6463 -1.5640  0.7035
 4115TIP3   OH233759   6.504   2.373   1.841 -0.0180  0.7352  0.3063
 4115TIP3    H133760   6.523   2.331   1.925 -0.8666 -0.4097 -0.0468
 4115TIP3    H233761   6.411   2.355   1.827 -0.1928  2.0476 -0.2640
 4116TIP3   OH233762   1.170   6.555   5.518  0.0844 -0.0460  0.1793
 4116TIP3    H133763   1.177   6.502   5.439 -0.2135  1.2334 -0.7372
 4116TIP3    H233764   1.257   6.550   5.557  0.1828 -0.8425 -0.1126
 4117TIP3   OH233765   5.090   2.927  14.827  0.1140 -0.5961  0.5249
 4117TIP3    H133766   5.146   3.005  14.821 -0.5322 -0.2060 -1.1670
 4117TIP3    H233767   5.034   2.943  14.903  0.0346  0.5843  0.2387
 4118TIP3   OH233768   2.757   4.435  12.292 -0.4659 -0.2786 -0.2574
 4118TIP3    H133769   2.809   4.474  12.222 -1.3516  1.1157 -0.1690
 4118TIP3    H233770   2.750   4.504  12.358 -1.1750 -0.9525  0.3862
 4119TIP3   OH233771   2.760   0.817   4.900 -0.1382 -0.2302 -0.6045
 4119TIP3    H133772   2.698   0.768   4.954  0.0357  0.3097  0.0934
 4119TIP3    H233773   2.841   0.768   4.905 -0.5461 -1.0759 -1.7199
 4120TIP3   OH233774   1.101   3.764   1.626  0.7638  0.0937 -0.4320
 4120TIP3    H133775   1.069   3.848   1.659 -0.8039 -0.7230  0.2023
 4120TIP3    H233776   1.193   3.761   1.653  0.7124  1.3986 -0.0658
 4121TIP3   OH233777   6.387   3.672  12.086  0.2587 -0.0064  0.0408
 4121TIP3    H133778   6.344   3.721  12.016 -3.2098  0.1012  2.0246
 4121TIP3    H233779   6.403   3.586  12.048 -2.3056 -0.2267 -0.7305
 4122TIP3   OH233780   6.307   1.094   5.357  0.3415  0.1050 -0.4501
 4122TIP3    H133781   6.251   1.024   5.390  0.3850  0.8291  1.2477
 4122TIP3    H233782   6.342   1.136   5.435 -0.3485  2.5973 -1.4024
 4123TIP3   OH233783   5.306   4.703   2.409 -0.6837  0.1716  0.1829
 4123TIP3    H133784   5.326   4.691   2.502 -0.6771 -0.9244  0.0517
 4123TIP3    H233785   5.381   4.751   2.374 -0.1352 -0.4405  0.5060
 4124TIP3   OH233786   5.417   6.150   6.154 -0.3680 -0.5603 -0.5575
 4124TIP3    H133787   5.410   6.066   6.198  1.8235 -0.5342 -0.0336
 4124TIP3    H233788   5.473   6.202   6.211 -2.9272  1.8763 -0.0312
 4125TIP3   OH233789   2.986   6.362   0.414  0.0558 -0.0792 -0.0457
 4125TIP3    H133790   2.948   6.447   0.395  0.4507  0.2058  0.4350
 4125TIP3    H233791   2.912   6.309   0.444 -0.5654 -0.4883 -2.0779
 4126TIP3   OH233792   6.234   5.991  13.033 -0.6814 -0.5426  0.4057
 4126TIP3    H133793   6.306   6.039  12.991  0.0893 -1.4473  0.6578
 4126TIP3    H233794   6.272   5.906  13.055 -1.1103 -0.1982  2.7221
 4127TIP3   OH233795   3.542   1.658   3.088 -0.0756 -0.0547 -0.4725
 4127TIP3    H133796   3.622   1.639   3.136  1.0645  1.1956 -1.7676
 4127TIP3    H233797   3.483   1.694   3.154  0.8821  0.1787  0.2905
 4128TIP3   OH233798   0.143   0.629   2.997  0.3713 -0.0697 -0.1567
 4128TIP3    H133799   0.054   0.617   2.965  0.5382 -0.0964 -0.6104
 4128TIP3    H233800   0.183   0.543   2.991  0.8823  0.2390 -1.3415
 4129TIP3   OH233801   6.398   5.584  17.188  0.4075  0.1767 -0.2713
 4129TIP3    H133802   6.466   5.552  17.129  0.2206  0.5549 -0.6953
 4129TIP3    H233803   6.331   5.515  17.185  0.3771  0.2150 -0.5390
 4130TIP3   OH233804   4.262   2.874   3.971  0.2904 -0.0459 -0.0514
 4130TIP3    H133805   4.258   2.969   3.966 -1.4937  0.0257  1.5823
 4130TIP3    H233806   4.331   2.856   4.035  1.3570  0.0582 -1.1209
 4131TIP3   OH233807   3.979   2.826   2.104  0.2157 -0.4128  0.6412
 4131TIP3    H133808   3.994   2.911   2.063 -0.8958 -0.5095 -0.0243
 4131TIP3    H233809   3.913   2.784   2.047 -3.0084  0.2413  3.5777
 4132TIP3   OH233810   1.044   6.596  12.276 -0.1538 -0.3283  0.7137
 4132TIP3    H133811   1.092   6.514  12.265  0.3265  0.0856 -0.4012
 4132TIP3    H233812   0.954   6.575  12.253  0.2237 -0.2539 -0.9573
 4133TIP3   OH233813   2.995   0.559  14.111 -0.6043  0.0544 -0.3247
 4133TIP3    H133814   2.979   0.465  14.111  0.7078 -0.2401  1.9471
 4133TIP3    H233815   3.038   0.576  14.027  0.6087 -1.6885 -0.1085
 4134TIP3   OH233816   4.030   6.431  11.889 -0.2135  0.1192 -0.1181
 4134TIP3    H133817   4.101   6.411  11.828  1.1657 -0.2680  1.5087
 4134TIP3    H233818   4.026   6.527  11.890 -0.7311  0.1245 -1.2959
 4135TIP3   OH233819   0.406   6.162  16.811  0.2018 -0.2454  0.6035
 4135TIP3    H133820   0.432   6.156  16.903  1.9348  0.2695  0.1746
 4135TIP3    H233821   0.452   6.239  16.778  1.6268 -1.8384 -1.3309
 4136TIP3   OH233822   1.005   2.804  17.164 -0.2253  0.1077 -0.3034
 4136TIP3    H133823   1.071   2.869  17.140  0.9039 -0.8983  0.0321
 4136TIP3    H233824   1.018   2.791  17.258 -0.2365 -0.8285 -0.4263
 4137TIP3   OH233825   0.187   6.655  17.335 -0.1701 -0.2536  0.0757
 4137TIP3    H133826   0.240   6.576  17.342 -1.0424 -0.7874  1.1751
 4137TIP3    H233827   0.215   6.710  17.409 -2.1428 -1.2300  1.6629
 4138TIP3   OH233828   3.401   2.480   6.585 -0.0135  0.3195 -0.6063
 4138TIP3    H133829   3.306   2.479   6.581 -0.0644  0.9547  0.1864
 4138TIP3    H233830   3.428   2.398   6.544 -0.8952  0.1370 -0.8405
 4139TIP3   OH233831   0.196   1.281  12.782 -0.2830 -0.0640  0.5197
 4139TIP3    H133832   0.147   1.361  12.764  1.0946  0.4652 -1.1142
 4139TIP3    H233833   0.135   1.210  12.760 -0.7966  0.5584 -0.1146
 4140TIP3   OH233834   1.565   1.810   0.912  0.3998  0.1629 -0.4089
 4140TIP3    H133835   1.590   1.874   0.845  0.1800 -1.6261 -2.2938
 4140TIP3    H233836   1.615   1.732   0.890 -1.2270 -1.1266  0.2754
 4141TIP3   OH233837   3.945   4.441  16.082 -0.8045  0.2823 -0.1300
 4141TIP3    H133838   4.016   4.395  16.036  0.2614 -0.0462  1.7546
 4141TIP3    H233839   3.879   4.457  16.014  0.8119  0.0914 -1.8266
 4142TIP3   OH233840   6.174   3.420  16.122 -0.1043  0.2573 -0.2772
 4142TIP3    H133841   6.085   3.453  16.128 -0.3744 -0.5715  0.4393
 4142TIP3    H233842   6.178   3.377  16.036 -0.5885 -0.2418 -0.0524
 4143TIP3   OH233843   2.114   2.557  16.249  0.1127  0.0157  0.4793
 4143TIP3    H133844   2.046   2.555  16.182 -1.1845  2.3595  1.5875
 4143TIP3    H233845   2.160   2.474  16.240 -3.3496 -2.0439  0.1178
 4144TIP3   OH233846   1.430   4.033   1.402  0.3575 -0.0628 -0.2524
 4144TIP3    H133847   1.503   4.073   1.355  0.9281  0.5381  1.1007
 4144TIP3    H233848   1.409   3.955   1.350  1.8177 -0.1398 -0.7882
 4145TIP3   OH233849   4.633   2.193   1.525 -0.4477  0.2209  0.2459
 4145TIP3    H133850   4.558   2.202   1.466 -0.9526  0.5463  0.9307
 4145TIP3    H233851   4.600   2.220   1.610  0.5998  0.9313  0.4505
 4146TIP3   OH233852   2.629   5.192   4.350 -0.1141 -0.2018  0.1466
 4146TIP3    H133853   2.597   5.108   4.318 -0.3801 -0.3425  0.7627
 4146TIP3    H233854   2.565   5.256   4.317 -2.0148 -0.6515  2.6823
 4147TIP3   OH233855   2.492   3.131  13.675  0.0339 -0.6981  0.0298
 4147TIP3    H133856   2.576   3.173  13.693  0.0722 -1.0707  0.7603
 4147TIP3    H233857   2.500   3.043  13.711 -1.1940 -0.2357  1.5718
 4148TIP3   OH233858   2.663   2.774   1.365 -0.4025  0.1150  0.0065
 4148TIP3    H133859   2.700   2.687   1.376 -0.1760  0.0911 -0.8813
 4148TIP3    H233860   2.580   2.760   1.320  0.3900  0.4537 -1.6477
 4149TIP3   OH233861   5.894   4.099  13.628  0.4450 -0.0679  0.4502
 4149TIP3    H133862   5.841   4.071  13.553  1.5244  2.1213 -1.2628
 4149TIP3    H233863   5.982   4.070  13.607  1.0494  1.9372  0.0185
 4150TIP3   OH233864   3.424   0.164  15.061 -0.1143 -0.4289 -0.0711
 4150TIP3    H133865   3.413   0.069  15.055 -1.5785 -0.4891  2.5218
 4150TIP3    H233866   3.458   0.179  15.149 -1.4675  1.5415  0.1766
 4151TIP3   OH233867   6.419   1.835   6.522  0.5744 -0.1611 -0.5819
 4151TIP3    H133868   6.367   1.760   6.554  1.4434 -1.0203 -1.1255
 4151TIP3    H233869   6.414   1.899   6.593 -0.5351 -0.5572 -0.2774
 4152TIP3   OH233870   1.060   5.402  11.735 -0.1693  0.2895  0.0569
 4152TIP3    H133871   1.099   5.488  11.752  1.1380  0.0825 -1.6626
 4152TIP3    H233872   0.966   5.419  11.730 -0.1657  1.2077  1.9357
 4153TIP3   OH233873   0.655   2.427  11.979 -0.0430  0.8257 -0.7020
 4153TIP3    H133874   0.631   2.343  11.939  2.0274  0.5140 -1.4124
 4153TIP3    H233875   0.573   2.477  11.980 -0.4459  0.5751 -4.6834
 4154TIP3   OH233876   1.728   3.831  14.044 -0.5969 -0.0620  0.5922
 4154TIP3    H133877   1.767   3.868  13.965 -0.6647 -0.1814  0.5029
 4154TIP3    H233878   1.792   3.850  14.113 -0.9021  0.7395  0.6595
 4155TIP3   OH233879   5.574   2.055  15.072 -0.5713 -0.1322 -0.2626
 4155TIP3    H133880   5.514   2.002  15.124  0.4664 -0.4487  0.6370
 4155TIP3    H233881   5.648   1.997  15.054  1.2094  1.3359  1.8689
 4156TIP3   OH233882   5.536   1.817  13.169 -0.0501  0.1299 -0.1947
 4156TIP3    H133883   5.515   1.761  13.243  1.2721  0.6399  0.6067
 4156TIP3    H233884   5.483   1.783  13.097 -1.2781 -0.4515  0.9416
 4157TIP3   OH233885   3.443   5.335   1.350  0.1262  0.2243  0.6371
 4157TIP3    H133886   3.484   5.342   1.264  0.1584 -0.1646  0.6218
 4157TIP3    H233887   3.478   5.255   1.388 -2.2155 -1.3229 -0.2368
 4158TIP3   OH233888   0.039   3.135   3.930  0.0596  0.5353 -0.0834
 4158TIP3    H133889   0.127   3.153   3.962 -1.1006  1.1833  3.1394
 4158TIP3    H233890   0.024   3.203   3.863  2.4108 -0.4755 -1.7898
 4159TIP3   OH233891   5.100   0.942  16.367  0.0112 -0.1215  0.5587
 4159TIP3    H133892   5.105   0.965  16.460 -1.3500  0.5422  0.4759
 4159TIP3    H233893   5.007   0.938  16.348  0.2140  2.4370 -1.4432
 4160TIP3   OH233894   2.107   5.802  14.889  0.0123 -0.3018  0.1392
 4160TIP3    H133895   2.028   5.790  14.836  0.6904  1.7409 -1.4879
 4160TIP3    H233896   2.160   5.864  14.838  2.0517 -0.5603  1.8411
 4161TIP3   OH233897   1.213   2.381   3.218  0.2094  0.0885 -0.5489
 4161TIP3    H133898   1.204   2.474   3.199 -2.4467  0.1054  0.3683
 4161TIP3    H233899   1.125   2.346   3.207  1.1131 -2.2971 -0.7015
 4162TIP3   OH233900   1.233   3.354   0.496  0.0931  0.0588  0.2959
 4162TIP3    H133901   1.225   3.444   0.526  0.5026 -0.0010  0.5956
 4162TIP3    H233902   1.207   3.301   0.571  0.7886 -0.0849  0.4473
 4163TIP3   OH233903   5.135   3.782   2.550  0.0203 -0.3945  0.3637
 4163TIP3    H133904   5.178   3.709   2.505  0.6703  0.6471 -0.7636
 4163TIP3    H233905   5.160   3.859   2.499  0.3350  0.7786  2.2153
 4164TIP3   OH233906   0.660   1.124  15.434 -0.2051  0.0073 -0.3874
 4164TIP3    H133907   0.589   1.141  15.496  0.6197  0.4011  0.4885
 4164TIP3    H233908   0.730   1.087  15.488 -0.0419 -1.2039 -1.3771
 4165TIP3   OH233909   6.298   1.664  11.122  0.0433  0.1288  0.7907
 4165TIP3    H133910   6.230   1.607  11.085  2.6716 -1.3772 -2.1031
 4165TIP3    H233911   6.310   1.632  11.212 -1.4916 -0.9980  0.6264
 4166TIP3   OH233912   2.896   5.740   4.084  0.1752  0.0299 -0.2266
 4166TIP3    H133913   2.841   5.797   4.138 -0.0844 -0.5742  0.1553
 4166TIP3    H233914   2.835   5.677   4.046  0.6520 -0.8862  0.5094
 4167TIP3   OH233915   2.350   4.346  11.527 -0.3509  0.2588 -0.0505
 4167TIP3    H133916   2.338   4.295  11.607 -0.5254 -0.0475 -0.2726
 4167TIP3    H233917   2.444   4.343  11.510 -0.4441 -0.5529 -0.4393
 4168TIP3   OH233918   2.053   4.661   3.359 -0.1600 -0.1466  0.0491
 4168TIP3    H133919   2.070   4.636   3.268 -1.3005 -0.2730 -0.1348
 4168TIP3    H233920   2.091   4.748   3.367  1.6793 -0.8980  0.0139
 4169TIP3   OH233921   1.971   4.536  12.989  0.1210  0.0792  0.4438
 4169TIP3    H133922   2.007   4.548  12.901 -0.7174 -1.0690 -0.0917
 4169TIP3    H233923   1.925   4.617  13.008  0.6579  0.4954  0.0005
 4170TIP3   OH233924   2.445   1.435   2.247 -0.0846 -0.4718  0.5433
 4170TIP3    H133925   2.372   1.414   2.190 -0.8631 -2.4862  2.1490
 4170TIP3    H233926   2.408   1.489   2.316  0.6443  1.1340 -0.2789
 4171TIP3   OH233927   5.844   1.126   2.513  0.3208 -0.2686  0.2001
 4171TIP3    H133928   5.755   1.159   2.508  0.6570  0.4928 -2.1244
 4171TIP3    H233929   5.849   1.059   2.445  1.5940 -0.0069 -0.0066
 4172TIP3   OH233930   4.282   3.130   0.314 -0.4127  1.3358 -0.3242
 4172TIP3    H133931   4.318   3.042   0.324  0.2192  1.3275 -2.2104
 4172TIP3    H233932   4.335   3.184   0.373  0.6236  0.7908 -0.7251
 4173TIP3   OH233933   1.959   6.640  14.558 -0.8236 -0.5841 -0.5920
 4173TIP3    H133934   1.913   6.668  14.479  0.3822  1.6804 -0.5839
 4173TIP3    H233935   1.891   6.636  14.625 -1.3731  0.5838 -1.0519
 4174TIP3   OH233936   3.159   5.781   5.756  0.1593  0.4768 -0.9101
 4174TIP3    H133937   3.225   5.717   5.729  0.1474 -0.6004  1.3239
 4174TIP3    H233938   3.160   5.776   5.852 -0.9612  2.7284 -0.7145
 4175TIP3   OH233939   2.173   0.287  12.219 -0.9288 -0.0581 -0.1043
 4175TIP3    H133940   2.147   0.198  12.241  0.9028 -0.3913  0.8685
 4175TIP3    H233941   2.219   0.319  12.297 -1.4288  1.6952 -0.4877
 4176TIP3   OH233942   1.898   6.414   1.872  0.3181  0.0635 -0.2927
 4176TIP3    H133943   1.866   6.384   1.957  1.1896 -1.2618 -0.3977
 4176TIP3    H233944   1.831   6.476   1.841 -0.0994  0.4098  1.2489
 4177TIP3   OH233945   2.008   3.087   5.385  0.3343  0.9654  0.1055
 4177TIP3    H133946   2.005   2.993   5.368 -0.8756  1.0253 -0.0643
 4177TIP3    H233947   2.083   3.118   5.334  0.2507  0.2228 -0.4858
 4178TIP3   OH233948   2.691   6.437   5.141  0.0170  0.2592  0.1513
 4178TIP3    H133949   2.726   6.355   5.106 -0.7313  0.2438 -0.5965
 4178TIP3    H233950   2.766   6.479   5.184  0.5635 -0.5017 -0.0392
 4179TIP3   OH233951   0.892   4.827   2.844  0.4119  0.0988  0.3299
 4179TIP3    H133952   0.881   4.825   2.939  0.5075  1.4218  0.3794
 4179TIP3    H233953   0.978   4.867   2.830 -0.0681  0.9366 -0.3312
 4180TIP3   OH233954   1.623   6.219  13.178 -0.7202  0.3684  0.3325
 4180TIP3    H133955   1.711   6.253  13.193 -0.9703  0.5789  1.3501
 4180TIP3    H233956   1.567   6.268  13.237 -1.1299 -1.5793  1.6704
 4181TIP3   OH233957   6.131   5.985  14.657  0.5807  0.3631 -0.3199
 4181TIP3    H133958   6.112   6.075  14.685 -0.0291  0.3048 -0.5477
 4181TIP3    H233959   6.226   5.984  14.644  0.7328  0.6903  0.6926
 4182TIP3   OH233960   2.444   4.861  12.604 -0.2383  0.3217 -0.2924
 4182TIP3    H133961   2.437   4.767  12.623 -1.5634  0.3682 -0.4902
 4182TIP3    H233962   2.367   4.881  12.551  0.5178  1.3433 -1.0525
 4183TIP3   OH233963   3.635   5.761  11.508 -0.1391 -0.4236  0.2671
 4183TIP3    H133964   3.647   5.852  11.480  1.0448 -0.9222 -0.9820
 4183TIP3    H233965   3.541   5.745  11.499 -0.3829  0.7059  0.6362
 4184TIP3   OH233966   6.596   1.259   5.541 -0.4645  0.7649 -0.0015
 4184TIP3    H133967   6.582   1.345   5.582 -0.8883  0.7256 -0.0546
 4184TIP3    H233968   6.510   1.218   5.542 -0.3220  0.4553 -0.2400
 4185TIP3   OH233969   4.456   0.695   4.677 -0.4364 -0.2147 -0.4544
 4185TIP3    H133970   4.363   0.706   4.657 -0.2661 -1.8017 -2.4194
 4185TIP3    H233971   4.459   0.686   4.772 -2.7726 -3.5864 -0.5237
 4186TIP3   OH233972   2.907   5.676  12.863 -0.1636  0.1958  0.1169
 4186TIP3    H133973   2.849   5.607  12.832 -0.6004  1.5056 -2.1544
 4186TIP3    H233974   2.990   5.660  12.819  0.5454 -0.2735  1.5299
 4187TIP3   OH233975   0.166   2.706  11.818  0.0688  0.2220  0.3150
 4187TIP3    H133976   0.174   2.614  11.845 -1.7928 -0.1987 -0.4617
 4187TIP3    H233977   0.106   2.745  11.882 -2.3595 -0.1530 -1.6013
 4188TIP3   OH233978   6.546   0.671  13.296  0.0813 -0.4149  0.0289
 4188TIP3    H133979   6.582   0.742  13.243  2.5049 -1.0080  0.7417
 4188TIP3    H233980   6.620   0.612  13.309 -1.3575 -2.0396  1.1559
 4189TIP3   OH233981   0.506   1.332  17.017  0.3783 -0.3636 -0.0489
 4189TIP3    H133982   0.425   1.379  17.032  1.9045  2.2978  0.4844
 4189TIP3    H233983   0.514   1.272  17.092 -0.1193  0.8027  0.9560
 4190TIP3   OH233984   4.938   6.093   2.833 -0.4142 -0.0198 -0.5850
 4190TIP3    H133985   4.951   6.146   2.755 -1.4524 -0.7041 -1.2483
 4190TIP3    H233986   4.879   6.144   2.888  0.2881  0.4468 -0.2569
 4191TIP3   OH233987   0.501   4.981   0.085  0.3667  0.5457  0.0476
 4191TIP3    H133988   0.527   4.925   0.159  1.7077 -0.4467 -1.0941
 4191TIP3    H233989   0.561   5.055   0.089  0.6369  0.3461 -0.1787
 4192TIP3   OH233990   3.487   1.019   0.602 -0.1398 -0.4798  0.6944
 4192TIP3    H133991   3.525   1.061   0.525 -1.1576  1.0547  0.9801
 4192TIP3    H233992   3.504   1.081   0.673 -1.1422 -0.8344  1.2581
 4193TIP3   OH233993   1.955   5.671   5.243 -0.1337  0.2700 -0.5623
 4193TIP3    H133994   1.998   5.689   5.159 -0.6454 -2.5275 -1.5351
 4193TIP3    H233995   1.865   5.701   5.231 -0.0288  0.4963 -0.7809
 4194TIP3   OH233996   4.052   4.691   5.757 -0.3369  0.3097 -0.4434
 4194TIP3    H133997   3.997   4.768   5.772 -0.8758 -0.3605  1.3092
 4194TIP3    H233998   4.124   4.700   5.819  0.9386  0.5959 -1.9319
 4195TIP3   OH233999   5.934   6.145  14.440 -0.1093 -0.0620  0.7399
 4195TIP3    H134000   5.903   6.055  14.437 -0.7172  0.1447  0.8067
 4195TIP3    H234001   5.944   6.164  14.533  0.2660 -0.1376  0.7187
 4196TIP3   OH234002   1.323   1.575   0.222 -0.1592  0.4151  0.7085
 4196TIP3    H134003   1.367   1.653   0.188  0.8928 -0.4161  0.0911
 4196TIP3    H234004   1.319   1.516   0.147 -0.4312 -0.3533  1.3190
 4197TIP3   OH234005   6.162   0.863  13.364 -0.6458 -0.2492  0.6510
 4197TIP3    H134006   6.172   0.770  13.384 -1.4439 -0.1936  1.3748
 4197TIP3    H234007   6.246   0.902  13.389 -1.5649 -0.1781  4.1736
 4198TIP3   OH234008   2.000   4.345   2.703 -0.3642  0.4068 -0.4629
 4198TIP3    H134009   1.940   4.405   2.747  1.0722  1.4944  0.1067
 4198TIP3    H234010   2.085   4.363   2.743  0.2153 -1.6399 -0.6796
 4199TIP3   OH234011   0.639   6.717  13.732 -0.2137  0.2902  0.1235
 4199TIP3    H134012   0.583   6.787  13.697  0.0364 -0.1959 -1.2902
 4199TIP3    H234013   0.593   6.636  13.710  0.8433 -0.0973 -0.7243
 4200TIP3   OH234014   1.849   2.760   6.172 -0.0031 -0.3298 -0.3993
 4200TIP3    H134015   1.792   2.693   6.210  0.3711  0.3190  1.3793
 4200TIP3    H234016   1.808   2.843   6.197  0.3475  0.1298 -1.3001
 4201TIP3   OH234017   1.592   6.012   0.064  0.0782  0.3003 -0.2465
 4201TIP3    H134018   1.529   5.969   0.007 -0.3438  0.9441 -0.2833
 4201TIP3    H234019   1.673   5.963   0.052 -0.7760 -1.5162  0.9738
 4202TIP3   OH234020   0.147   4.172   0.075 -0.6659  0.3955  0.5077
 4202TIP3    H134021   0.210   4.112   0.035  0.2239 -0.6298  3.2054
 4202TIP3    H234022   0.075   4.115   0.104 -2.3044  1.3869 -1.3856
 4203TIP3   OH234023   4.884   5.742  13.869 -0.7778 -0.3325 -0.5161
 4203TIP3    H134024   4.864   5.833  13.847  0.2520  0.3436  1.1338
 4203TIP3    H234025   4.976   5.742  13.893 -0.7645 -1.8092 -0.4706
 4204TIP3   OH234026   4.653   4.479  11.710 -0.8116 -0.3521  0.1445
 4204TIP3    H134027   4.615   4.452  11.626 -0.8111 -1.8174  0.5909
 4204TIP3    H234028   4.727   4.419  11.723 -0.0182  0.7007  0.5859
 4205TIP3   OH234029   5.946   1.753  16.841  0.9038 -0.5476 -0.0616
 4205TIP3    H134030   5.891   1.709  16.905  0.7966 -1.1557 -0.5605
 4205TIP3    H234031   5.999   1.814  16.892 -0.6591  0.5070  0.3553
 4206TIP3   OH234032   6.492   2.163   2.573  0.4312 -0.3073 -0.0481
 4206TIP3    H134033   6.490   2.242   2.627 -0.3933 -0.9166  0.8329
 4206TIP3    H234034   6.485   2.091   2.634 -2.9917 -0.9864 -0.9808
 4207TIP3   OH234035   5.941   0.521   2.323  0.0743 -0.1813  0.3965
 4207TIP3    H134036   5.945   0.465   2.400  0.0920 -3.6503 -1.9049
 4207TIP3    H234037   5.879   0.477   2.264 -0.6243  2.7637 -1.2863
 4208TIP3   OH234038   3.853   2.081  16.860  0.1678  0.5881 -0.2173
 4208TIP3    H134039   3.793   2.039  16.798 -0.4244  2.1244 -0.7303
 4208TIP3    H234040   3.880   2.161  16.816  0.6556  1.1405  1.0542
 4209TIP3   OH234041   3.911   1.619  13.998  0.4710  0.6797 -0.0589
 4209TIP3    H134042   3.887   1.543  13.944 -2.4037 -1.3325  3.5972
 4209TIP3    H234043   3.927   1.689  13.935  2.1974 -2.5340 -3.6532
 4210TIP3   OH234044   4.820   6.424  12.092  0.4270 -0.5070  0.3688
 4210TIP3    H134045   4.767   6.455  12.165 -0.1128 -0.8609  0.1290
 4210TIP3    H234046   4.899   6.389  12.133  0.7287  0.5206  0.6871
 4211TIP3   OH234047   4.062   2.077   3.972 -0.2012  0.4013  0.8059
 4211TIP3    H134048   4.111   2.013   4.024  0.9334 -0.4583 -1.1964
 4211TIP3    H234049   4.114   2.157   3.979  0.7393 -0.1028 -0.0935
 4212TIP3   OH234050   3.553   1.521  14.753 -0.5535 -0.2371 -0.3173
 4212TIP3    H134051   3.525   1.583  14.820  0.7352  0.0532 -0.0247
 4212TIP3    H234052   3.560   1.573  14.673 -1.1893 -0.3873 -0.4738
 4213TIP3   OH234053   3.621   1.081  15.125  0.2001  0.0556 -0.2070
 4213TIP3    H134054   3.706   1.099  15.086  0.3742 -0.7494 -0.2161
 4213TIP3    H234055   3.640   1.024  15.199 -0.4305 -1.1492 -0.9457
 4214TIP3   OH234056   2.960   3.526  13.054  0.5821 -0.2591  0.8235
 4214TIP3    H134057   3.029   3.469  13.021 -0.1153 -1.7926  1.8923
 4214TIP3    H234058   2.937   3.490  13.140 -2.4586 -0.6438 -0.0281
 4215TIP3   OH234059   3.623   2.285   5.051  0.2346  0.4120  0.2589
 4215TIP3    H134060   3.666   2.200   5.042  2.4875  1.2041  2.4178
 4215TIP3    H234061   3.639   2.329   4.968  1.0635 -0.4335 -0.0460
 4216TIP3   OH234062   3.155   6.626  15.698  0.2410  0.4279 -0.4453
 4216TIP3    H134063   3.090   6.559  15.677  0.0105  0.6420 -0.4208
 4216TIP3    H234064   3.235   6.577  15.715 -0.1513  0.0910  0.4900
 4217TIP3   OH234065   6.506   3.703   1.003  0.2412  0.2691  0.1441
 4217TIP3    H134066   6.523   3.625   0.951 -1.4756  0.3553 -0.5955
 4217TIP3    H234067   6.441   3.753   0.953  0.7035  1.7859  0.9804
 4218TIP3   OH234068   3.232   0.736  15.086  0.0848  0.2589  0.2427
 4218TIP3    H134069   3.301   0.730  15.151  2.2598  0.9022 -1.8719
 4218TIP3    H234070   3.277   0.743  15.002 -2.5460  0.7686 -1.2721
 4219TIP3   OH234071   3.162   4.739   5.223  0.2185  0.3458 -0.2635
 4219TIP3    H134072   3.187   4.722   5.313  0.6637  0.3791 -0.3756
 4219TIP3    H234073   3.221   4.684   5.171 -0.7932 -0.5438 -0.5016
 4220TIP3   OH234074   4.174   6.451  11.113 -0.2147 -0.1499 -0.2532
 4220TIP3    H134075   4.236   6.517  11.146  0.5785 -1.8668  1.9769
 4220TIP3    H234076   4.229   6.376  11.091 -1.2844 -0.8155 -0.7417
 4221TIP3   OH234077   3.545   3.333  15.091  0.4208 -0.0457  0.5687
 4221TIP3    H134078   3.483   3.340  15.165 -0.1055  1.5497  0.0200
 4221TIP3    H234079   3.534   3.415  15.044  0.2376 -1.3085 -1.7087
 4222TIP3   OH234080   0.005   0.773  15.871  0.3618  0.2968  0.3365
 4222TIP3    H134081   0.042   0.691  15.904  1.0319  0.7310  0.6686
 4222TIP3    H234082   0.064   0.800  15.801 -0.0115  0.3574  0.0399
 4223TIP3   OH234083   3.282   2.107   5.387  0.1540 -0.2218  0.0672
 4223TIP3    H134084   3.335   2.030   5.408 -0.8913 -1.4437 -1.5035
 4223TIP3    H234085   3.339   2.160   5.331  1.0760  0.4635  1.6065
 4224TIP3   OH234086   2.590   1.006   0.024 -0.0312 -0.1028 -0.1814
 4224TIP3    H134087   2.583   1.077   0.089  2.3606  0.5771 -0.5460
 4224TIP3    H234088   2.684   0.990   0.017 -0.4135 -2.1540 -1.4030
 4225TIP3   OH234089   0.913   3.118  12.151 -0.2664  0.0852  0.3008
 4225TIP3    H134090   0.955   3.177  12.213 -0.0566 -1.6406  1.8853
 4225TIP3    H234091   0.826   3.103  12.187  0.0794 -1.4364  0.5654
 4226TIP3   OH234092   5.541   6.157   0.044 -0.1067  0.5348 -0.6155
 4226TIP3    H134093   5.503   6.235   0.085  0.7033  1.7808 -2.0921
 4226TIP3    H234094   5.575   6.189  -0.040  2.4692 -0.8642 -0.2260
 4227TIP3   OH234095   0.142   6.707   4.594  0.2716  0.0067 -0.1598
 4227TIP3    H134096   0.205   6.711   4.522  0.1148  0.0994 -0.2933
 4227TIP3    H234097   0.105   6.795   4.600  1.7722  0.5789  1.4008
 4228TIP3   OH234098   2.476   2.698  14.870  0.5308 -0.0847 -0.4117
 4228TIP3    H134099   2.514   2.647  14.942  0.1256  0.1408 -0.0316
 4228TIP3    H234100   2.426   2.635  14.819 -2.4201  0.3408  1.6968
 4229TIP3   OH234101   4.818   0.210   1.736  0.6319 -0.1232  0.7352
 4229TIP3    H134102   4.748   0.267   1.768  0.9129 -0.2351  1.5628
 4229TIP3    H234103   4.808   0.129   1.786  0.8667 -0.4294  0.2945
 4230TIP3   OH234104   3.428   0.874  12.804  0.1589 -0.2893 -0.4292
 4230TIP3    H134105   3.363   0.830  12.750 -2.0417  3.7554 -1.5349
 4230TIP3    H234106   3.377   0.916  12.874  1.5662  2.2987 -0.7960
 4231TIP3   OH234107   1.405   3.834  13.446  0.0138 -0.4635  0.2441
 4231TIP3    H134108   1.439   3.790  13.525  1.2378 -0.0465 -0.0225
 4231TIP3    H234109   1.337   3.892  13.478  2.1894  1.6215  1.4181
 4232TIP3   OH234110   5.714   2.921  11.990 -0.2560  0.0938 -0.0832
 4232TIP3    H134111   5.639   2.971  12.022 -1.6893 -0.6200 -2.1680
 4232TIP3    H234112   5.759   2.893  12.070 -2.3138  0.3628  1.2464
 4233TIP3   OH234113   1.095   4.958   3.216  0.3270  0.0775  0.5883
 4233TIP3    H134114   1.055   5.032   3.172 -0.5033 -0.4168  0.4814
 4233TIP3    H234115   1.142   4.996   3.290 -0.7348  0.6384  0.9890
 4234TIP3   OH234116   6.667   4.274  10.411 -0.4348  0.5485 -0.5752
 4234TIP3    H134117   6.710   4.222  10.343 -0.7339  0.4027 -0.6515
 4234TIP3    H234118   6.578   4.240  10.416 -0.5998  0.9747 -0.5413
 4235TIP3   OH234119   1.177   5.661  11.789 -0.8884  0.0696 -0.5949
 4235TIP3    H134120   1.197   5.728  11.723 -1.5928  0.4962 -0.3817
 4235TIP3    H234121   1.131   5.708  11.858 -0.7581 -0.5060 -0.1100
 4236TIP3   OH234122   1.037   4.873  15.190  0.4803 -0.3194 -0.0353
 4236TIP3    H134123   0.983   4.830  15.124 -0.2697  0.3391  0.1373
 4236TIP3    H234124   1.112   4.908  15.142  0.3157 -0.4883 -0.4153
 4237TIP3   OH234125   1.775   5.542   3.916  0.1303  0.7451 -0.5306
 4237TIP3    H134126   1.853   5.548   3.970  0.1532 -0.1982 -0.4335
 4237TIP3    H234127   1.796   5.592   3.837  0.1789  1.9365  0.2151
 4238TIP3   OH234128   0.070   4.111  13.718  0.2555  0.5627  0.3278
 4238TIP3    H134129   0.027   4.135  13.799 -0.1070 -0.4728  0.4602
 4238TIP3    H234130   0.032   4.169  13.652  0.0760  0.9610  0.7744
 4239TIP3   OH234131   6.606   2.794  11.563 -0.6830  0.1153  0.2038
 4239TIP3    H134132   6.648   2.844  11.492 -0.3789 -0.4922 -0.0506
 4239TIP3    H234133   6.635   2.837  11.643 -1.3859  1.0871 -0.0415
 4240TIP3   OH234134   6.223   2.701   5.224 -0.3220  0.1574  0.2552
 4240TIP3    H134135   6.313   2.673   5.239  0.3575  1.2713 -1.4238
 4240TIP3    H234136   6.224   2.740   5.137 -2.3773  0.4537  0.3114
 4241TIP3   OH234137   0.224   4.153   2.853 -0.0206 -0.2964 -0.2484
 4241TIP3    H134138   0.273   4.235   2.860  0.1254 -0.2181 -1.8713
 4241TIP3    H234139   0.290   4.085   2.861  0.2721 -0.2013 -1.7069
 4242TIP3   OH234140   3.040   5.728   1.453 -0.0899  0.4343 -0.1306
 4242TIP3    H134141   3.010   5.658   1.511 -0.4421 -1.9100 -2.9194
 4242TIP3    H234142   2.965   5.748   1.398  0.8855  0.8926 -1.3427
 4243TIP3   OH234143   5.755   2.459  14.109 -0.6014 -0.2111  0.4482
 4243TIP3    H134144   5.684   2.519  14.130 -0.0169 -0.3001  2.9615
 4243TIP3    H234145   5.711   2.375  14.092 -1.1316 -0.1866  1.6389
 4244TIP3   OH234146   5.402   2.385   1.409 -0.2268  0.2035  0.0827
 4244TIP3    H134147   5.342   2.443   1.455 -2.4494  0.0092 -2.3616
 4244TIP3    H234148   5.412   2.310   1.468 -0.8035  1.1034  1.3783
 4245TIP3   OH234149   1.563   4.422  12.622  0.1635 -0.3797 -0.8506
 4245TIP3    H134150   1.528   4.508  12.645  1.4047 -0.1250  0.2131
 4245TIP3    H234151   1.658   4.436  12.615  0.5012 -1.8519  0.2956
 4246TIP3   OH234152   3.428   0.377   5.213  0.5420 -0.1712 -0.3650
 4246TIP3    H134153   3.448   0.290   5.245  1.2119  0.3961  0.8349
 4246TIP3    H234154   3.335   0.373   5.191  0.7546 -1.3996 -1.0954
 4247TIP3   OH234155   4.352   3.519   4.697  0.1954 -0.1900  0.6409
 4247TIP3    H134156   4.276   3.482   4.743 -1.8113 -0.5893 -2.6489
 4247TIP3    H234157   4.414   3.447   4.692 -0.8061 -1.0576  0.2428
 4248TIP3   OH234158   3.052   3.640   3.105 -0.2932 -0.5361  0.1152
 4248TIP3    H134159   3.047   3.589   3.024 -2.1791  1.0553 -0.8672
 4248TIP3    H234160   3.033   3.729   3.078  0.5797  0.3053  2.1184
 4249TIP3   OH234161   0.981   0.939   1.256 -0.0845  0.0710 -0.0007
 4249TIP3    H134162   0.935   0.859   1.281 -0.4302  0.7278  1.6132
 4249TIP3    H234163   1.072   0.911   1.244 -0.1624 -0.5517  0.7426
 4250TIP3   OH234164   3.312   1.937   4.528 -0.1031 -0.3488 -0.4177
 4250TIP3    H134165   3.382   1.972   4.474  1.0134 -1.8998 -0.0468
 4250TIP3    H234166   3.347   1.855   4.563 -1.1644  0.0844  1.8225
 4251TIP3   OH234167   3.553   6.753  14.556 -0.1223  0.1257 -0.0422
 4251TIP3    H134168   3.498   6.784  14.629 -2.1560 -0.2345 -1.3545
 4251TIP3    H234169   3.494   6.752  14.481  0.6007 -4.0450 -0.7420
 4252TIP3   OH234170   0.527   5.204   4.463  0.5364  0.1366  0.0988
 4252TIP3    H134171   0.613   5.220   4.423  1.5989  1.4825  2.6821
 4252TIP3    H234172   0.465   5.219   4.392  2.3580  0.5358 -1.5074
 4253TIP3   OH234173   0.857   6.574   1.758  0.0389 -0.2172 -0.1613
 4253TIP3    H134174   0.883   6.665   1.773  1.8124 -0.8758  1.0731
 4253TIP3    H234175   0.796   6.579   1.685  0.3126  1.9291 -0.3292
 4254TIP3   OH234176   4.194   0.275   5.214  0.0547 -0.1027  0.1705
 4254TIP3    H134177   4.203   0.182   5.235 -0.7941 -0.7121 -1.8296
 4254TIP3    H234178   4.128   0.307   5.275  0.1132 -0.9069  0.6688
 4255TIP3   OH234179   5.663   4.990   6.160  0.3322 -0.6273 -0.0005
 4255TIP3    H134180   5.710   5.070   6.135  2.2020 -1.4257  0.7722
 4255TIP3    H234181   5.731   4.933   6.197 -1.2933 -1.8089  1.3041
 4256TIP3   OH234182   5.772   5.417  11.619  0.1294  0.3218  0.0054
 4256TIP3    H134183   5.858   5.426  11.576 -0.2229 -1.4651 -1.1949
 4256TIP3    H234184   5.713   5.391  11.548 -1.1231  0.1781  1.0731
 4257TIP3   OH234185   2.048   0.352  13.567 -0.0797 -0.3455  0.3842
 4257TIP3    H134186   2.142   0.351  13.583  0.2245 -2.9005 -1.0181
 4257TIP3    H234187   2.037   0.406  13.489  0.0469  0.8710  1.1814
 4258TIP3   OH234188   5.167   3.973  17.328  0.5138 -0.3539 -0.0075
 4258TIP3    H134189   5.192   3.884  17.352 -1.7878 -1.2020 -0.5386
 4258TIP3    H234190   5.228   4.028  17.376  0.9153 -2.1635  1.7052
 4259TIP3   OH234191   0.372   2.675   4.561 -0.2668 -0.2888  0.2375
 4259TIP3    H134192   0.320   2.720   4.627  0.3216 -0.1713  0.6291
 4259TIP3    H234193   0.451   2.646   4.607  0.5353  0.5061 -0.5897
 4260TIP3   OH234194   3.826   0.045  15.788  0.2606 -0.9387  0.5682
 4260TIP3    H134195   3.802   0.066  15.879  1.1760 -0.8367  0.7982
 4260TIP3    H234196   3.764   0.094  15.735 -0.0268 -0.6690  1.1394
 4261TIP3   OH234197   3.518   4.149   0.060  0.0174 -0.3475  0.0477
 4261TIP3    H134198   3.540   4.070   0.108 -0.5020 -1.2976 -1.2361
 4261TIP3    H234199   3.602   4.184   0.032  0.2162 -0.7370  0.1495
 4262TIP3   OH234200   2.993   0.240   3.247  0.4944  0.0001 -0.0058
 4262TIP3    H134201   2.925   0.212   3.308 -1.1589  0.9717 -1.3153
 4262TIP3    H234202   3.059   0.281   3.302 -0.5543  0.1000  1.2249
 4263TIP3   OH234203   1.559   5.962  16.326 -0.3035  0.0753  0.3088
 4263TIP3    H134204   1.642   5.980  16.370 -1.6776  1.6075  2.4718
 4263TIP3    H234205   1.560   5.867  16.311  1.2447 -0.1549  1.5869
 4264TIP3   OH234206   4.490   3.300  14.134  0.2230  0.4344  0.0085
 4264TIP3    H134207   4.549   3.316  14.208  0.2888  1.9383 -0.3304
 4264TIP3    H234208   4.545   3.310  14.056 -0.1813  0.5032 -0.2733
 4265TIP3   OH234209   2.773   4.096  13.357  0.7735  0.3781 -0.3207
 4265TIP3    H134210   2.710   4.165  13.336 -0.6443 -1.4846 -2.8034
 4265TIP3    H234211   2.719   4.016  13.365  2.2915 -0.5047  2.7152
 4266TIP3   OH234212   2.741   5.641   1.363 -0.5167  0.3790 -0.2419
 4266TIP3    H134213   2.748   5.629   1.269  0.1088  1.0930 -0.2916
 4266TIP3    H234214   2.652   5.672   1.378 -0.6736  0.0924 -0.5686
 4267TIP3   OH234215   4.165   3.108   0.079  0.3430 -0.1214 -0.0028
 4267TIP3    H134216   4.210   3.136   0.159  1.3675 -1.6221 -0.0066
 4267TIP3    H234217   4.124   3.025   0.103  1.4430 -1.0590 -1.2808
 4268TIP3   OH234218   2.323   3.772   0.796 -0.5468  0.4305 -0.1320
 4268TIP3    H134219   2.288   3.793   0.883 -2.1383  1.7938 -1.0269
 4268TIP3    H234220   2.418   3.773   0.807 -0.7256  0.3955  1.6303
 4269TIP3   OH234221   4.330   6.506   3.633 -0.0233 -0.5585  0.1101
 4269TIP3    H134222   4.372   6.491   3.549  0.8855 -2.1956  0.8169
 4269TIP3    H234223   4.352   6.596   3.655  0.3378 -0.3448 -1.0493
 4270TIP3   OH234224   0.756   3.906  12.389  0.1008  0.4504  0.2335
 4270TIP3    H134225   0.807   3.826  12.378 -1.8848 -0.9828  0.9399
 4270TIP3    H234226   0.818   3.968  12.429  2.2260 -0.0398 -2.0652
 4271TIP3   OH234227   1.522   6.474  12.980 -0.5215 -0.1390 -0.0210
 4271TIP3    H134228   1.610   6.484  12.944  0.2227  0.7645  1.9040
 4271TIP3    H234229   1.467   6.530  12.925  0.2271 -0.1341 -0.7906
 4272TIP3   OH234230   3.577   1.640  15.836 -0.0993  0.4292  0.1539
 4272TIP3    H134231   3.490   1.677  15.853 -0.1338  1.4647 -1.9739
 4272TIP3    H234232   3.632   1.716  15.819  1.2660 -0.2183  1.5076
 4273TIP3   OH234233   3.559   4.990  16.225  0.5888  0.2750 -0.4051
 4273TIP3    H134234   3.532   4.974  16.315 -0.8311  1.1815 -0.6249
 4273TIP3    H234235   3.638   4.937  16.213  0.4356 -0.3567  1.1603
 4274TIP3   OH234236   4.370   5.895  15.774  0.2665 -0.2636 -0.0155
 4274TIP3    H134237   4.365   5.958  15.702  0.4743 -2.5867 -2.1674
 4274TIP3    H234238   4.301   5.924  15.835  0.5311  2.1549 -0.7593
 4275TIP3   OH234239   6.647   3.874  17.237 -0.4311 -0.1474  0.2108
 4275TIP3    H134240   6.697   3.838  17.311 -0.1090  1.1392  0.6625
 4275TIP3    H234241   6.712   3.926  17.189 -0.3313 -1.9547 -1.7307
 4276TIP3   OH234242   1.756   5.527  12.398  0.1372  0.4299 -0.1083
 4276TIP3    H134243   1.789   5.449  12.442  2.2390  1.0463 -0.4651
 4276TIP3    H234244   1.681   5.497  12.347 -0.2000 -0.9643  1.1626
 4277TIP3   OH234245   3.454   5.623  12.077  0.7309  0.2593 -0.7337
 4277TIP3    H134246   3.372   5.666  12.098  0.2474  0.3524 -2.5955
 4277TIP3    H234247   3.504   5.689  12.027  2.1658  0.3789  0.7701
 4278TIP3   OH234248   2.257   2.053  11.964 -0.2298 -0.1249  0.0991
 4278TIP3    H134249   2.300   2.081  11.883 -1.1158 -1.1178 -0.7540
 4278TIP3    H234250   2.300   1.971  11.987 -0.7643 -0.4548 -0.0433
 4279TIP3   OH234251   0.837   0.398   1.073  0.7344  0.2857  0.1122
 4279TIP3    H134252   0.844   0.303   1.089 -0.5793  0.1340 -0.1630
 4279TIP3    H234253   0.878   0.410   0.987 -0.3047 -0.2494 -0.4782
 4280TIP3   OH234254   2.455   0.738  14.509 -0.1875  0.4084 -0.3971
 4280TIP3    H134255   2.362   0.755  14.525 -0.2891 -1.6677  1.8240
 4280TIP3    H234256   2.456   0.678  14.435 -0.6655  0.2010 -0.2433
 4281TIP3   OH234257   2.495   5.132  13.169  0.6271 -0.1242 -0.3297
 4281TIP3    H134258   2.503   5.056  13.226 -0.2020 -0.2776 -0.4071
 4281TIP3    H234259   2.525   5.205  13.223  2.7872 -0.6564 -0.7070
 4282TIP3   OH234260   4.234   3.293  13.875 -0.1404 -0.1480 -0.2417
 4282TIP3    H134261   4.231   3.308  13.969 -0.3714 -0.4936 -0.1957
 4282TIP3    H234262   4.288   3.365  13.841  1.1407 -0.8157  0.3232
 4283TIP3   OH234263   4.472   6.440   5.925 -0.7263  0.4261 -0.5034
 4283TIP3    H134264   4.531   6.404   5.859 -0.0638  0.0789  0.2635
 4283TIP3    H234265   4.481   6.535   5.916 -1.9877  0.4474 -2.0903
 4284TIP3   OH234266   4.186   6.052   1.960  0.1801 -0.2319 -0.0240
 4284TIP3    H134267   4.167   5.959   1.975 -0.1707  0.0685  1.5704
 4284TIP3    H234268   4.100   6.095   1.963  0.5154  0.3885  1.3095
 4285TIP3   OH234269   2.748   3.174  15.599 -0.2828 -0.3420 -1.0288
 4285TIP3    H134270   2.763   3.212  15.685  0.8258 -0.7409 -1.0310
 4285TIP3    H234271   2.653   3.172  15.590 -0.4228 -0.5840  0.3155
 4286TIP3   OH234272   6.281   0.310   5.125  0.2085 -0.3276 -0.4276
 4286TIP3    H134273   6.337   0.378   5.163 -1.1724  0.9722 -0.5986
 4286TIP3    H234274   6.309   0.305   5.034  2.3133 -2.1650  0.2440
 4287TIP3   OH234275   3.185   4.014  11.658  0.3911 -0.4344  0.2276
 4287TIP3    H134276   3.200   4.010  11.752 -0.0790 -0.8977  0.2860
 4287TIP3    H234277   3.180   3.923  11.630  0.0160 -0.2985 -0.1611
 4288TIP3   OH234278   0.033   2.034   0.379 -0.0395 -0.7127 -0.0633
 4288TIP3    H134279   0.019   1.946   0.344  0.4404 -0.5379 -0.7070
 4288TIP3    H234280   0.111   2.027   0.433  0.3196 -0.5652 -0.5572
 4289TIP3   OH234281   3.457   2.046  13.555  0.6355 -0.8198  0.0659
 4289TIP3    H134282   3.537   2.003  13.586  1.4510  1.3611  1.2627
 4289TIP3    H234283   3.436   2.002  13.473  1.3874 -3.3887  1.1575
 4290TIP3   OH234284   4.111   2.981  14.228 -0.3824 -0.2338 -0.1578
 4290TIP3    H134285   4.196   3.023  14.235 -0.6931  0.3648  0.1379
 4290TIP3    H234286   4.048   3.054  14.230 -0.8882 -0.6473 -0.6153
 4291TIP3   OH234287   3.264   0.103   6.738  0.5930 -0.6745 -0.7311
 4291TIP3    H134288   3.229   0.018   6.711  1.9741 -1.6580  0.4390
 4291TIP3    H234289   3.292   0.089   6.829 -1.1508  1.6565  0.2613
 4292TIP3   OH234290   3.621   3.767   5.766  0.0630  0.6132  0.3813
 4292TIP3    H134291   3.593   3.681   5.732  0.8281  0.2043  0.7616
 4292TIP3    H234292   3.654   3.748   5.854 -1.7734  1.6431  1.3430
 4293TIP3   OH234293   5.809   2.527   2.073  0.2829  0.3890 -0.2020
 4293TIP3    H134294   5.866   2.475   2.016  0.3707  0.4244 -0.1468
 4293TIP3    H234295   5.815   2.484   2.159  0.7937  0.8195 -0.0193
 4294TIP3   OH234296   4.486   3.014   3.779  0.4304 -0.1197 -0.3103
 4294TIP3    H134297   4.501   2.952   3.851 -1.1449  2.1994  2.2117
 4294TIP3    H234298   4.565   3.067   3.775  0.3640  0.0047  0.0044
 4295TIP3   OH234299   5.223   4.133   6.623  0.5350  0.1760 -0.1225
 4295TIP3    H134300   5.169   4.188   6.680 -0.5781  1.4447 -2.2640
 4295TIP3    H234301   5.174   4.052   6.613 -0.6425  0.9746 -1.3200
 4296TIP3   OH234302   1.472   5.955  13.264 -0.1165 -0.4048  0.4735
 4296TIP3    H134303   1.384   5.992  13.267 -0.5106 -0.8644 -2.4166
 4296TIP3    H234304   1.528   6.028  13.237 -0.1641 -0.8308 -0.8262
 4297TIP3   OH234305   2.665   5.228   5.710 -0.1332  0.0737  0.1451
 4297TIP3    H134306   2.700   5.267   5.630  0.7544  2.8621  1.7574
 4297TIP3    H234307   2.574   5.209   5.690  0.0298  0.8686 -1.4531
 4298TIP3   OH234308   2.672   5.416   0.203  0.4032  0.3642 -0.1669
 4298TIP3    H134309   2.747   5.393   0.148  0.1969 -1.3062  0.1754
 4298TIP3    H234310   2.596   5.394   0.150  0.1957  0.0709  0.2396
 4299TIP3   OH234311   5.430   5.346  13.935  0.3119 -0.0524  0.1428
 4299TIP3    H134312   5.344   5.387  13.929  0.9697  1.3493 -0.2632
 4299TIP3    H234313   5.482   5.407  13.988  1.0879 -0.8243  0.2954
 4300TIP3   OH234314   6.452   1.611  14.387 -0.2119  0.1299  0.0607
 4300TIP3    H134315   6.466   1.702  14.361 -1.8388  0.3586 -0.1323
 4300TIP3    H234316   6.504   1.599  14.466 -0.3379  1.3719  0.3409
 4301TIP3   OH234317   1.711   6.128  16.091 -0.3139  0.0761 -0.0899
 4301TIP3    H134318   1.673   6.213  16.070  3.2724  2.0142  0.5676
 4301TIP3    H234319   1.703   6.122  16.186 -1.9697 -1.1570 -0.2606
 4302TIP3   OH234320   4.062   5.640   1.159 -0.4243 -0.1968  0.0970
 4302TIP3    H134321   4.115   5.675   1.230 -0.6566  0.1365  0.1110
 4302TIP3    H234322   3.988   5.597   1.203 -1.4079  1.3680  0.0415
 4303TIP3   OH234323   2.118   4.173   5.703 -0.4110  0.0938 -0.1377
 4303TIP3    H134324   2.084   4.101   5.650 -1.6578  0.6472 -0.1304
 4303TIP3    H234325   2.041   4.209   5.748  0.5309 -0.0928  1.7566
 4304TIP3   OH234326   5.258   6.091  13.482 -0.6797 -0.3641 -0.1216
 4304TIP3    H134327   5.241   6.075  13.389 -2.1401  1.2908 -0.2068
 4304TIP3    H234328   5.185   6.048  13.527 -0.0322 -1.0737  0.2708
 4305TIP3   OH234329   6.425   3.777   4.813 -0.1416  0.7596 -0.7048
 4305TIP3    H134330   6.387   3.857   4.851 -2.1737 -0.0257 -0.9490
 4305TIP3    H234331   6.350   3.731   4.776  0.8070 -1.7534  0.3009
 4306TIP3   OH234332   5.426   4.206  11.681 -0.7301 -0.2464  0.3411
 4306TIP3    H134333   5.423   4.208  11.585 -2.1920 -3.3618  0.1857
 4306TIP3    H234334   5.517   4.228  11.703 -0.5322  1.2416 -1.6561
 4307TIP3   OH234335   1.493   3.327   1.817 -0.0898 -0.3051  0.0230
 4307TIP3    H134336   1.507   3.235   1.837  0.1449  0.0225  1.5377
 4307TIP3    H234337   1.578   3.359   1.787  0.5259 -0.0607  1.8687
 4308TIP3   OH234338   4.147   2.662  15.872 -0.1760 -0.0263  0.3358
 4308TIP3    H134339   4.192   2.741  15.842 -0.6753 -0.4749 -1.7855
 4308TIP3    H234340   4.059   2.670  15.836 -0.2987 -1.4487  0.2667
 4309TIP3   OH234341   3.068   6.067   0.502  0.4126  0.6629 -0.4815
 4309TIP3    H134342   3.104   6.101   0.420 -0.8953  1.4147 -0.7704
 4309TIP3    H234343   3.103   5.978   0.508  1.0372  0.8164 -1.5250
 4310TIP3   OH234344   1.815   4.912   6.660 -0.5102  0.1795 -0.0812
 4310TIP3    H134345   1.867   4.978   6.708  0.8633 -0.3924 -0.7152
 4310TIP3    H234346   1.832   4.932   6.568  0.7671 -1.6655 -0.2868
 4311TIP3   OH234347   0.658   3.213  11.124  0.0897 -0.3602 -0.3649
 4311TIP3    H134348   0.565   3.237  11.128  0.3245  0.6919 -0.9688
 4311TIP3    H234349   0.693   3.263  11.050  0.6234 -2.5255 -1.6929
 4312TIP3   OH234350   3.062   1.305   5.373 -0.2895 -0.5264 -0.7057
 4312TIP3    H134351   3.118   1.272   5.303 -0.5262 -0.1294 -1.0848
 4312TIP3    H234352   2.978   1.324   5.331  0.0911  1.3808 -0.7079
 4313TIP3   OH234353   4.749   0.469   0.657 -0.0417  0.4707  0.4214
 4313TIP3    H134354   4.758   0.551   0.705 -1.9386  0.9595  0.0401
 4313TIP3    H234355   4.669   0.480   0.605 -0.8264 -1.8967  0.9737
 4314TIP3   OH234356   3.327   1.465   2.264  0.6423 -0.3026 -0.2427
 4314TIP3    H134357   3.257   1.529   2.282  0.3022 -0.2057 -1.7973
 4314TIP3    H234358   3.283   1.381   2.260  1.0296 -0.6135  1.3736
 4315TIP3   OH234359   4.695   1.449   3.664 -0.0203 -0.4621  0.6510
 4315TIP3    H134360   4.642   1.419   3.590  0.9808 -1.6292  0.3715
 4315TIP3    H234361   4.687   1.544   3.662 -0.2716 -0.4899 -0.7668
 4316TIP3   OH234362   1.032   5.603   2.277  0.5899 -0.4764 -0.2522
 4316TIP3    H134363   1.090   5.588   2.203  1.3466 -1.0922  0.4509
 4316TIP3    H234364   1.057   5.689   2.310  0.0913 -0.0951 -0.8334
 4317TIP3   OH234365   1.663   2.905  14.966  0.2943  0.3306  0.0321
 4317TIP3    H134366   1.583   2.939  14.925  0.0300 -1.3179 -0.8962
 4317TIP3    H234367   1.632   2.855  15.041  0.3983 -0.7098 -0.6055
 4318TIP3   OH234368   0.553   4.737   5.541  0.3681 -0.7212 -0.0070
 4318TIP3    H134369   0.484   4.710   5.480  0.8994  2.1602 -2.0355
 4318TIP3    H234370   0.522   4.820   5.577  1.7395 -0.5704  0.9016
 4319TIP3   OH234371   0.692   5.810  17.257  0.8099  0.5468 -0.0412
 4319TIP3    H134372   0.673   5.799  17.164  0.8131  0.0576  0.0134
 4319TIP3    H234373   0.708   5.721  17.289 -1.3517  0.4236  0.8948
 4320TIP3   OH234374   3.402   5.645  13.946  0.8825 -0.1752 -0.3617
 4320TIP3    H134375   3.396   5.636  14.042  1.3344 -1.3253 -0.4218
 4320TIP3    H234376   3.336   5.584  13.913 -1.7811  2.7279 -0.7893
 4321TIP3   OH234377   1.616   2.416  17.341  0.0406 -0.0954  0.6153
 4321TIP3    H134378   1.607   2.355  17.268  0.0766  0.4574  0.1398
 4321TIP3    H234379   1.683   2.376  17.397  0.3272 -0.3175  0.1260
 4322TIP3   OH234380   5.264   2.265  13.547 -0.7560  0.3367  0.0701
 4322TIP3    H134381   5.302   2.234  13.465 -2.2047  0.9653 -0.8725
 4322TIP3    H234382   5.181   2.218  13.555 -1.1770  1.1308  0.5612
 4323TIP3   OH234383   4.728   5.995  14.279 -0.4075  0.4112  0.1606
 4323TIP3    H134384   4.655   6.035  14.325 -0.3971  2.1373 -1.2101
 4323TIP3    H234385   4.709   5.901  14.280 -1.4831  0.6136  1.7224
 4324TIP3   OH234386   6.362   1.375  14.836 -0.2898 -0.1594  0.2884
 4324TIP3    H134387   6.382   1.360  14.743 -4.0449  0.5123 -0.8329
 4324TIP3    H234388   6.276   1.418  14.834 -1.1290 -1.3134  4.1368
 4325TIP3   OH234389   5.784   2.849  14.947 -0.1772 -0.2120 -0.1417
 4325TIP3    H134390   5.741   2.930  14.921  0.2040  0.3596  0.9349
 4325TIP3    H234391   5.714   2.784  14.949 -0.8199  0.4737  0.5915
 4326TIP3   OH234392   4.819   0.597   1.618  0.4319 -0.3782  0.3554
 4326TIP3    H134393   4.887   0.548   1.572  1.7836  1.3745  0.3275
 4326TIP3    H234394   4.825   0.567   1.709  0.6613 -0.8583  0.1841
 4327TIP3   OH234395   0.139   2.129   5.452  0.2649  0.4980 -0.0477
 4327TIP3    H134396   0.170   2.217   5.475 -2.3500  1.3094  0.6361
 4327TIP3    H234397   0.117   2.136   5.359 -0.0945  0.6294  0.0451
 4328TIP3   OH234398   3.278   1.020  14.155 -0.1650  0.1926 -0.1306
 4328TIP3    H134399   3.201   0.964  14.171  0.0161 -0.9941 -2.7951
 4328TIP3    H234400   3.334   1.005  14.231 -2.3907  0.8795  1.7711
 4329TIP3   OH234401   4.343   1.060   5.276 -0.7260 -0.5918 -0.3635
 4329TIP3    H134402   4.424   1.026   5.238  1.6134  1.3597  2.3884
 4329TIP3    H234403   4.331   1.008   5.356 -0.9352  0.5452  0.3657
 4330TIP3   OH234404   3.210   5.140  16.783  0.1156 -0.4885  0.0497
 4330TIP3    H134405   3.224   5.185  16.866  2.1350 -1.7333  0.4674
 4330TIP3    H234406   3.208   5.210  16.718  1.7380  0.3294  0.8161
 4331TIP3   OH234407   1.815   5.138   3.909  0.0556 -0.6652 -0.0093
 4331TIP3    H134408   1.731   5.137   3.957 -0.1874 -2.2625 -0.4217
 4331TIP3    H234409   1.879   5.166   3.975 -0.8323  1.1342  0.1841
 4332TIP3   OH234410   2.827   1.967  16.243 -0.3155 -0.2287 -0.5925
 4332TIP3    H134411   2.843   1.873  16.255  0.3537 -0.0549 -0.0518
 4332TIP3    H234412   2.846   1.983  16.150 -1.2068 -0.7657 -0.8857
 4333TIP3   OH234413   2.184   5.143  15.114  0.3413  0.3699  0.4158
 4333TIP3    H134414   2.232   5.226  15.107  0.0506  0.5609  0.6869
 4333TIP3    H234415   2.115   5.150  15.049  0.0384  0.5317  0.7509
 4334TIP3   OH234416   5.493   6.524  12.255  0.6417 -0.1904  0.7943
 4334TIP3    H134417   5.470   6.579  12.331  0.6446 -0.0657  0.7044
 4334TIP3    H234418   5.558   6.463  12.289  0.3060 -0.4386  1.0093
 4335TIP3   OH234419   5.813   5.291   4.982  0.7082  0.1829 -0.3319
 4335TIP3    H134420   5.772   5.229   5.041 -0.5366  1.1027 -0.2043
 4335TIP3    H234421   5.838   5.239   4.906 -0.5535 -0.4362 -0.3454
 4336TIP3   OH234422   2.909   3.018   5.354 -0.3509  0.1146  0.2599
 4336TIP3    H134423   2.832   2.965   5.373 -0.7626  0.6091 -0.0089
 4336TIP3    H234424   2.956   3.022   5.438 -0.4162 -0.4989  0.3298
 4337TIP3   OH234425   4.248   1.896  15.466  0.1820  0.7348 -0.0177
 4337TIP3    H134426   4.270   1.933  15.381 -0.1863  0.6806 -0.1379
 4337TIP3    H234427   4.171   1.944  15.494 -0.5754 -0.2233 -0.3808
 4338TIP3   OH234428   1.135   1.899   4.828  0.0403 -0.2472  0.2817
 4338TIP3    H134429   1.218   1.927   4.867 -0.7532  0.9380  1.1755
 4338TIP3    H234430   1.073   1.968   4.850 -0.9286 -0.5169 -1.3831
 4339TIP3   OH234431   5.041   5.038  14.475  0.3996 -0.2796 -0.2179
 4339TIP3    H134432   4.956   5.027  14.518  1.1714 -1.5841  1.0826
 4339TIP3    H234433   5.036   4.984  14.396  0.1145 -0.5992  0.0165
 4340TIP3   OH234434   0.383   3.661  16.268  0.4055 -0.0975  0.0120
 4340TIP3    H134435   0.407   3.604  16.341 -0.1816 -1.3852 -0.7643
 4340TIP3    H234436   0.290   3.643  16.253  0.0376  1.5345  0.1261
 4341TIP3   OH234437   2.297   5.329   5.437  0.2596  0.1876  0.3207
 4341TIP3    H134438   2.312   5.348   5.529 -1.4085  0.2965  0.5993
 4341TIP3    H234439   2.262   5.411   5.401  1.9394  0.5069 -0.6988
 4342TIP3   OH234440   6.195   0.632  15.110  0.2867 -0.3016 -0.0912
 4342TIP3    H134441   6.156   0.550  15.079 -0.8989  0.1350  0.2217
 4342TIP3    H234442   6.264   0.650  15.046 -0.7666 -0.4902 -1.3181
 4343TIP3   OH234443   3.525   6.444  13.389 -0.0653  0.2378 -0.0372
 4343TIP3    H134444   3.483   6.482  13.311 -2.3394  0.4751  1.2025
 4343TIP3    H234445   3.569   6.365  13.357 -0.7693  0.4421 -1.5983
 4344TIP3   OH234446   1.419   5.360   2.835  0.5651  0.3603 -0.6704
 4344TIP3    H134447   1.405   5.278   2.789 -0.5515  0.4384 -0.4853
 4344TIP3    H234448   1.414   5.427   2.767  0.1689  0.3750 -0.6289
 4345TIP3   OH234449   4.503   4.756   6.186  0.3401 -0.7831 -0.4744
 4345TIP3    H134450   4.492   4.662   6.171  0.8612 -1.1211  1.0923
 4345TIP3    H234451   4.551   4.762   6.269  0.9687  0.8555 -0.9109
 4346TIP3   OH234452   2.336   4.289   0.988 -0.1559  0.5036  0.5071
 4346TIP3    H134453   2.422   4.316   0.955 -0.7627  1.2753 -0.4937
 4346TIP3    H234454   2.284   4.275   0.909 -0.8330 -0.3603  1.1019
 4347TIP3   OH234455   3.044   1.008  15.887 -0.0136 -0.3082 -0.7098
 4347TIP3    H134456   3.044   0.914  15.872 -2.1092 -0.5288  0.3124
 4347TIP3    H234457   3.028   1.017  15.981 -1.0727  1.0642 -0.9992
 4348TIP3   OH234458   0.307   0.147  13.748 -0.0089  0.5405 -0.8232
 4348TIP3    H134459   0.263   0.062  13.746  0.8600  0.0662 -0.3668
 4348TIP3    H234460   0.257   0.199  13.812 -0.9771  0.6391 -1.6295
 4349TIP3   OH234461   3.082   3.667  16.001  0.4022 -0.1284 -0.4391
 4349TIP3    H134462   3.086   3.655  16.096  0.5056 -1.4486 -0.5832
 4349TIP3    H234463   3.171   3.692  15.976  0.0795  1.4574 -0.0574
 4350TIP3   OH234464   1.272   1.579   2.921 -0.1077 -0.4460 -0.5482
 4350TIP3    H134465   1.216   1.532   2.860 -1.7458 -0.4405  0.8817
 4350TIP3    H234466   1.239   1.669   2.921 -0.9583 -0.7110  1.2027
 4351TIP3   OH234467   0.451   5.191   1.821  0.3316 -0.2367 -0.0839
 4351TIP3    H134468   0.436   5.264   1.881 -4.2670 -1.2926  0.4148
 4351TIP3    H234469   0.461   5.232   1.735 -1.7682  1.0902  0.2278
 4352TIP3   OH234470   3.539   1.808  13.070 -0.0474 -0.3557  0.3212
 4352TIP3    H134471   3.534   1.822  12.976  0.2306 -0.0517  0.3493
 4352TIP3    H234472   3.465   1.856  13.106  0.4393  0.3883  0.3455
 4353TIP3   OH234473   3.123   3.345  12.942  0.5154  0.1748 -0.2239
 4353TIP3    H134474   3.145   3.332  12.850 -1.4056 -0.6404 -0.6193
 4353TIP3    H234475   3.187   3.292  12.990  1.5172  0.5919 -1.0817
 4354TIP3   OH234476   6.709   6.568   2.974  0.2854 -0.1649 -0.1335
 4354TIP3    H134477   6.677   6.496   2.920  1.5044  0.2735 -1.5152
 4354TIP3    H234478   6.678   6.547   3.062  0.1211 -2.0726 -0.5871
 4355TIP3   OH234479   4.587   3.744   4.480  0.4407 -0.0876 -0.2652
 4355TIP3    H134480   4.530   3.675   4.444  0.4903 -0.9021  1.1527
 4355TIP3    H234481   4.535   3.784   4.550  0.2127  1.7014 -1.3897
 4356TIP3   OH234482   2.756   1.473   1.116 -0.2287  0.2991 -0.0690
 4356TIP3    H134483   2.722   1.562   1.109 -2.5212 -0.6140 -1.5629
 4356TIP3    H234484   2.775   1.462   1.210  0.1368  2.3203  0.1372
 4357TIP3   OH234485   4.500   4.826  13.332  0.3032  0.3955 -0.1335
 4357TIP3    H134486   4.444   4.751  13.315 -1.7872  1.9381 -0.4191
 4357TIP3    H234487   4.459   4.899  13.284  0.2455  2.5084  2.8376
 4358TIP3   OH234488   0.726   0.421   4.651  0.1738  0.3291  0.6957
 4358TIP3    H134489   0.721   0.448   4.743 -0.1081 -2.8142  1.7315
 4358TIP3    H234490   0.645   0.373   4.636  0.3685  0.5129 -1.1324
 4359TIP3   OH234491   4.356   1.740  15.664  0.1578  0.4102  0.2345
 4359TIP3    H134492   4.445   1.714  15.639 -0.0290 -0.7377  0.7101
 4359TIP3    H234493   4.318   1.773  15.583  0.3710 -0.9802 -0.4738
 4360TIP3   OH234494   1.130   5.634  16.316 -0.5356  0.8198  0.9231
 4360TIP3    H134495   1.203   5.670  16.367 -0.7893  0.4555  1.5602
 4360TIP3    H234496   1.087   5.710  16.278  0.3610  1.0193  0.2768
 4361TIP3   OH234497   4.261   5.120  10.606 -0.2654 -0.4960  0.6019
 4361TIP3    H134498   4.351   5.088  10.614 -0.3599 -0.5998  1.3251
 4361TIP3    H234499   4.270   5.215  10.602 -0.1053 -0.5201  0.3747
 4362TIP3   OH234500   4.900   0.889  11.906  0.0607  0.4704 -0.5840
 4362TIP3    H134501   4.972   0.825  11.906 -0.4019 -0.0591 -0.3777
 4362TIP3    H234502   4.864   0.884  11.995  0.4204  1.4835 -0.3723
 4363TIP3   OH234503   3.365   0.308  12.813  0.4418  0.0723  0.4154
 4363TIP3    H134504   3.374   0.234  12.874  0.5658 -0.6488 -0.4644
 4363TIP3    H234505   3.340   0.382  12.869 -0.1441 -0.7398  1.2495
 4364TIP3   OH234506   3.366   5.299   2.377  0.8644  0.1529 -0.1483
 4364TIP3    H134507   3.359   5.221   2.322  1.0834 -0.5772  0.8359
 4364TIP3    H234508   3.318   5.277   2.457 -0.4809  1.6313 -0.4894
 4365TIP3   OH234509   5.450   6.100  12.284  0.1931  0.0096  0.1073
 4365TIP3    H134510   5.460   6.008  12.307  0.9577 -0.1141 -0.6397
 4365TIP3    H234511   5.468   6.147  12.365  0.1578 -0.4918  0.4088
 4366TIP3   OH234512   6.090   4.755   3.294 -0.1605  0.1905 -0.7735
 4366TIP3    H134513   5.997   4.759   3.275 -0.0630 -0.1408 -1.3438
 4366TIP3    H234514   6.098   4.788   3.384 -1.0406 -1.3427 -0.0848
 4367TIP3   OH234515   1.617   4.145  13.396 -0.1086  0.2353  0.2419
 4367TIP3    H134516   1.524   4.122  13.406 -0.4748  0.4975 -2.0350
 4367TIP3    H234517   1.616   4.234  13.362  0.9287 -0.1515 -0.8538
 4368TIP3   OH234518   3.187   0.944  15.553  0.7548  0.1899  0.6005
 4368TIP3    H134519   3.158   1.027  15.517  0.4789 -0.1730 -0.0277
 4368TIP3    H234520   3.151   0.878  15.494  3.3116 -0.2614 -0.5537
 4369TIP3   OH234521   1.266   3.124   1.715 -0.0427  0.1310  0.5411
 4369TIP3    H134522   1.336   3.149   1.775 -0.8276 -0.7977  1.9240
 4369TIP3    H234523   1.208   3.069   1.768 -0.8624 -0.6129 -1.0570
 4370TIP3   OH234524   0.789   3.750   1.773  0.1720  0.4934  0.2846
 4370TIP3    H134525   0.848   3.712   1.707 -1.0650  0.9387 -1.1400
 4370TIP3    H234526   0.727   3.802   1.722 -1.0174  0.6185  1.7953
 4371TIP3   OH234527   6.427   3.889   1.652 -0.4208  0.4507 -0.5962
 4371TIP3    H134528   6.404   3.801   1.681  0.6289  0.8378  1.5852
 4371TIP3    H234529   6.485   3.876   1.577 -0.1150 -0.7175 -0.1744
 4372TIP3   OH234530   1.559   2.635   0.179 -0.2765  0.0050 -0.0425
 4372TIP3    H134531   1.513   2.718   0.171  1.6902  1.0269 -2.0091
 4372TIP3    H234532   1.542   2.590   0.096 -0.4773 -1.1120  0.5876
 4373TIP3   OH234533   6.250   3.814   3.072 -0.0811  0.1802 -0.3338
 4373TIP3    H134534   6.274   3.881   3.008 -0.0455  1.1088  0.6152
 4373TIP3    H234535   6.307   3.832   3.147 -1.1401  0.0543  0.5198
 4374TIP3   OH234536   0.440   6.709   2.895 -0.2911  0.2672 -0.1663
 4374TIP3    H134537   0.451   6.665   2.811 -0.4578  1.7192 -0.9877
 4374TIP3    H234538   0.399   6.793   2.873  1.0698  1.3483  1.1724
 4375TIP3   OH234539   1.971   3.613  14.646  0.3354 -0.5140 -0.0586
 4375TIP3    H134540   1.910   3.588  14.715 -0.6599 -1.0644 -1.1018
 4375TIP3    H234541   2.057   3.606  14.687 -0.1856 -1.4689  0.9453
 4376TIP3   OH234542   0.238   5.467   5.660 -0.4295  0.1715  0.1933
 4376TIP3    H134543   0.307   5.533   5.668 -0.5432  0.2177  0.8790
 4376TIP3    H234544   0.188   5.494   5.583 -0.4721  0.8902  0.4585
 4377TIP3   OH234545   0.562   0.142   2.556 -0.7123  0.4936 -0.0118
 4377TIP3    H134546   0.589   0.144   2.648 -2.8252 -0.4845  0.6862
 4377TIP3    H234547   0.642   0.118   2.508  0.2855  0.3997  1.6246
 4378TIP3   OH234548   6.357   4.244  15.774  0.4689 -0.2744 -0.2293
 4378TIP3    H134549   6.302   4.317  15.746 -2.3111 -2.1308 -0.0166
 4378TIP3    H234550   6.404   4.217  15.695  0.0532  0.5432 -0.7627
 4379TIP3   OH234551   3.882   2.318   1.775  0.0535 -0.3706  0.2498
 4379TIP3    H134552   3.928   2.235   1.763  1.6182  0.5639 -0.6660
 4379TIP3    H234553   3.938   2.368   1.835  0.6903  1.0590 -1.4351
 4380TIP3   OH234554   5.708   5.030   4.739  0.2116 -0.1569 -0.4963
 4380TIP3    H134555   5.797   5.045   4.709  1.7388  1.6974  4.1166
 4380TIP3    H234556   5.711   4.945   4.783 -0.5722 -0.4747 -1.0241
 4381TIP3   OH234557   3.502   1.833  11.647 -0.5106  0.2249 -0.3211
 4381TIP3    H134558   3.436   1.783  11.697  0.3457 -1.0175 -0.3973
 4381TIP3    H234559   3.461   1.918  11.633 -2.5633 -0.8517 -1.2891
 4382TIP3   OH234560   6.750   3.851  16.172  0.4137 -0.3066  0.4150
 4382TIP3    H134561   6.660   3.868  16.146  0.6309  0.5208  0.1503
 4382TIP3    H234562   6.759   3.756  16.170 -0.1174 -0.3520 -0.7054
 4383TIP3   OH234563   1.965   5.410  13.349  0.2132 -0.0787 -0.2025
 4383TIP3    H134564   1.884   5.395  13.301 -0.5787  0.3971  0.9393
 4383TIP3    H234565   1.959   5.500  13.379  1.1902 -0.0231 -0.1364
 4384TIP3   OH234566   6.445   6.113  15.371  0.4114  0.2960  0.3740
 4384TIP3    H134567   6.373   6.051  15.384 -0.0692  0.9676  1.0201
 4384TIP3    H234568   6.402   6.194  15.345  0.9372  0.6745  0.6652
 4385TIP3   OH234569   4.155   1.597  14.965  0.4791 -0.0247 -0.1128
 4385TIP3    H134570   4.150   1.643  15.049  0.5673 -1.6220  0.8100
 4385TIP3    H234571   4.213   1.652  14.911  0.0049  1.2971  0.6657
 4386TIP3   OH234572   6.671   0.860  14.001 -0.8393 -0.4514 -0.6313
 4386TIP3    H134573   6.759   0.873  14.036 -1.6789  1.7385  0.8315
 4386TIP3    H234574   6.640   0.780  14.043 -0.1968 -0.2836  0.1865
 4387TIP3   OH234575   0.858   0.690   2.240  0.3988  0.5776  0.1125
 4387TIP3    H134576   0.865   0.638   2.161  1.2801 -0.6030  0.9375
 4387TIP3    H234577   0.948   0.704   2.269  0.0777  0.2554  1.3478
 4388TIP3   OH234578   2.846   2.653  17.183 -0.9151 -0.5516 -0.3057
 4388TIP3    H134579   2.925   2.600  17.196 -1.0665 -0.6091  0.4127
 4388TIP3    H234580   2.867   2.708  17.107 -0.9296 -1.9317 -1.3489
 4389TIP3   OH234581   1.087   1.051   1.765  0.0595  0.5961  0.1411
 4389TIP3    H134582   1.182   1.036   1.775  0.0704 -0.5564 -1.2429
 4389TIP3    H234583   1.063   0.997   1.689 -1.2829  2.6868 -0.9953
 4390TIP3   OH234584   0.860   5.950   3.751 -0.2269 -0.1692 -0.0948
 4390TIP3    H134585   0.828   6.034   3.786 -0.4966 -0.6029  0.7378
 4390TIP3    H234586   0.888   5.901   3.829  0.9219 -0.4510 -0.6640
 4391TIP3   OH234587   1.156   0.741   2.262  0.1979  0.1707 -0.4964
 4391TIP3    H134588   1.176   0.700   2.178 -0.8218 -1.0638 -0.1772
 4391TIP3    H234589   1.206   0.690   2.326  1.0088  1.1344 -0.3401
 4392TIP3   OH234590   5.086   1.171   2.601  0.4234  0.0145 -0.1610
 4392TIP3    H134591   5.105   1.249   2.549 -1.4917  2.1501  2.0782
 4392TIP3    H234592   5.038   1.113   2.542 -0.8228  1.9105 -1.1004
 4393TIP3   OH234593   0.899   1.831  10.674  0.1997  0.2906 -0.4378
 4393TIP3    H134594   0.880   1.864  10.762 -1.6931 -1.0569 -0.2842
 4393TIP3    H234595   0.863   1.897  10.615 -1.0850 -0.1127 -0.1483
 4394TIP3   OH234596   4.946   6.479  14.395 -0.2193  0.4230 -0.2111
 4394TIP3    H134597   5.003   6.424  14.448 -0.8334  0.6574  0.7180
 4394TIP3    H234598   4.917   6.549  14.454 -0.1205  1.2706 -1.1336
 4395TIP3   OH234599   4.265   3.212   2.263 -0.1932 -0.0320 -1.0147
 4395TIP3    H134600   4.320   3.290   2.261  1.9237 -1.3168  1.1780
 4395TIP3    H234601   4.182   3.239   2.225  0.4395  3.2862 -0.2952
 4396TIP3   OH234602   1.706   2.980  16.669  0.0072 -0.3208 -0.7636
 4396TIP3    H134603   1.656   2.898  16.661  1.4812 -1.4515  0.8561
 4396TIP3    H234604   1.753   2.971  16.752 -1.7097  3.2717  0.8204
 4397TIP3   OH234605   6.292   3.644  15.194  0.0409 -0.7261 -0.0784
 4397TIP3    H134606   6.259   3.653  15.283 -1.6746 -0.0542 -0.7275
 4397TIP3    H234607   6.342   3.724  15.179  1.9815 -1.7046  0.8851
 4398TIP3   OH234608   5.973   4.694  15.990 -0.2136 -0.2536 -0.2185
 4398TIP3    H134609   5.917   4.620  16.015 -0.4560 -0.5266 -1.5248
 4398TIP3    H234610   5.971   4.752  16.066 -1.1436 -0.9237  0.2844
 4399TIP3   OH234611   0.427   6.730  11.731 -0.0369  0.1021 -0.4540
 4399TIP3    H134612   0.458   6.644  11.757 -0.9867 -0.0183  0.3312
 4399TIP3    H234613   0.390   6.717  11.644  0.9493 -0.0035 -0.8719
 4400TIP3   OH234614   2.166   4.085   1.426 -0.1305 -0.2810 -0.1470
 4400TIP3    H134615   2.131   4.041   1.503 -3.8209 -1.4217 -2.2220
 4400TIP3    H234616   2.118   4.168   1.421 -0.0963 -0.3042 -1.2753
 4401TIP3   OH234617   1.965   4.344   2.274 -0.4194 -0.4483 -0.4938
 4401TIP3    H134618   1.950   4.432   2.240 -1.0390  0.2593  1.4490
 4401TIP3    H234619   1.939   4.286   2.203 -1.6013  0.9291 -1.2483
 4402TIP3   OH234620   4.657   2.851   3.612  0.3104 -0.6976 -0.1096
 4402TIP3    H134621   4.686   2.821   3.699  0.3807 -0.2235  0.0365
 4402TIP3    H234622   4.562   2.840   3.613  0.2323 -0.0859  0.2781
 4403TIP3   OH234623   5.717   4.207  15.439  0.2137 -0.2455 -0.2550
 4403TIP3    H134624   5.653   4.236  15.374  0.0771 -2.3116 -1.1225
 4403TIP3    H234625   5.678   4.227  15.523 -0.3701  0.9329 -0.7824
 4404TIP3   OH234626   3.166   5.933  13.694 -0.6673 -0.3203 -0.0954
 4404TIP3    H134627   3.163   5.845  13.733  2.1530  1.0982  4.0494
 4404TIP3    H234628   3.103   5.984  13.746  0.2408  0.8170 -0.0715
 4405TIP3   OH234629   2.809   1.312   2.645  0.0991 -0.0634 -0.1402
 4405TIP3    H134630   2.899   1.318   2.615  0.5504 -1.1188  0.9118
 4405TIP3    H234631   2.815   1.270   2.731 -1.3227  0.7193  0.3772
 4406TIP3   OH234632   6.106   3.356   0.456  0.2707 -0.1250  0.1795
 4406TIP3    H134633   6.133   3.415   0.387 -0.8839  1.9676  1.4112
 4406TIP3    H234634   6.171   3.369   0.526 -0.3671  0.2176  0.7197
 4407TIP3   OH234635   1.243   2.959  13.852  0.0691  1.1788 -0.0546
 4407TIP3    H134636   1.225   2.928  13.763 -3.4052  2.3866  0.0995
 4407TIP3    H234637   1.339   2.959  13.858  0.3828 -0.5678 -3.1709
 4408TIP3   OH234638   2.838   2.118  12.481  0.0050 -0.9028 -0.5522
 4408TIP3    H134639   2.923   2.156  12.459 -0.7634  1.1998 -0.1303
 4408TIP3    H234640   2.785   2.131  12.402 -0.5960 -0.0066 -0.0255
 4409TIP3   OH234641   2.289   5.684   4.104  0.0572  0.1867  0.0423
 4409TIP3    H134642   2.249   5.739   4.036 -1.5746 -0.6526  0.2614
 4409TIP3    H234643   2.320   5.746   4.170 -0.6897  0.9043 -0.2632
 4410TIP3   OH234644   2.253   5.094  12.965 -0.0158 -0.4409 -0.6819
 4410TIP3    H134645   2.216   5.181  12.976  0.6190 -0.1575 -0.7425
 4410TIP3    H234646   2.307   5.080  13.043 -1.3613 -1.4413  0.1218
 4411TIP3   OH234647   4.002   3.596  12.833 -0.3063  0.2770  0.4125
 4411TIP3    H134648   4.041   3.670  12.787 -0.9255  0.6270  0.4284
 4411TIP3    H234649   4.075   3.538  12.852  0.1740  0.8320  0.2973
 4412TIP3   OH234650   4.122   2.659  12.138 -0.1285 -0.3196 -0.0410
 4412TIP3    H134651   4.162   2.731  12.090  0.5172 -0.8280 -0.2820
 4412TIP3    H234652   4.139   2.582  12.083  0.4035 -0.8706  0.8696
 4413TIP3   OH234653   3.563   2.854  11.197  0.3711  0.7251  0.7395
 4413TIP3    H134654   3.580   2.885  11.286  1.9291  0.8826  0.4181
 4413TIP3    H234655   3.592   2.763  11.198  3.2460  1.5096 -0.3025
 4414TIP3   OH234656   2.775   6.210  12.955  0.1231 -0.0311 -0.4185
 4414TIP3    H134657   2.757   6.123  12.920 -0.0169 -0.7002  1.2165
 4414TIP3    H234658   2.694   6.236  12.998  0.3660  0.6455 -0.3542
 4415TIP3   OH234659   4.778   3.144   5.969  0.2059 -0.0227  0.0212
 4415TIP3    H134660   4.870   3.158   5.990  0.1875 -0.2247  0.2393
 4415TIP3    H234661   4.765   3.050   5.980 -0.2257  0.1148  0.8130
 4416TIP3   OH234662   4.524   2.367  11.353  0.0753  0.1454  0.2323
 4416TIP3    H134663   4.563   2.423  11.286 -0.0335 -0.9815 -0.8158
 4416TIP3    H234664   4.484   2.427  11.415  1.3416  1.2598  0.0147
 4417TIP3   OH234665   2.906   5.720   5.349 -0.4804 -0.1374 -0.3067
 4417TIP3    H134666   2.827   5.774   5.354 -0.1273  0.3482  0.0422
 4417TIP3    H234667   2.908   5.690   5.258 -1.8785 -1.3903  0.0412
 4418TIP3   OH234668   4.533   2.029   3.263 -0.0449  0.4278 -0.2948
 4418TIP3    H134669   4.476   2.068   3.196 -1.5592 -1.3256 -0.1104
 4418TIP3    H234670   4.612   2.082   3.260 -0.8517  1.6625 -2.0602
 4419TIP3   OH234671   6.128   0.384  14.213  0.1227 -0.6549 -0.1876
 4419TIP3    H134672   6.135   0.469  14.257  2.9273 -0.1652 -1.3675
 4419TIP3    H234673   6.118   0.406  14.120  0.1052 -1.6306 -0.4287
 4420TIP3   OH234674   2.688   4.146  16.678 -0.2226 -0.5813 -0.0425
 4420TIP3    H134675   2.681   4.183  16.590 -0.4494 -0.6897 -0.0716
 4420TIP3    H234676   2.777   4.166  16.705 -0.3554  0.0331 -0.0370
 4421TIP3   OH234677   4.738   4.938   2.262 -0.0290  0.3194  0.0362
 4421TIP3    H134678   4.736   5.005   2.194 -3.2804  0.6488  0.2735
 4421TIP3    H234679   4.690   4.977   2.335 -0.5740 -1.6497  0.7968
 4422TIP3   OH234680   0.755   3.708  16.104 -0.5727 -0.1107  0.2866
 4422TIP3    H134681   0.701   3.651  16.049 -0.3572 -1.0945  1.0751
 4422TIP3    H234682   0.702   3.787  16.115 -0.0609  0.6768 -2.4154
 4423TIP3   OH234683   1.539   2.599   3.620  0.3467  0.4875  0.7770
 4423TIP3    H134684   1.535   2.694   3.620 -0.0293  0.4735  0.5061
 4423TIP3    H234685   1.600   2.578   3.549  0.3886  0.5202  0.8027
 4424TIP3   OH234686   1.413   1.271   1.970 -0.5224 -0.4198  0.2340
 4424TIP3    H134687   1.500   1.302   1.992  0.4105 -0.6689 -2.6230
 4424TIP3    H234688   1.354   1.325   2.023  1.2005  3.2246 -1.1758
 4425TIP3   OH234689   5.042   0.664  12.010 -0.3649 -0.5601 -0.3140
 4425TIP3    H134690   5.101   0.703  12.075 -2.2136  0.6871  0.7033
 4425TIP3    H234691   4.998   0.593  12.058 -0.3624 -0.8776 -0.7785
 4426TIP3   OH234692   1.531   4.533   3.572  0.0829  0.0414 -0.1724
 4426TIP3    H134693   1.587   4.584   3.514  0.3191 -0.6431 -0.5532
 4426TIP3    H234694   1.558   4.442   3.558 -0.8010 -0.2525 -0.0040
 4427TIP3   OH234695   6.449   6.713  16.737 -0.4956 -0.9819 -0.0731
 4427TIP3    H134696   6.493   6.797  16.730 -1.1360 -0.6762 -0.6058
 4427TIP3    H234697   6.487   6.672  16.814 -0.4150 -0.0656  0.3881
 4428TIP3   OH234698   2.270   1.565  16.247  0.3503 -0.7864 -0.0661
 4428TIP3    H134699   2.260   1.492  16.186 -0.1624 -1.0821  0.3706
 4428TIP3    H234700   2.218   1.636  16.208 -0.3975 -1.1352  0.2808
 4429TIP3   OH234701   5.548   3.558   5.962  0.3989  0.5618  0.9464
 4429TIP3    H134702   5.565   3.525   5.874 -0.1051  2.0990  0.2542
 4429TIP3    H234703   5.500   3.487   6.005  0.8549 -0.2971  0.0898
 4430TIP3   OH234704   3.260   5.740  14.559  0.7323 -0.0126 -0.9844
 4430TIP3    H134705   3.294   5.753  14.647 -0.2141 -0.8589 -0.4654
 4430TIP3    H234706   3.315   5.671  14.522  0.3393 -0.5649 -0.5681
 4431TIP3   OH234707   2.443   0.053  15.349  0.2538 -0.1743 -0.1760
 4431TIP3    H134708   2.523   0.067  15.399  0.2191  1.1024 -0.4396
 4431TIP3    H234709   2.452   0.111  15.273 -0.7552 -0.3012 -0.4045
 4432TIP3   OH234710   4.995   0.772  14.003 -0.4964  0.1732  0.3342
 4432TIP3    H134711   5.013   0.865  14.015 -0.1866  0.0941  0.5137
 4432TIP3    H234712   5.017   0.733  14.088 -0.7725 -0.0421  0.3082
 4433TIP3   OH234713   0.108   5.788  12.749 -0.7420  0.2236 -0.2991
 4433TIP3    H134714   0.023   5.757  12.719 -0.2121 -1.5368 -0.0469
 4433TIP3    H234715   0.140   5.842  12.676 -2.1801  1.2163 -0.2578
 4434TIP3   OH234716   0.178   3.962  16.340 -0.3919  0.2768 -0.0149
 4434TIP3    H134717   0.258   3.980  16.291 -0.6793 -0.3049 -0.7158
 4434TIP3    H234718   0.124   3.912  16.279 -1.2568  0.5998  0.4856
 4435TIP3   OH234719   6.385   0.473  16.165  0.0471 -0.4749  0.2666
 4435TIP3    H134720   6.396   0.398  16.224 -0.1472  0.6472  1.7998
 4435TIP3    H234721   6.446   0.539  16.199 -1.1175  0.7202  0.1195
 4436TIP3   OH234722   3.628   3.644  13.518 -0.0026 -0.0108  0.0771
 4436TIP3    H134723   3.694   3.706  13.486 -2.3544  1.2684 -2.7203
 4436TIP3    H234724   3.586   3.689  13.591  1.7005 -0.5914  1.4872
 4437TIP3   OH234725   6.435   1.719  15.091  0.6590  0.1743  0.3225
 4437TIP3    H134726   6.504   1.692  15.031  0.2482  0.5837 -0.3579
 4437TIP3    H234727   6.465   1.802  15.127  1.7447 -0.9385  2.1178
 4438TIP3   OH234728   4.380   2.287   3.668 -0.1687 -0.7290 -0.3140
 4438TIP3    H134729   4.304   2.343   3.657  0.5426  0.5631  0.9809
 4438TIP3    H234730   4.397   2.287   3.762  0.9855 -1.5939 -0.4893
 4439TIP3   OH234731   4.698   3.180  12.618 -0.0044  0.3807 -0.1473
 4439TIP3    H134732   4.679   3.086  12.627 -0.1044  0.4171  0.0216
 4439TIP3    H234733   4.658   3.220  12.695  1.2750  0.3854  0.5442
 4440TIP3   OH234734   1.812   1.071   3.325 -0.0652  0.2856 -0.2992
 4440TIP3    H134735   1.782   1.052   3.414  2.4061 -0.6801  0.4093
 4440TIP3    H234736   1.736   1.050   3.270 -1.9727  1.7824  1.5853
 4441TIP3   OH234737   5.677   3.839   5.632 -0.5058 -0.5017 -0.4798
 4441TIP3    H134738   5.599   3.786   5.619 -0.6553 -0.1317 -1.1189
 4441TIP3    H234739   5.691   3.884   5.548  0.4908 -0.6940 -0.4322
 4442TIP3   OH234740   3.676   6.400   1.958 -0.6902  0.0165  0.4283
 4442TIP3    H134741   3.679   6.313   1.996  0.4825  1.1829  3.2827
 4442TIP3    H234742   3.643   6.456   2.028 -1.3605  1.9140 -1.2974
 4443TIP3   OH234743   2.110   5.793   6.467 -0.2299 -0.0300  0.4495
 4443TIP3    H134744   2.142   5.764   6.552  0.1532 -2.6279 -0.5011
 4443TIP3    H234745   2.159   5.741   6.403 -0.9487  1.3968 -1.3547
 4444TIP3   OH234746   0.131   3.562   0.856 -0.1591  0.1563  0.4929
 4444TIP3    H134747   0.160   3.544   0.945 -0.9104 -0.9253  0.5379
 4444TIP3    H234748   0.067   3.633   0.865  2.0898  2.3435  0.4219
 4445TIP3   OH234749   2.007   6.256  14.157 -0.4953  0.4775  0.2747
 4445TIP3    H134750   1.976   6.220  14.240 -0.1629 -1.5795 -0.4198
 4445TIP3    H234751   2.090   6.299  14.179 -0.0120 -0.7323  0.9131
 4446TIP3   OH234752   1.894   2.342  13.532 -0.1204 -0.2448  0.0655
 4446TIP3    H134753   1.886   2.255  13.492 -1.2354 -1.5582  2.8783
 4446TIP3    H234754   1.986   2.347  13.559  0.0527 -0.3783 -0.4997
 4447TIP3   OH234755   3.540   0.456   6.057 -0.2370 -0.1768 -0.0366
 4447TIP3    H134756   3.579   0.502   6.132  2.1406  3.9974 -3.3366
 4447TIP3    H234757   3.468   0.513   6.029 -0.4477 -1.0981 -1.4785
 4448TIP3   OH234758   0.630   4.334  11.723  0.4698  0.1346  0.0826
 4448TIP3    H134759   0.702   4.394  11.699 -0.3126  1.7580  1.5205
 4448TIP3    H234760   0.564   4.348  11.656  1.3064 -1.1252 -1.0651
 4449TIP3   OH234761   3.588   0.935  13.680  0.0267 -0.7866 -0.1647
 4449TIP3    H134762   3.507   0.897  13.715  1.2698 -1.4731  2.1616
 4449TIP3    H234763   3.582   1.028  13.699 -0.1657 -0.8627  0.1521
 4450TIP3   OH234764   1.567   4.390   3.814  0.2777  0.2504  0.4339
 4450TIP3    H134765   1.533   4.427   3.733 -0.1396  1.0012  0.9331
 4450TIP3    H234766   1.595   4.302   3.791 -0.4462  0.2215 -0.3821
 4451TIP3   OH234767   2.341   0.354  15.919 -0.0862  0.5570  0.2355
 4451TIP3    H134768   2.259   0.374  15.875 -0.1902 -1.4035 -0.5584
 4451TIP3    H234769   2.315   0.333  16.009 -0.2314  1.6322  0.4523
 4452TIP3   OH234770   4.363   4.451   4.999  0.1598 -0.9217 -0.4170
 4452TIP3    H134771   4.449   4.445   4.957  0.5869  0.7047  0.1371
 4452TIP3    H234772   4.347   4.364   5.035  2.0733 -0.9923  0.3821
 4453TIP3   OH234773   0.768   4.743  15.508 -0.3104 -0.5178 -0.4572
 4453TIP3    H134774   0.834   4.720  15.574 -1.7578  0.5323  1.4686
 4453TIP3    H234775   0.789   4.834  15.484 -0.9853 -0.1886  0.1435
 4454TIP3   OH234776   0.378   1.425   3.387  0.1099 -0.5463 -0.2507
 4454TIP3    H134777   0.406   1.471   3.466 -2.1055  1.7868 -0.7144
 4454TIP3    H234778   0.284   1.409   3.400  0.1803 -2.2533 -1.4557
 4455TIP3   OH234779   1.210   0.103  12.163  0.3372  0.0661 -0.0303
 4455TIP3    H134780   1.161   0.094  12.081 -1.4850 -2.4023  1.1642
 4455TIP3    H234781   1.174   0.181  12.204 -0.2288  0.1434 -0.6506
 4456TIP3   OH234782   4.124   0.692  12.616  0.5411 -0.3000 -0.3326
 4456TIP3    H134783   4.082   0.693  12.530 -0.9223 -0.7975  0.3405
 4456TIP3    H234784   4.207   0.648  12.601  0.7656  0.5117 -1.6753
 4457TIP3   OH234785   2.528   4.579   2.175  0.5845  0.3309  0.1203
 4457TIP3    H134786   2.482   4.617   2.250 -1.1484 -0.8128 -0.2957
 4457TIP3    H234787   2.549   4.490   2.203 -0.0240 -0.0822 -0.7106
 4458TIP3   OH234788   0.594   3.520  17.347  0.0905 -0.2997  0.2468
 4458TIP3    H134789   0.519   3.483  17.393 -0.1070  1.7354  1.6657
 4458TIP3    H234790   0.610   3.604  17.389  2.1366  0.0876 -1.1290
 4459TIP3   OH234791   4.435   3.425   0.121 -0.0307  0.0248  0.2533
 4459TIP3    H134792   4.370   3.419   0.191 -0.0461  2.0201  0.4759
 4459TIP3    H234793   4.391   3.474   0.051  0.8231  0.3666 -0.0603
 4460TIP3   OH234794   1.113   5.679   2.826 -0.2650 -0.0149  0.2506
 4460TIP3    H134795   1.193   5.643   2.789  0.2797 -0.5237  1.8240
 4460TIP3    H234796   1.143   5.750   2.883 -1.0482  0.6181 -0.1048
 4461TIP3   OH234797   3.062   3.490   4.898  0.3275  0.2276  0.2980
 4461TIP3    H134798   3.147   3.504   4.857  0.4292  1.6024  0.9163
 4461TIP3    H234799   3.027   3.578   4.911 -0.7655 -0.2812  0.9295
 4462TIP3   OH234800   1.442   5.311  15.748  0.3646 -0.1741  0.1127
 4462TIP3    H134801   1.390   5.277  15.822  0.8850  0.5019  0.8096
 4462TIP3    H234802   1.388   5.381  15.711  0.8206  0.6504  0.9485
 4463TIP3   OH234803   2.022   0.965   1.822  0.6724  0.4194 -0.1594
 4463TIP3    H134804   1.927   0.965   1.814  0.7354  1.6466 -1.0002
 4463TIP3    H234805   2.047   1.057   1.818  1.6671  0.4568  3.2028
 4464TIP3   OH234806   4.498   2.499  16.443  0.0667  0.3787 -0.2891
 4464TIP3    H134807   4.471   2.531  16.357  0.6021  2.4029  0.2503
 4464TIP3    H234808   4.417   2.488  16.491 -0.0830  2.2211 -0.0829
 4465TIP3   OH234809   6.022   1.301   5.458 -0.0375 -0.3942 -0.1251
 4465TIP3    H134810   6.070   1.343   5.530 -0.5129 -0.3379  0.1647
 4465TIP3    H234811   6.053   1.345   5.379 -0.9406  0.9147  0.2174
 4466TIP3   OH234812   5.049   1.907  11.221  0.3411 -0.4774  0.3263
 4466TIP3    H134813   4.992   1.948  11.285 -0.9078 -1.6922  0.0515
 4466TIP3    H234814   5.062   1.974  11.153 -1.4307 -0.4123  0.0050
 4467TIP3   OH234815   3.504   0.783   4.892 -0.1922 -0.4450 -0.0761
 4467TIP3    H134816   3.549   0.785   4.977  1.7107 -2.1056 -0.9387
 4467TIP3    H234817   3.544   0.709   4.846 -2.5468 -0.8272 -1.6960
 4468TIP3   OH234818   6.066   5.184  13.091 -0.4051  0.6918  0.1657
 4468TIP3    H134819   5.981   5.227  13.101 -0.6629  0.2918 -0.2606
 4468TIP3    H234820   6.047   5.105  13.040  0.0768  0.0934  0.9009
 4469TIP3   OH234821   2.771   2.787   3.832 -0.2986  0.6889 -0.6809
 4469TIP3    H134822   2.719   2.855   3.789 -1.0425 -0.8625 -2.3491
 4469TIP3    H234823   2.707   2.738   3.884  0.6948  3.0589  3.1939
 4470TIP3   OH234824   3.984   6.190  15.888 -0.0280  0.1251 -0.4116
 4470TIP3    H134825   3.948   6.178  15.800  0.4751 -0.6905 -0.5108
 4470TIP3    H234826   3.955   6.113  15.937  0.1934  0.2830 -0.0237
 4471TIP3   OH234827   2.912   1.568   5.615  0.1325  0.0800  0.7038
 4471TIP3    H134828   2.995   1.604   5.584 -0.7704  0.9474 -0.8356
 4471TIP3    H234829   2.886   1.626   5.686  0.2675  0.5397  0.3874
 4472TIP3   OH234830   4.380   4.019  15.327 -0.4199  0.0924 -0.7359
 4472TIP3    H134831   4.393   4.034  15.233  0.3825 -0.0345 -0.6499
 4472TIP3    H234832   4.368   3.925  15.335  0.7295 -0.0548 -0.5848
 4473TIP3   OH234833   4.101   2.172   5.079  0.6434 -0.0242  0.4644
 4473TIP3    H134834   4.093   2.193   4.986 -0.9028 -0.5221  0.4627
 4473TIP3    H234835   4.011   2.167   5.111  1.1485  0.3522  2.0501
 4474TIP3   OH234836   1.703   0.560   5.009  0.5996 -0.1136  0.2716
 4474TIP3    H134837   1.701   0.605   5.093  0.3919  2.2009 -0.9040
 4474TIP3    H234838   1.778   0.597   4.963  0.7636 -1.3939 -0.5495
 4475TIP3   OH234839   0.393   0.547   4.376 -0.2025  0.3648  0.4772
 4475TIP3    H134840   0.349   0.462   4.368 -3.7145  1.9119  1.2760
 4475TIP3    H234841   0.408   0.557   4.470 -1.3960  1.2951  0.5853
 4476TIP3   OH234842   3.445   3.352   4.668 -0.2045  0.2777  0.0610
 4476TIP3    H134843   3.368   3.320   4.620 -0.9014  0.5511  0.9533
 4476TIP3    H234844   3.409   3.384   4.751  0.7042  1.6386 -0.0353
 4477TIP3   OH234845   6.104   4.273   5.251  0.6187 -0.2455  0.0296
 4477TIP3    H134846   6.167   4.310   5.188  0.2708  0.6734  0.2002
 4477TIP3    H234847   6.028   4.331   5.246 -0.0284 -1.0654  0.1831
 4478TIP3   OH234848   6.361   1.848   5.035 -0.4518  0.0550 -0.3105
 4478TIP3    H134849   6.325   1.901   4.963 -1.7775 -0.2214  0.1281
 4478TIP3    H234850   6.379   1.911   5.105  1.3515  0.4076 -1.0237
 4479TIP3   OH234851   3.475   4.858   1.425  0.0297  0.2911  0.5206
 4479TIP3    H134852   3.391   4.849   1.470  0.0983 -0.6464  0.4746
 4479TIP3    H234853   3.495   4.770   1.394  0.1409  0.8439 -1.0555
 4480TIP3   OH234854   6.545   3.668   3.635  1.0653 -0.6970 -0.1028
 4480TIP3    H134855   6.522   3.576   3.625  3.2192 -1.4150  0.9498
 4480TIP3    H234856   6.519   3.690   3.724  2.2607 -0.8393  0.2871
 4481TIP3   OH234857   2.124   2.576   2.266  0.2005 -0.0680 -0.3601
 4481TIP3    H134858   2.207   2.528   2.267 -0.0828 -0.5948  1.2591
 4481TIP3    H234859   2.150   2.669   2.268  0.7517 -0.2151 -0.5375
 4482TIP3   OH234860   0.161   2.597  13.172  0.1076  0.4919  0.2256
 4482TIP3    H134861   0.133   2.593  13.263  2.4883 -1.3493  0.9757
 4482TIP3    H234862   0.256   2.607  13.176  0.3385 -0.0821 -2.0492
 4483TIP3   OH234863   0.541   5.413   4.867 -0.1174 -0.5234  0.7776
 4483TIP3    H134864   0.542   5.375   4.956 -1.4275 -2.0897  0.1850
 4483TIP3    H234865   0.459   5.381   4.829 -0.0406  0.9206 -0.6811
 4484TIP3   OH234866   1.220   2.359  16.158  0.3446 -0.0489 -0.0003
 4484TIP3    H134867   1.298   2.377  16.107  0.4850  0.0623  0.2524
 4484TIP3    H234868   1.147   2.385  16.101  0.5047  0.2248 -0.0815
 4485TIP3   OH234869   5.557   6.131  15.573 -0.2653  0.5360  0.2959
 4485TIP3    H134870   5.595   6.213  15.605 -0.1876 -0.3749  2.6903
 4485TIP3    H234871   5.492   6.106  15.638 -0.6742 -1.0443 -0.6516
 4486TIP3   OH234872   2.547   5.161  11.851  0.1100 -0.2401 -0.0343
 4486TIP3    H134873   2.536   5.066  11.850  0.0288 -0.2393  0.5136
 4486TIP3    H234874   2.612   5.178  11.783  0.5899 -0.7523  0.2883
 4487TIP3   OH234875   4.628   0.718   3.777  0.0933 -0.5497 -0.7979
 4487TIP3    H134876   4.632   0.700   3.871  1.4598  0.5553 -0.6218
 4487TIP3    H234877   4.560   0.658   3.745 -0.1694 -1.1853  0.8229
 4488TIP3   OH234878   3.232   3.622   1.466 -0.0854 -0.0460 -0.3143
 4488TIP3    H134879   3.245   3.609   1.372  1.0041  0.6109 -0.2699
 4488TIP3    H234880   3.237   3.534   1.504  1.2160 -0.1506 -0.6826
 4489TIP3   OH234881   4.908   3.354   6.128 -0.4630 -0.3739 -0.0713
 4489TIP3    H134882   5.003   3.361   6.123 -0.4981 -0.5307 -1.1285
 4489TIP3    H234883   4.884   3.410   6.203  0.2950  1.2491 -0.9850
 4490TIP3   OH234884   6.684   3.751  13.092  0.3415  0.0279  0.7873
 4490TIP3    H134885   6.673   3.657  13.106 -0.4085  0.2321  1.6461
 4490TIP3    H234886   6.768   3.771  13.133  1.8117 -0.7013 -1.6755
 4491TIP3   OH234887   0.440   1.848  14.715  0.3981  0.6117  0.3858
 4491TIP3    H134888   0.479   1.933  14.733  0.6469  0.6746 -0.4123
 4491TIP3    H234889   0.413   1.852  14.623 -1.8455  0.7022  0.9865
 4492TIP3   OH234890   6.703   0.734   6.151  0.3726 -0.0431 -0.7249
 4492TIP3    H134891   6.744   0.674   6.213 -0.2543 -0.7354 -0.9689
 4492TIP3    H234892   6.643   0.679   6.100  0.6715  0.5612 -1.7589
 4493TIP3   OH234893   4.521   0.627   4.995  0.0162 -0.1581  0.1593
 4493TIP3    H134894   4.508   0.532   4.995 -0.8017 -0.0687  1.1189
 4493TIP3    H234895   4.611   0.639   5.026  0.7774 -0.6576 -1.7395
 4494TIP3   OH234896   4.590   1.361  12.232  0.1361  0.0130 -0.7457
 4494TIP3    H134897   4.537   1.290  12.196 -0.1533 -0.0164 -0.2738
 4494TIP3    H234898   4.660   1.317  12.279 -0.1854  0.0245 -0.2388
 4495TIP3   OH234899   5.753   5.126   0.641  0.2952  0.2579 -0.0941
 4495TIP3    H134900   5.827   5.066   0.637 -0.0029 -0.1268  0.0309
 4495TIP3    H234901   5.747   5.163   0.553 -0.5605 -1.1914 -0.6930
 4496TIP3   OH234902   3.689   4.289   6.532 -0.5935  0.1268 -0.2756
 4496TIP3    H134903   3.753   4.221   6.511 -1.9363 -1.2215 -0.1616
 4496TIP3    H234904   3.673   4.334   6.448  1.3275  1.2909 -0.0851
 4497TIP3   OH234905   5.318   4.468   4.781 -0.3015 -0.1002 -0.4678
 4497TIP3    H134906   5.227   4.493   4.800 -0.3461 -0.2275 -0.5115
 4497TIP3    H234907   5.365   4.551   4.774 -0.2993 -0.0482  0.1150
 4498TIP3   OH234908   6.393   0.114  11.032  0.1740  0.0327 -0.0386
 4498TIP3    H134909   6.309   0.126  10.987  0.0463  0.3799  0.2918
 4498TIP3    H234910   6.443   0.057  10.974 -0.3626 -0.3390 -0.1491
 4499TIP3   OH234911   0.397   1.551   1.168  0.4412 -0.2098 -0.1332
 4499TIP3    H134912   0.426   1.604   1.242 -0.5128 -2.4906  2.0123
 4499TIP3    H234913   0.315   1.592   1.140  0.5224  0.3604  0.4536
 4500TIP3   OH234914   3.721   0.420   3.390  0.2188  1.1823 -0.1019
 4500TIP3    H134915   3.627   0.437   3.395 -0.2330 -1.1105  0.1395
 4500TIP3    H234916   3.761   0.499   3.426 -1.6658  1.6332  1.1966
 4501TIP3   OH234917   1.868   6.254  17.137  0.2183  0.2901 -0.0165
 4501TIP3    H134918   1.866   6.158  17.134  0.2608  0.2729  0.4112
 4501TIP3    H234919   1.841   6.282  17.050  0.4998 -0.1160 -0.2336
 4502TIP3   OH234920   1.572   2.964  12.289 -0.6612 -0.2882  0.2354
 4502TIP3    H134921   1.613   3.025  12.350 -1.2268 -0.1375  0.4779
 4502TIP3    H234922   1.518   3.020  12.232 -0.0211 -0.4111 -0.5035
 4503TIP3   OH234923   2.384   3.947   1.486 -0.0018 -0.2223 -0.2721
 4503TIP3    H134924   2.312   4.009   1.477 -1.1198 -1.6506 -1.8401
 4503TIP3    H234925   2.412   3.956   1.577 -2.5571 -0.0134  0.5655
 4504TIP3   OH234926   1.637   6.364  17.269  0.2928  0.7099  0.4480
 4504TIP3    H134927   1.670   6.298  17.208 -1.4472 -0.7291  0.9866
 4504TIP3    H234928   1.620   6.440  17.214  1.6682  0.5025 -0.3119
 4505TIP3   OH234929   1.878   5.780  13.109 -0.4790 -0.5506 -0.1486
 4505TIP3    H134930   1.894   5.774  13.015  1.4026 -0.6620  0.1457
 4505TIP3    H234931   1.905   5.869  13.133  1.8820 -1.4433  0.7382
 4506TIP3   OH234932   4.047   3.724   3.424 -0.4514  0.0660 -0.1042
 4506TIP3    H134933   4.044   3.644   3.477  1.8512  0.3416  0.5253
 4506TIP3    H234934   4.089   3.789   3.481 -0.2066  1.0874 -1.4038
 4507TIP3   OH234935   3.199   3.251  10.484  0.2457  0.8095  0.5293
 4507TIP3    H134936   3.115   3.282  10.516 -0.4526  0.0299 -0.4768
 4507TIP3    H234937   3.179   3.208  10.401  1.6657  0.7853  0.1697
 4508TIP3   OH234938   2.311   6.138  16.283 -0.2946  0.2348  0.3829
 4508TIP3    H134939   2.390   6.102  16.243 -0.2562 -0.3764  0.9925
 4508TIP3    H234940   2.245   6.070  16.271  0.1283 -0.6943  2.7511
 4509TIP3   OH234941   4.657   0.019  12.172  0.1754 -0.5889 -0.1275
 4509TIP3    H134942   4.723   0.077  12.211  0.9050 -1.4958  0.0028
 4509TIP3    H234943   4.630  -0.039  12.243  0.9312 -1.7282 -0.7367
 4510TIP3   OH234944   1.536   2.271   0.687  0.5125 -0.1833  0.0701
 4510TIP3    H134945   1.616   2.271   0.739  0.7011  1.2838 -0.2024
 4510TIP3    H234946   1.521   2.178   0.666  0.6154 -0.8064  2.4328
 4511TIP3   OH234947   2.882   5.227   2.063 -1.1540 -0.6778  0.2140
 4511TIP3    H134948   2.972   5.230   2.033 -0.3488  1.7498  2.4602
 4511TIP3    H234949   2.834   5.279   1.998 -0.5559 -0.3158  0.0538
 4512TIP3   OH234950   0.261   0.312   4.277 -0.1698  0.0809  0.1082
 4512TIP3    H134951   0.286   0.223   4.302  2.0707  1.0513  1.7307
 4512TIP3    H234952   0.172   0.323   4.311  0.0553 -1.0971  1.1296
 4513TIP3   OH234953   3.112   6.627   1.011 -0.1142 -0.3114 -0.1265
 4513TIP3    H134954   3.128   6.559   0.946  1.2273  0.0315 -0.1737
 4513TIP3    H234955   3.086   6.579   1.090  0.1328 -0.8437 -0.3618
 4514TIP3   OH234956   4.016   2.695   1.127 -0.1894  0.6842  0.0264
 4514TIP3    H134957   3.932   2.680   1.084 -1.0757  1.8213  1.2849
 4514TIP3    H234958   4.043   2.609   1.157 -0.7495  0.2618 -0.6416
 4515TIP3   OH234959   3.517   3.341  11.625  0.0153 -0.8517 -0.5575
 4515TIP3    H134960   3.478   3.390  11.552  2.2998  2.9844  0.5001
 4515TIP3    H234961   3.460   3.265  11.636 -3.4752  1.1415 -2.9029
 4516TIP3   OH234962   3.932   1.364   4.129  0.2131 -0.0453 -0.2195
 4516TIP3    H134963   3.940   1.453   4.093 -0.0246  0.1993  0.3202
 4516TIP3    H234964   4.007   1.317   4.094 -0.2645  0.0483 -1.4315
 4517TIP3   OH234965   4.826   4.646  17.253  0.1887 -0.0404 -0.3494
 4517TIP3    H134966   4.791   4.658  17.165 -0.9725 -2.0274 -0.2290
 4517TIP3    H234967   4.882   4.568  17.246  1.8166  1.0223  0.2435
 4518TIP3   OH234968   3.774   6.035   5.968  0.4149  0.7903 -0.1379
 4518TIP3    H134969   3.790   6.044   6.062 -0.2881 -0.8068  0.1718
 4518TIP3    H234970   3.859   6.049   5.927  1.2608 -0.8566  0.9331
 4519TIP3   OH234971   3.365   6.432   1.120  0.3243  0.2382 -0.2091
 4519TIP3    H134972   3.340   6.412   1.210 -0.1908  1.1992 -0.1294
 4519TIP3    H234973   3.441   6.376   1.103  0.3552 -0.0296  0.7809
 4520TIP3   OH234974   1.926   3.326  11.817 -0.1187  0.0911  0.2394
 4520TIP3    H134975   1.866   3.265  11.775  0.3129  0.6468 -1.2631
 4520TIP3    H234976   1.993   3.343  11.750  0.6736  0.9159  1.2150
 4521TIP3   OH234977   3.753   0.707  15.389  0.6485  0.3253  0.5858
 4521TIP3    H134978   3.676   0.650  15.390  0.9024 -0.0270  2.6043
 4521TIP3    H234979   3.781   0.706  15.297 -1.2619 -0.1789 -0.0364
 4522TIP3   OH234980   3.453   3.981   1.692  0.7019 -0.2012 -0.0975
 4522TIP3    H134981   3.373   4.029   1.674  1.2221  0.5230 -0.5354
 4522TIP3    H234982   3.464   3.924   1.615  1.1134  0.4090 -0.5009
 4523TIP3   OH234983   4.628   0.842   0.480 -0.4138 -0.4836 -0.5870
 4523TIP3    H134984   4.719   0.825   0.455 -0.4186  0.9197 -1.6566
 4523TIP3    H234985   4.584   0.758   0.469  1.0959 -1.6869  1.7675
 4524TIP3   OH234986   5.970   0.130  13.467  0.2105 -0.0493 -0.3489
 4524TIP3    H134987   6.028   0.186  13.519 -0.7496 -0.2888  1.0492
 4524TIP3    H234988   5.967   0.047  13.516 -2.8650  0.5995  0.8032
 4525TIP3   OH234989   5.420   6.106   5.698  0.7090  0.6355 -0.9614
 4525TIP3    H134990   5.440   6.168   5.767 -0.0018 -0.8428  0.6613
 4525TIP3    H234991   5.460   6.024   5.727  1.1478  0.1628 -2.7618
 4526TIP3   OH234992   0.671   1.015  11.531  0.0316 -0.0962  0.3240
 4526TIP3    H134993   0.674   1.079  11.460  1.0734  1.1150  1.4090
 4526TIP3    H234994   0.762   0.989  11.543 -0.3178 -1.4382  0.2397
 4527TIP3   OH234995   6.218   2.568  16.395 -0.0887 -0.4586  0.7033
 4527TIP3    H134996   6.174   2.532  16.319  0.4446 -0.5505  0.4330
 4527TIP3    H234997   6.169   2.535  16.470 -0.6753 -0.2868  0.3962
 4528TIP3   OH234998   1.144   0.605  13.183 -0.2818  0.1487 -0.2976
 4528TIP3    H134999   1.188   0.689  13.179 -0.5458  0.4706  2.1693
 4528TIP3    H235000   1.091   0.602  13.103 -0.2991  2.3432 -0.4287
 4529TIP3   OH235001   5.885   2.075   5.138  0.1324  0.6952 -0.7421
 4529TIP3    H135002   5.974   2.072   5.175 -1.2859  0.7018  3.0861
 4529TIP3    H235003   5.874   1.988   5.098  1.6970  0.5530 -0.9631
 4530TIP3   OH235004   0.042   5.561  11.973 -0.4560  0.6117  0.0237
 4530TIP3    H135005   0.131   5.594  11.966 -0.1349 -0.3334 -0.5697
 4530TIP3    H235006  -0.001   5.591  11.893 -0.1979 -0.2738 -0.4586
 4531TIP3   OH235007   2.736   2.775   1.791  0.1776 -0.4749  0.0060
 4531TIP3    H135008   2.827   2.803   1.780  0.1730 -0.7197 -0.7934
 4531TIP3    H235009   2.704   2.823   1.867  0.4519  0.9403 -0.7403
 4532TIP3   OH235010   2.036   5.079  16.643  0.2810  0.1371 -0.3443
 4532TIP3    H135011   2.044   4.985  16.626 -1.4361 -0.2274  0.6143
 4532TIP3    H235012   2.053   5.087  16.737 -0.5601  0.6423 -0.2295
 4533TIP3   OH235013   3.931   6.255   5.593 -0.5068 -0.6463  0.6579
 4533TIP3    H135014   3.854   6.291   5.636 -0.3550  0.5847 -0.0661
 4533TIP3    H235015   3.896   6.189   5.533 -1.2524  1.3093 -1.1815
 4534TIP3   OH235016   1.107   3.739   2.638 -0.3066 -1.1058 -0.4070
 4534TIP3    H135017   1.130   3.795   2.564  0.1263 -1.3339 -0.4473
 4534TIP3    H235018   1.137   3.788   2.715 -1.5035 -0.4799 -0.3036
 4535TIP3   OH235019   0.525   1.400  12.253  0.1499  0.5387 -0.2550
 4535TIP3    H135020   0.594   1.338  12.279 -0.6685 -1.1934 -1.9651
 4535TIP3    H235021   0.572   1.475  12.217  1.2183 -0.8238 -1.8572
 4536TIP3   OH235022   4.640   0.394   4.361  0.3955 -0.0694 -0.0496
 4536TIP3    H135023   4.693   0.362   4.434  0.4661 -0.5158 -0.2948
 4536TIP3    H235024   4.616   0.483   4.386 -1.4715 -0.9694  1.5582
 4537TIP3   OH235025   1.872   0.782  13.174 -0.4348  0.4217 -0.1859
 4537TIP3    H135026   1.861   0.695  13.135  1.3771  0.2789 -0.4854
 4537TIP3    H235027   1.949   0.818  13.130 -0.2819  1.5835  0.9808
 4538TIP3   OH235028   5.085   2.323   0.723 -0.4080 -0.0000 -0.3951
 4538TIP3    H135029   5.009   2.367   0.682 -0.0185  0.6254 -0.4661
 4538TIP3    H235030   5.128   2.393   0.773 -0.5344 -0.6217  0.5983
 4539TIP3   OH235031   4.194   1.458  11.110 -0.5143 -0.1526 -0.6329
 4539TIP3    H135032   4.257   1.386  11.119 -0.7655 -0.4223 -0.9878
 4539TIP3    H235033   4.213   1.495  11.024 -0.6434 -0.0411 -0.6127
 4540TIP3   OH235034   3.345   3.201  13.037  0.4989  0.5326  0.3072
 4540TIP3    H135035   3.399   3.123  13.051  1.2288  0.8320 -0.7016
 4540TIP3    H235036   3.380   3.265  13.099  2.2015  1.1312 -1.1804
 4541TIP3   OH235037   6.345   5.346   5.989  0.0914  0.2992  0.7299
 4541TIP3    H135038   6.435   5.341   5.957  0.7848  0.7726  2.4872
 4541TIP3    H235039   6.353   5.365   6.082 -1.7961 -1.2933  1.3084
 4542TIP3   OH235040   2.237   0.257  12.868  0.4940  0.2672 -0.0095
 4542TIP3    H135041   2.236   0.219  12.956  0.3926 -0.4643 -0.3159
 4542TIP3    H235042   2.210   0.185  12.810  0.9766  0.6106 -0.6837
 4543TIP3   OH235043   0.497   5.281   1.569 -0.1554  0.1119 -0.0363
 4543TIP3    H135044   0.521   5.365   1.529  1.7979 -0.1970  0.4062
 4543TIP3    H235045   0.439   5.240   1.506  1.3246  0.4707 -1.6972
 4544TIP3   OH235046   0.353   3.799  17.138 -0.2671 -0.2080 -0.0974
 4544TIP3    H135047   0.413   3.725  17.129  1.3821  0.9319  0.7787
 4544TIP3    H235048   0.352   3.840  17.052 -2.1335 -1.8739 -0.9219
 4545TIP3   OH235049   3.662   6.344  15.670 -0.1700  0.2936 -0.1761
 4545TIP3    H135050   3.694   6.430  15.698  0.2237  0.0748  0.0619
 4545TIP3    H235051   3.740   6.299  15.637 -0.4194  0.1168 -0.5227
 4546TIP3   OH235052   4.468   2.918   0.333 -0.2782  0.7845  0.1608
 4546TIP3    H135053   4.545   2.964   0.369 -0.3383  1.7564 -0.8949
 4546TIP3    H235054   4.500   2.879   0.252 -0.7245  0.5414  0.1012
 4547TIP3   OH235055   0.241   6.391  12.734 -0.2548 -0.2553 -0.2160
 4547TIP3    H135056   0.243   6.386  12.830 -0.1918  2.0680 -0.0437
 4547TIP3    H235057   0.150   6.409  12.712 -0.0510  0.4321 -0.5072
 4548TIP3   OH235058   5.910   1.411  16.529 -0.2033  0.3545  0.1006
 4548TIP3    H135059   5.903   1.354  16.606  0.8948  1.0560  0.7397
 4548TIP3    H235060   5.989   1.463  16.545  1.0132 -0.6314 -2.2572
 4549TIP3   OH235061   1.994   6.162  14.743  0.5067 -0.5525 -0.3173
 4549TIP3    H135062   2.051   6.120  14.807  0.5286 -1.0260 -0.6467
 4549TIP3    H235063   2.020   6.254  14.745 -0.4057 -0.2773  1.3442
 4550TIP3   OH235064   1.066   4.636   6.717  0.2423  0.2276  0.1764
 4550TIP3    H135065   1.036   4.568   6.657  0.2342 -1.6285  2.1490
 4550TIP3    H235066   1.130   4.685   6.667 -0.5177 -0.5493 -1.6715
 4551TIP3   OH235067   1.768   5.504  14.687 -0.0853  0.0921 -0.0709
 4551TIP3    H135068   1.839   5.448  14.719  0.0821  0.0278 -0.5438
 4551TIP3    H235069   1.688   5.454  14.707 -0.0869  0.6211  1.3950
 4552TIP3   OH235070   2.363   0.649  12.411 -0.3868  0.4059 -0.4325
 4552TIP3    H135071   2.398   0.591  12.478 -0.2374  2.2223  1.1528
 4552TIP3    H235072   2.302   0.595  12.361  0.7537 -1.4431  0.0798
 4553TIP3   OH235073   3.943   0.912   2.601 -0.1131  0.1856  0.8457
 4553TIP3    H135074   3.925   0.821   2.625 -0.1184  0.1711  0.7871
 4553TIP3    H235075   4.003   0.943   2.668 -1.7014  0.7725  2.0712
 4554TIP3   OH235076   2.616   2.761   0.385  0.6826 -0.5727 -0.1133
 4554TIP3    H135077   2.605   2.820   0.310 -0.6907  2.5449  2.2617
 4554TIP3    H235078   2.551   2.692   0.372  1.1252 -0.6525 -2.1890
 4555TIP3   OH235079   0.278   2.083   0.196 -0.4854  0.0290 -0.1313
 4555TIP3    H135080   0.344   2.018   0.172  0.8709  1.2213  0.2290
 4555TIP3    H235081   0.262   2.068   0.289  1.7078  1.7114  0.6201
 4556TIP3   OH235082   1.532   1.442   4.799  0.6656 -0.6437  0.2474
 4556TIP3    H135083   1.610   1.417   4.749  1.3627  2.4097 -0.3926
 4556TIP3    H235084   1.462   1.447   4.734  0.1628 -2.2346  0.6255
 4557TIP3   OH235085   6.232   4.570   5.799  0.3710 -0.0023 -0.2037
 4557TIP3    H135086   6.176   4.577   5.877 -0.3981  0.8192 -0.8086
 4557TIP3    H235087   6.309   4.622   5.820  1.4114 -1.8880  1.0048
 4558TIP3   OH235088   2.996   5.816  12.493 -0.5768 -0.2969 -0.2968
 4558TIP3    H135089   3.074   5.860  12.527  0.2423 -1.1956 -0.9559
 4558TIP3    H235090   2.927   5.839  12.555  0.2372  0.4105  0.3765
 4559TIP3   OH235091   6.127   0.210   3.189 -0.5796  0.5721  0.7192
 4559TIP3    H135092   6.174   0.268   3.249  0.7616  0.3541 -0.0878
 4559TIP3    H235093   6.151   0.122   3.217 -1.3848  0.4235  0.9727
 4560TIP3   OH235094   3.250   5.316  11.368 -0.5974  0.0128  0.0876
 4560TIP3    H135095   3.169   5.288  11.411 -1.1389 -1.2567 -1.6501
 4560TIP3    H235096   3.221   5.374  11.298  0.1607  1.0127  0.5856
 4561TIP3   OH235097   1.049   6.009   5.760 -0.4099  0.1463 -0.4769
 4561TIP3    H135098   0.986   5.980   5.827 -2.2411 -0.7109 -2.4364
 4561TIP3    H235099   1.017   6.095   5.732  1.5047  1.4314  1.0623
 4562TIP3   OH235100   4.293   4.039  13.004  0.1935  0.4766 -0.0574
 4562TIP3    H135101   4.235   4.098  12.956 -1.0992 -3.3220 -3.7837
 4562TIP3    H235102   4.246   3.955  13.004  1.9718 -0.8276  4.6573
 4563TIP3   OH235103   5.336   4.205  12.804 -0.6002 -0.4822  0.9520
 4563TIP3    H135104   5.332   4.210  12.899 -1.5459 -1.1402  0.9598
 4563TIP3    H235105   5.416   4.155  12.786 -0.1783  0.0208  1.3662
 4564TIP3   OH235106   3.831   2.520   5.885 -0.8695  0.1220  0.9763
 4564TIP3    H135107   3.765   2.581   5.919 -1.9613 -0.3537 -0.1873
 4564TIP3    H235108   3.914   2.555   5.916 -1.5237  1.7564  0.9974
 4565TIP3   OH235109   3.558   3.563   1.315 -0.0511 -0.3461  0.1702
 4565TIP3    H135110   3.520   3.495   1.260 -0.7755  1.5076 -1.7697
 4565TIP3    H235111   3.641   3.584   1.272 -1.2559  2.0915 -1.1942
 4566TIP3   OH235112   2.091   0.786   2.985  1.1322  0.2482 -0.1275
 4566TIP3    H135113   2.049   0.786   3.071  0.7325 -0.4406 -0.3205
 4566TIP3    H235114   2.019   0.798   2.924  1.4857  1.4463 -0.3500
 4567TIP3   OH235115   0.499   5.486  11.100 -0.1980  0.4142  0.1774
 4567TIP3    H135116   0.553   5.475  11.177 -0.8868  1.8463  0.9034
 4567TIP3    H235117   0.460   5.573  11.110  0.9907  1.3925 -2.5806
 4568TIP3   OH235118   2.945   4.706  14.776 -0.1133 -0.0492 -0.2097
 4568TIP3    H135119   2.988   4.774  14.827 -2.2104  0.3961  1.0997
 4568TIP3    H235120   2.934   4.745  14.689 -1.0289  1.2386  0.4418
 4569TIP3   OH235121   6.666   0.825   2.706  0.1861 -0.3786 -0.2010
 4569TIP3    H135122   6.687   0.771   2.783 -2.5008 -0.5140  0.5343
 4569TIP3    H235123   6.668   0.763   2.633  2.6824 -0.2648 -0.3204
 4570TIP3   OH235124   0.575   1.521  11.982 -0.7939 -0.1043  0.0544
 4570TIP3    H135125   0.592   1.597  11.926 -0.7672 -0.6813 -0.7255
 4570TIP3    H235126   0.489   1.488  11.953 -0.6102 -0.6266  0.0966
 4571TIP3   OH235127   3.388   6.495  15.793  0.5135 -0.0999  0.2801
 4571TIP3    H135128   3.416   6.563  15.853 -0.3040 -0.2260  0.8259
 4571TIP3    H235129   3.467   6.445  15.774  1.2225  1.2776 -0.5125
 4572TIP3   OH235130   0.192   0.547  16.852 -0.6104 -0.2523  0.5056
 4572TIP3    H135131   0.237   0.535  16.768 -1.7033  0.5179 -0.2257
 4572TIP3    H235132   0.261   0.571  16.913  0.1474 -0.3548 -0.2945
 4573TIP3   OH235133   6.544   0.564  12.209 -0.2294 -0.5392  0.4190
 4573TIP3    H135134   6.476   0.530  12.151 -0.7624 -0.0796  0.7584
 4573TIP3    H235135   6.509   0.648  12.240  1.0247  0.2885 -0.3412
 4574TIP3   OH235136   6.642   4.882   4.815 -0.2849 -0.4089  0.6240
 4574TIP3    H135137   6.687   4.895   4.731  1.7049 -0.9041  1.5500
 4574TIP3    H235138   6.555   4.918   4.801  0.7106  1.5892 -0.9770
 4575TIP3   OH235139   3.582   6.629   1.072  0.0236  0.3193  0.4793
 4575TIP3    H135140   3.542   6.715   1.063  1.7364  1.4524  2.8208
 4575TIP3    H235141   3.520   6.570   1.029 -2.3141  2.4150  0.7156
 4576TIP3   OH235142   6.395   0.001  11.585  0.2096  0.0351  0.3362
 4576TIP3    H135143   6.366  -0.043  11.664  0.0165  0.1836  0.3488
 4576TIP3    H235144   6.408   0.092  11.611 -5.1300  1.4833 -0.9294
 4577TIP3   OH235145   2.454   3.755   1.895 -0.2265 -0.0536 -0.4225
 4577TIP3    H135146   2.455   3.848   1.874 -2.4835  0.3761  1.0982
 4577TIP3    H235147   2.467   3.751   1.990 -1.4946 -1.1805 -0.2718
 4578TIP3   OH235148   6.243   6.341   2.074 -0.2886  0.0612  0.0004
 4578TIP3    H135149   6.200   6.359   2.157  0.5364 -0.8053  0.6360
 4578TIP3    H235150   6.333   6.318   2.098  0.9123  2.8152 -1.3408
 4579TIP3   OH235151   2.756   0.263  15.775  0.3230 -0.1728  0.0073
 4579TIP3    H135152   2.777   0.343  15.726  1.3928 -0.9295 -0.8134
 4579TIP3    H235153   2.681   0.226  15.728  0.0824  0.1238  0.1471
 4580TIP3   OH235154   3.371   1.717   4.714 -0.1214 -0.1056  0.3699
 4580TIP3    H135155   3.399   1.689   4.627  0.1297 -1.2458  0.7984
 4580TIP3    H235156   3.295   1.663   4.733 -2.0639  2.2117 -0.3370
 4581TIP3   OH235157   1.139   6.576  16.972  0.3975  0.1840 -0.1107
 4581TIP3    H135158   1.061   6.612  17.016  0.8552  1.1539 -0.0469
 4581TIP3    H235159   1.193   6.542  17.044  1.2339  1.9443  0.1618
 4582TIP3   OH235160   3.060   2.877   4.936  0.4454 -0.4328 -0.5764
 4582TIP3    H135161   3.071   2.913   4.848  0.0112 -1.3118 -1.0045
 4582TIP3    H235162   3.149   2.863   4.967  0.6838  1.8762  0.0072
 4583TIP3   OH235163   5.004   4.508   0.552  0.6827  0.0402 -0.5035
 4583TIP3    H135164   4.927   4.473   0.596  1.1217  0.5216  0.6771
 4583TIP3    H235165   4.989   4.489   0.459 -1.4329  1.2108 -0.4662
 4584TIP3   OH235166   0.386   0.703  11.379 -0.1938 -0.1265  0.1620
 4584TIP3    H135167   0.312   0.656  11.418  0.0101 -0.7729 -0.2064
 4584TIP3    H235168   0.457   0.692  11.443 -0.1672 -0.2659  0.1101
 4585TIP3   OH235169   1.589   5.148   4.051  0.6021 -0.2577 -0.1639
 4585TIP3    H135170   1.516   5.194   4.010 -1.3072 -2.2403  0.8597
 4585TIP3    H235171   1.587   5.177   4.142  3.6697  2.6949 -0.8276
 4586TIP3   OH235172   4.599   4.826   5.154 -0.3061  0.6392 -0.5114
 4586TIP3    H135173   4.618   4.874   5.235 -0.1902 -1.4758  0.7986
 4586TIP3    H235174   4.683   4.822   5.108  1.0646 -2.5983  1.8671
 4587TIP3   OH235175   3.502   5.936  15.266 -0.0630  0.3779 -0.3757
 4587TIP3    H135176   3.518   5.853  15.312 -0.8957  0.1512 -0.4862
 4587TIP3    H235177   3.454   5.990  15.328  1.0238  1.0297 -0.0757
 4588TIP3   OH235178   5.349   0.951  14.997  0.2139 -0.3740  0.2767
 4588TIP3    H135179   5.431   0.904  15.016  1.2047  0.5931 -1.4086
 4588TIP3    H235180   5.336   1.007  15.073  0.1394 -1.8169  1.3685
 4589TIP3   OH235181   4.885   0.418  12.129  0.1140 -0.4259  0.1209
 4589TIP3    H135182   4.921   0.344  12.079 -0.1612 -1.1623  0.9944
 4589TIP3    H235183   4.791   0.415  12.111  0.4477  2.1660 -3.0603
 4590TIP3   OH235184   2.970   6.150   5.627 -0.2860  0.0969 -0.1211
 4590TIP3    H135185   3.051   6.133   5.578  0.1071 -0.1550  0.5927
 4590TIP3    H235186   2.981   6.099   5.707 -1.6491 -0.8545 -0.5135
 4591TIP3   OH235187   2.891   2.626  16.448  0.4500  0.1793  0.2863
 4591TIP3    H135188   2.818   2.641  16.508  0.3064 -0.7901  0.3709
 4591TIP3    H235189   2.856   2.564  16.383  1.5474 -1.3038  1.0461
 4592TIP3   OH235190   2.827   5.411  10.547 -0.4693  0.2347 -0.2438
 4592TIP3    H135191   2.875   5.483  10.508  0.5922 -0.3750 -0.0892
 4592TIP3    H235192   2.786   5.449  10.625 -0.2476  0.7568 -0.3769
 4593TIP3   OH235193   4.845   4.928  16.516 -0.8565 -0.0785 -0.1145
 4593TIP3    H135194   4.806   4.967  16.438 -0.4307  0.3474 -0.1165
 4593TIP3    H235195   4.857   4.836  16.493 -2.7193 -0.4513  0.2085
 4594TIP3   OH235196   5.670   6.124   2.238  0.0065 -0.2044  0.4383
 4594TIP3    H135197   5.676   6.215   2.209 -0.7344  0.1718  1.3795
 4594TIP3    H235198   5.755   6.105   2.277  0.0498  0.2038  0.5420
 4595TIP3   OH235199   1.234   0.470   5.139  0.5360 -0.2108 -0.2253
 4595TIP3    H135200   1.277   0.403   5.190  0.6298  0.6003  0.7867
 4595TIP3    H235201   1.305   0.526   5.108  0.3232  0.4302  0.4258
 4596TIP3   OH235202   5.836   3.633  13.165 -0.1346  0.4808 -0.6854
 4596TIP3    H135203   5.893   3.557  13.160  0.2425  0.6571  0.4861
 4596TIP3    H235204   5.758   3.602  13.211 -1.1350  0.1725 -2.5218
 4597TIP3   OH235205   3.691   0.393   5.434  0.3631 -0.3472  0.4576
 4597TIP3    H135206   3.749   0.464   5.406  0.0873 -0.0798  0.5583
 4597TIP3    H235207   3.604   0.433   5.437  0.1968 -0.7062  0.4561
 4598TIP3   OH235208   0.819   5.525  15.509  0.1246 -0.0640 -0.0228
 4598TIP3    H135209   0.888   5.459  15.509 -0.0303 -0.2554  1.6579
 4598TIP3    H235210   0.763   5.500  15.435 -0.3665 -2.3082  1.0099
 4599TIP3   OH235211   6.587   2.495   6.124 -0.6846  0.4053  0.0416
 4599TIP3    H135212   6.572   2.570   6.066 -0.7888  0.2464 -0.1415
 4599TIP3    H235213   6.521   2.431   6.097 -0.3952  0.1295 -0.0102
 4600TIP3   OH235214   3.287   6.299  11.621 -0.2434 -0.2982  0.0879
 4600TIP3    H135215   3.281   6.385  11.581  1.6425 -0.4130 -0.5502
 4600TIP3    H235216   3.211   6.293  11.679 -0.1343  1.9715  0.5247
 4601TIP3   OH235217   2.951   6.249  14.622 -0.7449 -0.5100  0.1861
 4601TIP3    H135218   2.985   6.312  14.684  0.8042 -0.1494 -0.9753
 4601TIP3    H235219   2.985   6.165  14.651  1.0141 -0.1870 -0.8087
 4602TIP3   OH235220   4.259   4.585   4.770  0.0429 -0.2652  0.2836
 4602TIP3    H135221   4.247   4.566   4.863 -3.5817  0.2385  0.0740
 4602TIP3    H235222   4.225   4.507   4.725 -0.9248  0.6221 -0.5702
 4603TIP3   OH235223   6.332   1.867   3.981  0.7761 -0.7241  0.2067
 4603TIP3    H135224   6.364   1.925   3.912 -0.2673  1.0206  1.1075
 4603TIP3    H235225   6.237   1.867   3.970  0.7954 -3.5134 -0.6695
 4604TIP3   OH235226   4.882   2.662  11.007 -0.2076 -0.2864 -0.1633
 4604TIP3    H135227   4.839   2.592  10.958  0.2200  0.9554 -2.4316
 4604TIP3    H235228   4.865   2.741  10.956  0.9751  0.9576  1.2839
 4605TIP3   OH235229   5.392   5.857  14.970  0.3175 -0.5437 -0.1348
 4605TIP3    H135230   5.422   5.783  15.023  0.0428  0.1531  1.0312
 4605TIP3    H235231   5.297   5.848  14.967  0.0802  0.7360  1.6091
 4606TIP3   OH235232   3.026   1.335   5.917  0.1537 -0.0310  0.4019
 4606TIP3    H135233   2.989   1.406   5.971  0.5010  0.9896 -0.6664
 4606TIP3    H235234   3.099   1.375   5.871  0.5143 -1.1610 -0.0477
 4607TIP3   OH235235   5.413   4.569   4.479  0.2722 -0.4521 -0.5595
 4607TIP3    H135236   5.430   4.598   4.569  4.8300 -0.4056 -1.2062
 4607TIP3    H235237   5.406   4.650   4.429  0.2569 -0.4826 -0.6065
 4608TIP3   OH235238   2.433   4.609   3.062  0.5544 -0.7409  0.5393
 4608TIP3    H135239   2.352   4.654   3.037  2.0021  1.9756  0.3976
 4608TIP3    H235240   2.424   4.595   3.157 -0.1691 -0.7000  0.4854
 4609TIP3   OH235241   3.619   2.387   4.799  0.0391  0.0681  0.1630
 4609TIP3    H135242   3.555   2.423   4.737 -1.0070 -1.5694  0.2186
 4609TIP3    H235243   3.686   2.454   4.807 -0.1189  0.5840 -2.2502
 4610TIP3   OH235244   4.444   5.050   6.237 -0.3090 -0.2730  0.3504
 4610TIP3    H135245   4.463   4.959   6.212  0.4891  0.2120 -0.9293
 4610TIP3    H235246   4.531   5.090   6.247 -0.5401  1.1433 -2.3329
 4611TIP3   OH235247   2.394   0.805   0.813 -0.4552  0.0398 -0.4041
 4611TIP3    H135248   2.324   0.869   0.802 -0.4913 -0.2893 -2.3995
 4611TIP3    H235249   2.395   0.756   0.731 -0.4165 -2.5271  1.0034
 4612TIP3   OH235250   4.866   5.364   1.120 -0.3902  0.1159 -0.1581
 4612TIP3    H135251   4.840   5.272   1.120  0.5705 -0.1791  0.9446
 4612TIP3    H235252   4.884   5.384   1.028  2.0926 -1.6274 -0.1618
 4613TIP3   OH235253   0.182   2.714  13.820  0.4767  0.7770 -0.5375
 4613TIP3    H135254   0.108   2.689  13.875  0.4576  3.2249  0.6889
 4613TIP3    H235255   0.213   2.631  13.783 -0.2800 -0.8727  2.1945
 4614TIP3   OH235256   5.822   6.278   4.049 -0.3535  0.5402 -0.1905
 4614TIP3    H135257   5.896   6.284   3.989  1.4267  0.5409  1.8663
 4614TIP3    H235258   5.846   6.336   4.122 -2.0268 -0.0579  0.8932
 4615TIP3   OH235259   3.198   5.504  15.288  0.1911 -0.0134  0.6967
 4615TIP3    H135260   3.146   5.579  15.259  2.4217  1.4667  0.2646
 4615TIP3    H235261   3.238   5.533  15.370 -1.4020 -2.0019  2.3242
 4616TIP3   OH235262   2.897   0.774  13.605  0.4006  0.5418 -0.1062
 4616TIP3    H135263   2.961   0.829  13.651 -1.7737  2.4395  0.8939
 4616TIP3    H235264   2.887   0.697  13.661  0.4619  1.1188  0.7231
 4617TIP3   OH235265   2.839   6.038  15.845 -0.0753  0.0272  0.3956
 4617TIP3    H135266   2.826   6.105  15.779  0.9963  0.6710  0.8230
 4617TIP3    H235267   2.922   5.997  15.823 -0.5575 -0.9687  0.3260
 4618TIP3   OH235268   5.817   3.610   0.934  0.1285 -0.0867  0.0826
 4618TIP3    H135269   5.794   3.668   0.862  1.6743  0.5687  0.0815
 4618TIP3    H235270   5.913   3.616   0.940  0.0794 -0.5582  1.8146
 4619TIP3   OH235271   0.426   3.088   1.631  0.2876  0.4420 -0.0339
 4619TIP3    H135272   0.347   3.081   1.576 -1.5030 -2.0158  2.5672
 4619TIP3    H235273   0.496   3.053   1.576 -1.2683 -1.1841 -1.1060
 4620TIP3   OH235274   2.494   0.163   1.778  0.4441  0.1991 -0.1264
 4620TIP3    H135275   2.469   0.091   1.836 -0.6322  0.5668 -0.0950
 4620TIP3    H235276   2.572   0.201   1.818 -0.6855  0.9026  1.5318
 4621TIP3   OH235277   0.945   2.130   4.248 -0.0908 -0.2985 -0.0609
 4621TIP3    H135278   1.026   2.125   4.198 -0.4072  0.6769 -0.7122
 4621TIP3    H235279   0.955   2.065   4.317  1.4852  0.1799  0.2057
 4622TIP3   OH235280   3.931   2.745  14.178 -0.0110  0.1703  0.1793
 4622TIP3    H135281   3.842   2.771  14.154 -0.5443 -0.6453  1.1998
 4622TIP3    H235282   3.974   2.826  14.205 -0.6541  0.4620  0.3333
 4623TIP3   OH235283   3.902   3.421  15.690  0.1776 -0.7452  0.5934
 4623TIP3    H135284   3.947   3.444  15.609  0.2612  0.0468  0.8558
 4623TIP3    H235285   3.947   3.470  15.758  0.6307 -2.0312  1.2562
 4624TIP3   OH235286   1.854   5.159   5.723  0.2820 -0.3084 -0.7585
 4624TIP3    H135287   1.934   5.211   5.717  1.2802 -1.6238  0.2816
 4624TIP3    H235288   1.847   5.137   5.816 -0.7396 -1.0325 -0.9887
 4625TIP3   OH235289   6.289   3.986  14.585  0.2955 -0.5887 -0.5017
 4625TIP3    H135290   6.340   3.971  14.506  0.6022 -0.0570 -0.4082
 4625TIP3    H235291   6.312   4.075  14.613 -2.4642  0.6829 -1.8186
 4626TIP3   OH235292   3.584   2.813  15.594 -0.0347  0.3366 -0.3444
 4626TIP3    H135293   3.545   2.729  15.567  0.3304 -0.1879  0.6878
 4626TIP3    H235294   3.535   2.837  15.673 -0.3852  1.3050 -0.8392
 4627TIP3   OH235295   0.413   5.158   6.925 -0.1558  0.1874 -0.3926
 4627TIP3    H135296   0.360   5.168   6.846 -1.5713  1.5801  0.6737
 4627TIP3    H235297   0.498   5.198   6.901 -0.1193 -0.5548 -1.5813
 4628TIP3   OH235298   2.241   0.522  14.659 -0.5707 -0.0169  0.0725
 4628TIP3    H135299   2.154   0.527  14.620 -0.5223  0.2760 -0.0013
 4628TIP3    H235300   2.287   0.457  14.606 -1.2730 -1.4535  1.1625
 4629TIP3   OH235301   6.272   0.302  11.214 -0.1285  0.2636 -0.0520
 4629TIP3    H135302   6.228   0.218  11.227 -0.1179  0.6226  2.8878
 4629TIP3    H235303   6.333   0.285  11.142 -3.5297 -0.7837 -2.9747
 4630TIP3   OH235304   1.616   2.801   0.663  0.0953  1.2498  0.3722
 4630TIP3    H135305   1.563   2.859   0.718 -0.3983  0.9089  0.2573
 4630TIP3    H235306   1.562   2.723   0.650  0.8212  0.6748  0.6789
 4631TIP3   OH235307   0.091   1.178   0.277  0.7394  0.1738  1.0916
 4631TIP3    H135308   0.128   1.177   0.365  1.7564 -0.1669  0.6738
 4631TIP3    H235309   0.082   1.271   0.256  3.0113  0.3487  0.5612
 4632TIP3   OH235310   0.363   5.777   2.723  0.1152 -0.5599  0.1136
 4632TIP3    H135311   0.417   5.730   2.786  0.2477  1.3528  1.5160
 4632TIP3    H235312   0.359   5.720   2.647  2.2852 -1.7090  0.7940
 4633TIP3   OH235313   3.461   0.704  14.435 -0.1602  0.9067  0.0089
 4633TIP3    H135314   3.535   0.655  14.471  0.5730  0.9465 -1.3713
 4633TIP3    H235315   3.394   0.637  14.420  0.2782  0.5590 -0.4475
 4634TIP3   OH235316   3.416   0.197   1.358  0.1422 -0.1228 -0.7322
 4634TIP3    H135317   3.354   0.205   1.430 -0.6638 -1.9360 -1.1694
 4634TIP3    H235318   3.476   0.271   1.369 -0.8974  0.5247  0.8608
 4635TIP3   OH235319   1.993   4.566  16.467 -0.1625  0.0720 -0.0626
 4635TIP3    H135320   2.020   4.475  16.481 -0.4831 -0.0585 -0.2855
 4635TIP3    H235321   1.902   4.560  16.437 -0.1344  0.4600 -0.2285
 4636TIP3   OH235322   1.110   4.866   0.253 -0.5241  0.3599 -0.1903
 4636TIP3    H135323   1.072   4.887   0.168  1.7024  0.3722 -1.2690
 4636TIP3    H235324   1.204   4.880   0.241 -0.1533  0.4880  2.3316
 4637TIP3   OH235325   3.215   3.999  11.930 -0.1167 -0.0230 -0.1580
 4637TIP3    H135326   3.124   3.972  11.945  0.3307 -3.0660 -1.9578
 4637TIP3    H235327   3.264   3.962  12.003 -0.0528 -0.4107 -0.3932
 4638TIP3   OH235328   3.545   2.287   5.634  0.2488 -0.2253 -0.2476
 4638TIP3    H135329   3.489   2.298   5.710 -0.9664 -2.4394 -0.7324
 4638TIP3    H235330   3.496   2.327   5.562  0.9893  1.0641 -0.0657
 4639TIP3   OH235331   3.566   4.562   1.469 -0.2516  0.2375 -0.1486
 4639TIP3    H135332   3.505   4.496   1.501  0.1314 -0.0737 -0.0527
 4639TIP3    H235333   3.597   4.607   1.548  1.0035 -0.8015 -0.0290
 4640TIP3   OH235334   2.428   1.941  15.233  0.6789 -0.0521 -0.2889
 4640TIP3    H135335   2.514   1.966  15.266  1.3186 -1.6346 -0.6918
 4640TIP3    H235336   2.443   1.860  15.185 -0.8846  0.1505 -1.1881
 4641TIP3   OH235337   1.512   4.247   0.190  0.2639 -0.0294  0.6277
 4641TIP3    H135338   1.467   4.268   0.108  2.7300 -0.5305 -0.9773
 4641TIP3    H235339   1.508   4.328   0.241 -1.0355  0.4044 -0.1043
 4642TIP3   OH235340   2.814   3.653  12.753 -0.1323 -0.3524  0.2279
 4642TIP3    H135341   2.833   3.710  12.827 -1.0450 -1.1895  1.1431
 4642TIP3    H235342   2.775   3.575  12.793  0.8160 -1.4961 -1.0026
 4643TIP3   OH235343   6.417   2.038   6.325 -0.1088 -0.0324  0.2215
 4643TIP3    H135344   6.465   2.090   6.390 -2.4464  1.8408  0.5977
 4643TIP3    H235345   6.365   1.977   6.377  0.0011 -0.3608 -0.0491
 4644TIP3   OH235346   5.555   4.959  12.693 -0.1522 -0.5625  0.3135
 4644TIP3    H135347   5.598   5.042  12.711 -0.9512  0.0131 -0.3787
 4644TIP3    H235348   5.484   4.981  12.632 -0.5593 -1.6985  0.3548
 4645TIP3   OH235349   1.560   2.121  11.199  0.0897 -0.5137 -0.0749
 4645TIP3    H135350   1.635   2.161  11.156  2.1540 -3.0866  0.8207
 4645TIP3    H235351   1.493   2.113  11.131  0.5776  1.8023 -0.9023
 4646TIP3   OH235352   5.531   4.209  15.225  0.0982  0.6377  0.7885
 4646TIP3    H135353   5.462   4.169  15.277  1.0306 -0.4729  1.2331
 4646TIP3    H235354   5.529   4.162  15.142  0.4249  0.4879  0.8647
 4647TIP3   OH235355   0.276   0.863  11.080  0.7329  0.1716  0.0214
 4647TIP3    H135356   0.275   0.790  11.018 -0.9546 -0.2643  0.5026
 4647TIP3    H235357   0.313   0.826  11.160  1.6914  0.3869 -0.3096
 4648TIP3   OH235358   3.833   5.687   6.629  0.1567  0.1499  0.2820
 4648TIP3    H135359   3.817   5.609   6.577 -0.1554  0.4040 -0.0080
 4648TIP3    H235360   3.914   5.669   6.676  0.1471 -0.2975  0.1235
 4649TIP3   OH235361   1.958   6.363   6.850  0.0375 -0.3474 -0.3722
 4649TIP3    H135362   2.023   6.347   6.918 -1.7067  0.5037  1.6240
 4649TIP3    H235363   2.006   6.409   6.781  1.4009  1.0289  1.3911
 4650TIP3   OH235364   2.910   3.198   4.817 -0.1289  0.5881 -0.2584
 4650TIP3    H135365   2.898   3.147   4.897  0.4060  0.0847 -0.4971
 4650TIP3    H235366   2.888   3.288   4.842  1.6428  0.7334  0.8879
 4651TIP3   OH235367   2.409   5.817   3.762 -0.3527 -0.0898  0.7789
 4651TIP3    H135368   2.489   5.856   3.797 -1.5418  1.9618  1.3636
 4651TIP3    H235369   2.341   5.881   3.781 -2.7255 -2.9516  2.9300
 4652TIP3   OH235370   5.358   2.422   5.664  0.2409 -0.3207  0.1507
 4652TIP3    H135371   5.421   2.350   5.660 -0.7326 -1.2232  0.7050
 4652TIP3    H235372   5.385   2.473   5.740  0.3143 -0.6943  0.3777
 4653TIP3   OH235373   5.201   5.344   0.680  0.2090  0.1596 -0.6725
 4653TIP3    H135374   5.231   5.264   0.723 -1.6637 -0.8940 -1.2088
 4653TIP3    H235375   5.261   5.356   0.606  0.5517 -0.6959 -0.5389
 4654TIP3   OH235376   2.603   0.750   5.362  0.0393 -0.1910  0.0660
 4654TIP3    H135377   2.514   0.764   5.394  0.2127 -0.6508  0.7577
 4654TIP3    H235378   2.637   0.838   5.346 -0.8131 -0.0262 -1.0027
 4655TIP3   OH235379   0.415   4.398  10.711 -0.2081 -0.0390 -0.1691
 4655TIP3    H135380   0.488   4.399  10.648 -1.1661 -1.7737 -1.3865
 4655TIP3    H235381   0.343   4.442  10.665 -0.9282 -1.3588 -0.3493
 4656TIP3   OH235382   5.691   4.921  14.200 -0.0689 -0.1744  0.2083
 4656TIP3    H135383   5.690   4.830  14.231  0.6146 -0.2010  0.1736
 4656TIP3    H235384   5.642   4.919  14.117  1.6876 -0.9305 -0.8690
 4657TIP3   OH235385   2.157   5.609  13.081  0.4711 -0.0727 -0.2457
 4657TIP3    H135386   2.107   5.688  13.103 -0.4770 -0.5946 -0.4689
 4657TIP3    H235387   2.147   5.599  12.987 -1.0338 -1.4742 -0.0049
 4658TIP3   OH235388   4.388   2.668  13.857  0.2827  0.3822  0.3370
 4658TIP3    H135389   4.415   2.745  13.906  2.1328 -0.8230  1.2965
 4658TIP3    H235390   4.354   2.608  13.923  0.5140 -0.3236 -0.1789
 4659TIP3   OH235391   1.087   4.380  13.866 -0.5747 -0.3204 -0.2299
 4659TIP3    H135392   1.133   4.463  13.872 -1.5440  0.2452 -0.3775
 4659TIP3    H235393   1.021   4.384  13.935 -0.7881 -0.8620 -0.3963
 4660TIP3   OH235394   2.445   4.691  15.866  0.0417 -0.5058 -0.4069
 4660TIP3    H135395   2.514   4.729  15.813  0.3210  0.9907  0.9526
 4660TIP3    H235396   2.451   4.597  15.849  0.4537 -0.1334 -2.5546
 4661TIP3   OH235397   6.533   6.362  14.545  0.2829  0.3033  0.3553
 4661TIP3    H135398   6.451   6.394  14.584  0.5443 -1.1939  2.2696
 4661TIP3    H235399   6.537   6.404  14.459 -1.5470  1.8732  0.9845
 4662TIP3   OH235400   6.071   0.514  17.302 -0.0126 -0.2137 -0.3046
 4662TIP3    H135401   6.123   0.570  17.360 -0.0839 -0.8490  0.3888
 4662TIP3    H235402   5.980   0.529  17.330 -0.0314 -0.6748 -0.1146
 4663TIP3   OH235403   0.606   2.132   3.021 -0.3607  0.1530 -0.7493
 4663TIP3    H135404   0.522   2.109   2.980 -0.7364 -0.6787  0.4387
 4663TIP3    H235405   0.602   2.092   3.108  1.7369 -0.8732 -1.0620
 4664TIP3   OH235406   0.964   4.697  11.178  0.1701  0.0542  0.1375
 4664TIP3    H135407   0.896   4.765  11.178  0.9575  0.9154 -1.6860
 4664TIP3    H235408   0.928   4.627  11.125 -0.3085 -0.6160  1.3280
 4665TIP3   OH235409   5.493   3.507   1.141  0.1671  0.0763 -0.7089
 4665TIP3    H135410   5.528   3.580   1.192 -1.5275  1.3433 -1.2573
 4665TIP3    H235411   5.562   3.486   1.077  1.6863 -0.5202  1.0354
 4666TIP3   OH235412   2.130   6.095   5.836 -0.4516 -0.1470  0.1437
 4666TIP3    H135413   2.182   6.164   5.878 -0.0170  0.3101 -1.0823
 4666TIP3    H235414   2.117   6.029   5.904 -0.8648  1.1321  1.3496
 4667TIP3   OH235415   6.715   6.592   6.567 -0.2826 -0.2433 -0.5295
 4667TIP3    H135416   6.804   6.618   6.590 -0.4957  0.9085 -0.9260
 4667TIP3    H235417   6.712   6.596   6.472 -0.7087 -0.4578 -0.5285
 4668TIP3   OH235418   5.895   5.636  13.575  0.3112  0.0400  0.1611
 4668TIP3    H135419   5.853   5.551  13.574 -0.6438  0.4959  0.0552
 4668TIP3    H235420   5.951   5.636  13.497 -1.1744  0.2150 -0.9513
 4669TIP3   OH235421   0.310   0.433  14.474  0.3618 -0.0150  0.2041
 4669TIP3    H135422   0.265   0.517  14.466  0.2386 -0.0285  0.7597
 4669TIP3    H235423   0.389   0.443  14.420  0.1316  0.3088 -0.0701
 4670TIP3   OH235424   1.972   1.787  14.064 -0.3423  0.0784  0.1188
 4670TIP3    H135425   1.998   1.704  14.105  1.5231  0.3251 -0.4596
 4670TIP3    H235426   1.904   1.762  14.001 -1.7451 -0.5967  1.8290
 4671TIP3   OH235427   0.455   2.235   0.848  0.0447  0.3724  0.0857
 4671TIP3    H135428   0.439   2.263   0.757  1.5925  0.6465 -0.1422
 4671TIP3    H235429   0.445   2.315   0.900 -1.6673  0.0517  0.2970
 4672TIP3   OH235430   2.638   3.176  13.333 -0.0010  0.1732  0.5859
 4672TIP3    H135431   2.548   3.164  13.364 -0.1129 -4.1872 -0.6696
 4672TIP3    H235432   2.633   3.250  13.273 -2.5820  0.5315  1.0941
 4673TIP3   OH235433   1.426   3.094  17.130  0.4049  0.5836  0.1035
 4673TIP3    H135434   1.400   3.083  17.039  0.8634  0.3981 -0.0069
 4673TIP3    H235435   1.415   3.187  17.147  0.9579  0.7370 -0.3444
 4674TIP3   OH235436   3.688   2.840   5.268  0.1027  0.2676 -0.1761
 4674TIP3    H135437   3.782   2.853   5.280  0.4380 -1.7303 -0.3230
 4674TIP3    H235438   3.672   2.749   5.296 -1.0254 -0.8986 -3.9706
 4675TIP3   OH235439   3.795   3.384  14.701 -0.1303 -0.2821  0.3946
 4675TIP3    H135440   3.852   3.419  14.770 -0.7739 -0.7549  1.1942
 4675TIP3    H235441   3.770   3.297  14.733 -4.9112  1.4462  2.4055
 4676TIP3   OH235442   4.181   2.700  16.525  0.1279 -0.0264  1.2027
 4676TIP3    H135443   4.235   2.776  16.506 -0.1191 -0.1896 -0.2491
 4676TIP3    H235444   4.227   2.654  16.596  0.0344  1.6949  2.4213
 4677TIP3   OH235445   1.079   0.571  13.485  0.0138  0.0791  0.4684
 4677TIP3    H135446   1.087   0.548  13.392 -0.1142 -0.2771  0.5439
 4677TIP3    H235447   0.999   0.527  13.514 -0.1637  0.5155  0.6502
 4678TIP3   OH235448   2.592   2.697  16.392  0.8774 -0.3025  0.1901
 4678TIP3    H135449   2.509   2.731  16.356 -0.6885 -1.4728  2.4357
 4678TIP3    H235450   2.593   2.605  16.366  1.9914 -0.0828 -0.6053
 4679TIP3   OH235451   0.616   4.464  16.611  0.4583  0.0914 -0.2287
 4679TIP3    H135452   0.683   4.503  16.554 -0.5203 -0.0334 -1.5110
 4679TIP3    H235453   0.539   4.521  16.600 -0.3081 -0.9519 -0.4374
 4680TIP3   OH235454   3.512   6.702   5.001  0.4380 -0.0627 -0.7614
 4680TIP3    H135455   3.564   6.760   4.945  1.6550  1.5182  1.8271
 4680TIP3    H235456   3.577   6.645   5.043 -0.4964 -1.5505 -1.2469
 4681TIP3   OH235457   5.344   2.620   4.251  0.6585 -0.4011  0.1068
 4681TIP3    H135458   5.293   2.687   4.297  2.5937  0.1092  1.6468
 4681TIP3    H235459   5.311   2.622   4.162 -1.7987  0.0666  0.9437
 4682TIP3   OH235460   0.327   2.126  12.099 -0.4670 -0.1719  0.0229
 4682TIP3    H135461   0.348   2.172  12.180 -1.1014 -0.6692  0.4846
 4682TIP3    H235462   0.246   2.167  12.069 -0.7456 -0.6132  0.1537
 4683TIP3   OH235463   2.618   4.688   6.131  0.3419  0.3384 -0.2377
 4683TIP3    H135464   2.574   4.625   6.073 -2.1011 -0.8025  2.5880
 4683TIP3    H235465   2.570   4.770   6.118 -2.0944 -0.6003  1.9516
 4684TIP3   OH235466   2.854   6.220   0.159  0.1684 -0.4305  0.3677
 4684TIP3    H135467   2.849   6.197   0.251 -3.1730 -1.6308  0.0045
 4684TIP3    H235468   2.858   6.136   0.113 -0.8211  0.0475 -0.6372
 4685TIP3   OH235469   4.499   1.531  10.987 -0.6352 -0.7041 -0.2724
 4685TIP3    H135470   4.503   1.572  11.074 -0.4141 -0.8415 -0.2172
 4685TIP3    H235471   4.419   1.566  10.948 -0.2794  0.0328 -0.3568
 4686TIP3   OH235472   4.925   4.653  10.728 -0.2869  0.2373  0.0109
 4686TIP3    H135473   4.911   4.571  10.776 -1.7760  0.1616 -0.4913
 4686TIP3    H235474   4.927   4.628  10.636  5.0177  0.0410 -0.1130
 4687TIP3   OH235475   5.035   1.426  16.083 -0.2960  0.0237 -0.2551
 4687TIP3    H135476   5.112   1.430  16.026 -0.3606  0.0039 -0.3452
 4687TIP3    H235477   4.981   1.499  16.055 -0.7906 -0.5680 -0.8981
 4688TIP3   OH235478   1.357   5.249   1.524  0.3580 -0.5723  0.4328
 4688TIP3    H135479   1.272   5.214   1.550  0.4385 -2.0865 -1.0887
 4688TIP3    H235480   1.347   5.268   1.430  1.1541  1.0295  0.6399
 4689TIP3   OH235481   5.900   1.159  16.706  0.2241  0.5588 -0.6684
 4689TIP3    H135482   5.833   1.107  16.661 -0.3751  0.3489  0.4224
 4689TIP3    H235483   5.852   1.205  16.775  1.2273  0.2844  0.2433
 4690TIP3   OH235484   3.588   5.120  15.968  0.6639  0.1104 -0.0960
 4690TIP3    H135485   3.648   5.193  15.982 -1.3399  1.6779  1.0064
 4690TIP3    H235486   3.583   5.077  16.053  1.5716 -1.1287 -0.6540
 4691TIP3   OH235487   3.832   1.491   1.912 -0.3659  0.1531 -0.0236
 4691TIP3    H135488   3.766   1.428   1.942  0.6030  0.3209  2.6728
 4691TIP3    H235489   3.914   1.441   1.909  0.1194  0.8990  0.5703
 4692TIP3   OH235490   5.987   5.181  11.834 -0.0528 -0.5604  0.5090
 4692TIP3    H135491   6.060   5.139  11.879  0.8974  0.2063 -0.2975
 4692TIP3    H235492   6.012   5.273  11.826 -0.7555 -0.4355 -0.4687
 4693TIP3   OH235493   1.766   2.316   6.150  0.3840 -0.1241  0.5930
 4693TIP3    H135494   1.683   2.363   6.146  0.1782 -0.2512  2.5939
 4693TIP3    H235495   1.763   2.268   6.233  3.5341  2.0003  2.1301
 4694TIP3   OH235496   4.791   1.341  13.496  0.0991 -0.7075  0.0761
 4694TIP3    H135497   4.788   1.309  13.586  2.0571 -2.2634 -0.3390
 4694TIP3    H235498   4.859   1.408  13.497 -1.1274  0.5800  0.0803
 4695TIP3   OH235499   0.399   2.771   2.913  0.1389  0.1874  0.6272
 4695TIP3    H135500   0.379   2.694   2.859  0.1776  1.7479 -1.7897
 4695TIP3    H235501   0.489   2.757   2.942 -0.1695 -1.0942  1.0226
 4696TIP3   OH235502   2.713   4.657  16.324  0.4400 -0.4181 -0.1569
 4696TIP3    H135503   2.747   4.735  16.366 -0.0784 -0.0596 -0.3916
 4696TIP3    H235504   2.634   4.686  16.279  0.1005 -1.1194 -0.0424
 4697TIP3   OH235505   0.050   3.926  12.748 -0.2717 -0.0034  0.0631
 4697TIP3    H135506   0.056   3.946  12.655 -0.5915 -3.1515 -0.7350
 4697TIP3    H235507   0.140   3.925  12.779 -0.1072  0.2431 -0.4020
 4698TIP3   OH235508   1.068   2.220   3.707 -0.0732  0.4014 -0.0579
 4698TIP3    H135509   0.987   2.177   3.680 -0.0689  1.5645 -2.1428
 4698TIP3    H235510   1.117   2.152   3.753 -2.0828 -0.4081  0.9878
 4699TIP3   OH235511   2.560   2.952  16.694  0.2877  0.0357 -0.3720
 4699TIP3    H135512   2.616   3.019  16.735  0.9309 -0.4607 -0.4286
 4699TIP3    H235513   2.472   2.970  16.729  0.6079  0.3830  0.2777
 4700TIP3   OH235514   5.265   5.533  14.508  0.0203  0.1430  0.3871
 4700TIP3    H135515   5.237   5.450  14.549 -0.6615 -1.0070 -2.1895
 4700TIP3    H235516   5.277   5.593  14.581  0.2581 -2.1448  2.3541
 4701TIP3   OH235517   6.070   3.209   5.351  0.3884  0.0488  0.2200
 4701TIP3    H135518   6.025   3.145   5.406  1.4460 -0.0456  1.0114
 4701TIP3    H235519   6.023   3.207   5.267 -2.7625  1.8434  1.7504
 4702TIP3   OH235520   6.692   4.855  13.802 -0.2177 -0.1410 -0.3710
 4702TIP3    H135521   6.785   4.833  13.815  0.5856  1.1114 -3.1800
 4702TIP3    H235522   6.681   4.940  13.844  0.6889  0.9652 -2.2441
 4703TIP3   OH235523   2.969   4.533  16.906  0.3354 -0.2193  0.3760
 4703TIP3    H135524   2.875   4.514  16.904  0.2614  0.1385 -0.9276
 4703TIP3    H235525   3.005   4.472  16.969 -0.9171  0.3275  1.6696
 4704TIP3   OH235526   4.126   2.211  13.138  0.3125 -0.4022  0.6302
 4704TIP3    H135527   4.195   2.176  13.083  0.1095  0.4865 -0.2207
 4704TIP3    H235528   4.045   2.183  13.096  0.1262 -1.6792  1.7779
 4705TIP3   OH235529   2.892   4.878  14.516 -0.5024 -0.2431  0.0201
 4705TIP3    H135530   2.870   4.834  14.434 -0.0839 -0.3367 -0.0455
 4705TIP3    H235531   2.828   4.949  14.523 -0.7147 -0.4052 -0.2484
 4706TIP3   OH235532   1.519   4.674   2.994 -0.2490 -0.0936 -0.0031
 4706TIP3    H135533   1.552   4.680   3.084 -1.6850 -0.7805  0.5969
 4706TIP3    H235534   1.435   4.719   2.995 -0.5011 -0.5099 -0.8925
 4707TIP3   OH235535   1.892   2.030   2.686 -0.5389 -0.0697  0.0619
 4707TIP3    H135536   1.803   2.054   2.661 -0.9388 -0.7268  0.8035
 4707TIP3    H235537   1.883   1.945   2.729  0.2765  0.4244  1.2808
 4708TIP3   OH235538   4.224   1.803  12.236  0.5492  0.0299  0.0586
 4708TIP3    H135539   4.150   1.745  12.256 -2.4893  2.7074 -2.3136
 4708TIP3    H235540   4.230   1.802  12.140  0.2101  3.5380 -0.1437
 4709TIP3   OH235541   5.677   2.201  14.066 -0.2685 -0.0787  0.1621
 4709TIP3    H135542   5.583   2.184  14.063 -0.4698  1.0586 -0.6235
 4709TIP3    H235543   5.700   2.221  13.975  0.5428  0.5660  0.5038
 4710TIP3   OH235544   4.964   5.522   0.528  0.4004  0.4214 -0.3556
 4710TIP3    H135545   4.963   5.614   0.556  2.0165  0.0251  1.1794
 4710TIP3    H235546   5.014   5.477   0.596  0.3367 -1.4758 -1.4986
 4711TIP3   OH235547   3.653   1.890  15.704  0.4229  0.1950 -0.1435
 4711TIP3    H135548   3.569   1.900  15.659  0.4351  0.6652 -0.0654
 4711TIP3    H235549   3.710   1.851  15.639  0.5628  1.2761 -0.6846
 4712TIP3   OH235550   6.294   5.111   0.373 -0.3075  0.5767 -0.4119
 4712TIP3    H135551   6.301   5.190   0.319 -1.1878  0.1769 -1.1365
 4712TIP3    H235552   6.259   5.044   0.313 -3.9889  0.7794  1.2315
 4713TIP3   OH235553   0.621   0.491   6.463 -0.2936 -0.3119 -0.3188
 4713TIP3    H135554   0.560   0.467   6.532  0.6880 -2.4888 -0.1226
 4713TIP3    H235555   0.615   0.418   6.400 -0.0559  0.8806 -1.7822
 4714TIP3   OH235556   1.277   4.314   1.013 -0.2343 -0.3289  0.1033
 4714TIP3    H135557   1.239   4.229   1.033  0.8067 -0.8404 -0.0308
 4714TIP3    H235558   1.360   4.315   1.060 -0.5049  0.8568  0.5769
 4715TIP3   OH235559   2.530   2.538  12.044 -0.6325  0.6968 -1.3322
 4715TIP3    H135560   2.608   2.489  12.071  0.0591  0.9947 -2.7171
 4715TIP3    H235561   2.461   2.507  12.103  0.6700  0.9480  0.4252
 4716TIP3   OH235562   1.636   0.413  14.754 -0.0027  0.0486  0.2910
 4716TIP3    H135563   1.583   0.490  14.774 -1.3444 -0.7492 -0.0379
 4716TIP3    H235564   1.581   0.360  14.697  1.4054 -0.5516 -0.5685
 4717TIP3   OH235565   0.793   4.959   2.355 -0.0771 -0.4285  0.0636
 4717TIP3    H135566   0.830   5.047   2.355 -0.4907 -0.2397  1.5776
 4717TIP3    H235567   0.766   4.945   2.264 -0.9559  1.4094 -0.0001
 4718TIP3   OH235568   2.273   2.133   4.851 -0.2426 -0.1631 -0.6959
 4718TIP3    H135569   2.246   2.225   4.855  0.1511  0.0063 -1.6996
 4718TIP3    H235570   2.212   2.093   4.789 -1.3749 -0.9518  0.8411
 4719TIP3   OH235571   0.681   1.743   5.815 -0.1361 -0.1077  0.4459
 4719TIP3    H135572   0.623   1.680   5.857 -1.2362  0.7411  0.2333
 4719TIP3    H235573   0.719   1.792   5.888 -2.5114  1.7761  0.5351
 4720TIP3   OH235574   2.870   1.938   3.499  0.3003  0.5400  1.1745
 4720TIP3    H135575   2.922   1.894   3.431 -0.8366  0.1652  0.5222
 4720TIP3    H235576   2.901   2.028   3.499  1.3473  0.1919  1.2037
 4721TIP3   OH235577   1.443   4.950  11.167 -0.1965  0.0564  0.4158
 4721TIP3    H135578   1.496   4.920  11.093  0.6194  0.8115  0.6861
 4721TIP3    H235579   1.391   5.022  11.132 -1.9510 -1.3828 -0.1573
 4722TIP3   OH235580   4.615   1.185  12.527 -0.3111 -0.6096 -0.0254
 4722TIP3    H135581   4.577   1.257  12.576  0.1195 -0.9992  0.9114
 4722TIP3    H235582   4.677   1.226  12.467  0.1950 -0.2189  0.7512
 4723TIP3   OH235583   1.142   3.636  10.750  0.5923 -0.5946  0.2294
 4723TIP3    H135584   1.203   3.566  10.775  2.1888  0.4433 -0.6357
 4723TIP3    H235585   1.096   3.601  10.674  2.3276 -0.2530 -1.0334
 4724TIP3   OH235586   3.095   0.932   5.479  0.4045  0.2329  0.4012
 4724TIP3    H135587   3.161   0.863   5.475  0.4371  0.2713  0.2613
 4724TIP3    H235588   3.135   1.000   5.533  1.1030  0.9101 -0.9122
 4725TIP3   OH235589   4.362   6.157   3.091 -0.4343 -0.3529  0.4094
 4725TIP3    H135590   4.305   6.127   3.021  0.6145  1.2108 -1.2028
 4725TIP3    H235591   4.371   6.251   3.077 -0.4130  0.0917  2.8416
 4726TIP3   OH235592   0.782   6.401   1.262 -0.0939 -0.3383  0.0371
 4726TIP3    H135593   0.864   6.383   1.308  0.9166 -1.3954 -2.0348
 4726TIP3    H235594   0.779   6.335   1.192 -3.1083 -0.8383  0.4851
 4727TIP3   OH235595   3.965   2.357  15.243 -0.1635 -0.4455 -0.1691
 4727TIP3    H135596   3.989   2.447  15.221  0.5145 -0.6908 -0.4414
 4727TIP3    H235597   4.040   2.304  15.215 -0.7616 -1.1528 -0.4775
 4728TIP3   OH235598   0.213   6.168   6.101  0.0474 -0.0559 -0.0115
 4728TIP3    H135599   0.298   6.134   6.129  0.7891  0.9445 -0.9477
 4728TIP3    H235600   0.149   6.113   6.147  1.1737  0.0352  1.7616
 4729TIP3   OH235601   0.808   4.169  16.533  0.3965 -0.2381  0.1664
 4729TIP3    H135602   0.726   4.127  16.559  0.2802 -1.2181 -1.6444
 4729TIP3    H235603   0.782   4.231  16.465  0.7500  1.9324  1.8842
 4730TIP3   OH235604   3.012   2.844   3.971 -0.2771  0.1055 -0.3752
 4730TIP3    H135605   2.926   2.842   3.928 -0.3887 -1.4598 -0.1228
 4730TIP3    H235606   3.051   2.759   3.951 -0.0011 -0.3686  1.9543
 4731TIP3   OH235607   6.395   2.047   3.496  0.1181  0.4585 -0.8429
 4731TIP3    H135608   6.337   2.089   3.433  0.1276 -1.3420 -2.1461
 4731TIP3    H235609   6.395   1.954   3.471  0.9820 -0.1502  1.1627
 4732TIP3   OH235610   3.382   5.711  11.440  0.3504 -0.1838  0.0750
 4732TIP3    H135611   3.385   5.679  11.350 -0.9892  0.2456 -0.1512
 4732TIP3    H235612   3.324   5.650  11.485  0.2008  0.1788  0.3837
 4733TIP3   OH235613   1.095   1.758   1.824 -0.4339 -0.0716 -0.1443
 4733TIP3    H135614   1.037   1.684   1.808 -0.6441  0.2509 -0.9113
 4733TIP3    H235615   1.129   1.782   1.737 -0.5819  0.9022  0.0510
 4734TIP3   OH235616   0.374   0.294   2.372  0.3403  0.6684  0.6892
 4734TIP3    H135617   0.462   0.295   2.409  0.4290 -0.9180  0.6028
 4734TIP3    H235618   0.382   0.340   2.289  1.5228 -0.9460 -0.1440
 4735TIP3   OH235619   2.522   0.040  16.884  0.1239 -0.6590 -0.0459
 4735TIP3    H135620   2.499   0.005  16.798  1.3696 -1.0683 -0.2391
 4735TIP3    H235621   2.504  -0.032  16.945  0.0199 -0.6601 -0.0778
 4736TIP3   OH235622   2.482   1.161  13.028 -0.1560 -0.0339 -0.2489
 4736TIP3    H135623   2.408   1.205  12.988  1.4191  0.8133 -2.4500
 4736TIP3    H235624   2.479   1.072  12.993  0.7584  0.4801 -1.7450
 4737TIP3   OH235625   2.206   2.665  17.301 -0.1373 -0.3707 -0.1748
 4737TIP3    H135626   2.232   2.745  17.346  1.3929  0.0738 -1.7719
 4737TIP3    H235627   2.196   2.690  17.209  1.2796 -2.1488 -0.8900
 4738TIP3   OH235628   1.512   2.575   0.980 -0.3826  0.2723  0.1142
 4738TIP3    H135629   1.479   2.616   0.901 -1.5335  0.8564  0.8621
 4738TIP3    H235630   1.447   2.507   1.000 -1.4512  1.6869  1.8159
 4739TIP3   OH235631   3.082   2.104   4.536  0.1308 -0.4367  0.1502
 4739TIP3    H135632   3.079   2.008   4.538  0.9989 -0.4778 -0.2233
 4739TIP3    H235633   3.169   2.125   4.501 -0.1799  0.4864 -0.0961
 4740TIP3   OH235634   6.030   4.608  17.074 -0.2942 -0.1079 -0.0585
 4740TIP3    H135635   6.055   4.582  16.986  1.3908 -0.3872  0.4751
 4740TIP3    H235636   5.973   4.684  17.062 -0.7402 -0.6216 -1.3961
 4741TIP3   OH235637   2.728   2.939  16.453 -0.3961 -0.4486 -0.3796
 4741TIP3    H135638   2.692   2.858  16.417 -0.3178 -1.1617  1.0827
 4741TIP3    H235639   2.723   2.927  16.548 -0.4900  1.3127 -0.1370
 4742TIP3   OH235640   6.478   1.432   5.149 -0.3985 -0.0011  0.5878
 4742TIP3    H135641   6.514   1.344   5.158 -1.6607 -1.0285 -2.7050
 4742TIP3    H235642   6.395   1.430   5.197  0.2558 -0.1204  1.7273
 4743TIP3   OH235643   3.053   4.095  14.563  0.1811  0.1045  0.2111
 4743TIP3    H135644   2.986   4.026  14.563  0.2091 -0.1229 -3.6908
 4743TIP3    H235645   3.093   4.089  14.650 -1.5341 -3.0414  0.9483
 4744TIP3   OH235646   3.528   2.885  17.136 -0.1242 -0.2536  0.4614
 4744TIP3    H135647   3.595   2.942  17.099 -0.2392  0.2460  1.0076
 4744TIP3    H235648   3.447   2.912  17.092 -0.3357  0.6362  1.3705
 4745TIP3   OH235649   2.447   2.125   3.599 -0.7576  0.1952 -0.0432
 4745TIP3    H135650   2.444   2.159   3.510 -0.9758  2.0543  0.6419
 4745TIP3    H235651   2.368   2.071   3.607  0.4353 -1.9756 -1.6644
 4746TIP3   OH235652   3.037   5.244   5.122  0.4228  0.5147 -0.3023
 4746TIP3    H135653   3.040   5.158   5.162 -0.2026  0.3909 -0.5165
 4746TIP3    H235654   2.960   5.242   5.065  0.9321  0.8953 -1.0249
 4747TIP3   OH235655   2.259   2.712   3.241  0.3000 -0.0738  0.2219
 4747TIP3    H135656   2.248   2.794   3.193  0.7831 -0.0254  0.1907
 4747TIP3    H235657   2.196   2.652   3.201 -1.1553  0.7091  1.2426
 4748TIP3   OH235658   5.783   3.494   5.245 -0.1533 -0.2007 -0.0283
 4748TIP3    H135659   5.767   3.401   5.228 -0.2287 -0.3266  0.7124
 4748TIP3    H235660   5.726   3.540   5.184 -0.4920 -0.6426 -0.0449
 4749TIP3   OH235661   4.256   5.690  13.296 -0.3513  0.1470 -0.3117
 4749TIP3    H135662   4.283   5.767  13.346  0.3201 -0.1024 -0.2735
 4749TIP3    H235663   4.224   5.629  13.363 -1.2942  0.5594 -0.3865
 4750TIP3   OH235664   5.314   6.589  12.707 -0.4963 -0.2197  0.1349
 4750TIP3    H135665   5.276   6.507  12.739 -2.7985  1.3388  1.7485
 4750TIP3    H235666   5.333   6.573  12.615  1.9259 -3.4345  1.0039
 4751TIP3   OH235667   0.643   5.740  15.526  0.3340 -0.0974  0.4692
 4751TIP3    H135668   0.691   5.799  15.468  1.9026  0.0010  1.7846
 4751TIP3    H235669   0.699   5.664  15.536  0.0949 -0.1421  1.7693
 4752TIP3   OH235670   3.579   4.930  12.277  0.1617  0.9073  0.0923
 4752TIP3    H135671   3.673   4.936  12.295 -0.1878  1.8193  1.8248
 4752TIP3    H235672   3.543   4.887  12.354 -1.0877  2.5060  0.4622
 4753TIP3   OH235673   3.223   0.468  16.727  0.4372 -0.0063  0.8092
 4753TIP3    H135674   3.233   0.458  16.632 -0.7008  0.8921  0.5671
 4753TIP3    H235675   3.204   0.379  16.758 -0.0225 -0.1849  0.0632
 4754TIP3   OH235676   3.307   1.394  10.786 -0.2891  0.0771 -0.6699
 4754TIP3    H135677   3.324   1.484  10.758 -3.2119  0.4400 -1.5815
 4754TIP3    H235678   3.309   1.399  10.882  0.6961  0.8245 -0.7011
 4755TIP3   OH235679   4.222   3.381   1.915 -0.0645 -0.0604 -0.3206
 4755TIP3    H135680   4.260   3.301   1.880  0.7707  0.6968 -1.2173
 4755TIP3    H235681   4.273   3.400   1.994 -0.0404 -0.2289 -0.2970
 4756TIP3   OH235682   0.468   0.974   5.291  0.6214  0.2181 -0.4177
 4756TIP3    H135683   0.551   0.928   5.306 -0.7854 -3.0841 -1.6696
 4756TIP3    H235684   0.431   0.985   5.378  0.9123 -1.4297 -0.0414
 4757TIP3   OH235685   4.565   2.387   3.380 -0.2632 -0.2050  0.4133
 4757TIP3    H135686   4.474   2.408   3.401 -0.3572 -0.4642  0.2670
 4757TIP3    H235687   4.567   2.378   3.285  0.1434  0.8945  0.2956
 4758TIP3   OH235688   0.676   0.085  16.793 -0.1835 -0.6499 -0.0970
 4758TIP3    H135689   0.745   0.068  16.728  0.6333 -0.7320  0.7618
 4758TIP3    H235690   0.718   0.143  16.857 -1.1807 -0.0296  0.0150
 4759TIP3   OH235691   6.141   6.022  12.138  0.3514  0.2001  0.2553
 4759TIP3    H135692   6.139   5.944  12.083 -2.7455  0.6137 -0.3977
 4759TIP3    H235693   6.123   5.988  12.226  1.4266 -0.0374  0.3994
 4760TIP3   OH235694   0.075   0.944  15.631  0.2083 -1.2877  0.0385
 4760TIP3    H135695  -0.013   0.980  15.646  0.6478  0.3823 -1.0738
 4760TIP3    H235696   0.098   0.974  15.543  2.8205  0.3818  1.1693
 4761TIP3   OH235697   1.142   0.196   2.939  0.1668  0.2815 -0.7695
 4761TIP3    H135698   1.227   0.160   2.912  0.5683 -0.1110  0.9043
 4761TIP3    H235699   1.103   0.127   2.992 -0.3545  1.1828  0.0464
 4762TIP3   OH235700   2.423   2.817  12.499  0.0880 -0.1797 -0.3576
 4762TIP3    H135701   2.501   2.824  12.444 -0.3087  0.4490 -0.8571
 4762TIP3    H235702   2.361   2.878  12.460  0.2213  1.2605  1.5432
 4763TIP3   OH235703   4.986   3.041  15.613  0.3900 -0.0174  0.3279
 4763TIP3    H135704   4.981   3.136  15.611 -0.7046 -0.0480 -1.9514
 4763TIP3    H235705   5.046   3.021  15.685 -1.2838  2.2820  2.5487
 4764TIP3   OH235706   4.512   3.734   0.109 -0.2132 -0.3261  0.0531
 4764TIP3    H135707   4.575   3.663   0.122 -0.3166 -0.1581  1.7341
 4764TIP3    H235708   4.548   3.808   0.157 -1.5108 -0.1209  0.7647
 4765TIP3   OH235709   0.112   3.301   5.419 -0.2334 -0.3583 -0.5282
 4765TIP3    H135710   0.027   3.266   5.390 -0.6459  0.2953 -0.1214
 4765TIP3    H235711   0.146   3.234   5.478 -0.6016 -0.4921 -0.4650
 4766TIP3   OH235712   3.248   3.891   1.438  0.0319  0.2066  0.6519
 4766TIP3    H135713   3.343   3.884   1.422  0.0477 -0.5250  1.0201
 4766TIP3    H235714   3.220   3.801   1.452 -0.6190  0.4839  1.1497
 4767TIP3   OH235715   4.158   0.914   5.797  0.8892  0.2359  0.2841
 4767TIP3    H135716   4.100   0.908   5.721 -0.3619 -1.6946  1.3031
 4767TIP3    H235717   4.175   1.008   5.806  1.0667  0.5350 -2.3193
 4768TIP3   OH235718   3.714   1.857   1.091 -0.2974 -0.2710 -0.7624
 4768TIP3    H135719   3.742   1.858   0.999  0.3630 -0.8584 -0.5677
 4768TIP3    H235720   3.783   1.904   1.138 -1.0812  0.8487 -0.6772
 4769TIP3   OH235721   0.097   4.012  17.134  0.1336 -0.2438 -0.2147
 4769TIP3    H135722   0.134   3.997  17.047  0.0079 -0.0155 -0.3091
 4769TIP3    H235723   0.168   4.054  17.183  0.3340 -0.7238 -0.0862
 4770TIP3   OH235724   5.073   6.647   4.576  0.1225 -0.2685  0.4305
 4770TIP3    H135725   5.100   6.734   4.547 -0.3530  0.4558  2.0238
 4770TIP3    H235726   5.151   6.609   4.615  0.4982 -0.8353 -0.8400
 4771TIP3   OH235727   4.649   4.346  12.254  0.2308 -0.6136  0.4178
 4771TIP3    H135728   4.710   4.356  12.180 -1.2661  0.4201 -0.7417
 4771TIP3    H235729   4.701   4.369  12.331  1.9882 -2.2053 -0.2015
 4772TIP3   OH235730   2.329   4.515   6.348 -0.6982 -0.3647 -0.3558
 4772TIP3    H135731   2.262   4.471   6.401  1.9673  0.2307  3.9818
 4772TIP3    H235732   2.382   4.443   6.313 -1.3540 -0.7543 -0.5612
 4773TIP3   OH235733   4.755   4.794   0.130  0.4600 -0.2523 -0.0924
 4773TIP3    H135734   4.756   4.890   0.127  1.1858 -0.2389  0.4670
 4773TIP3    H235735   4.767   4.768   0.039  0.3492  0.1902 -0.2385
 4774TIP3   OH235736   0.841   2.925   1.193 -0.1891  0.0216  0.0140
 4774TIP3    H135737   0.912   2.983   1.164 -0.1365  0.3131  0.7067
 4774TIP3    H235738   0.873   2.837   1.176 -0.0392  0.1807 -0.5349
 4775TIP3   OH235739   5.399   6.509   2.524  0.2851  1.0039  0.0998
 4775TIP3    H135740   5.426   6.435   2.470 -0.6479  0.6746  0.0681
 4775TIP3    H235741   5.476   6.531   2.576  1.4099  1.7303 -1.8012
 4776TIP3   OH235742   4.223   4.290  12.219 -0.5933  0.3740  0.2167
 4776TIP3    H135743   4.281   4.366  12.215  0.0174 -0.1333 -1.1193
 4776TIP3    H235744   4.135   4.328  12.229 -0.1099  1.1610  1.7878
 4777TIP3   OH235745   0.819   6.093   0.581  0.1858 -0.1755 -0.1001
 4777TIP3    H135746   0.775   6.009   0.576 -1.4680  0.5956  0.6224
 4777TIP3    H235747   0.804   6.123   0.671  1.5547  0.4719 -0.0666
 4778TIP3   OH235748   4.439   5.935   5.255  0.2139  0.1786  0.4226
 4778TIP3    H135749   4.534   5.930   5.266  0.0498  0.4196  2.2484
 4778TIP3    H235750   4.426   6.010   5.196  1.1559  0.0269  0.0064
 4779TIP3   OH235751   5.559   2.510   3.590  0.3921 -0.0535 -0.3499
 4779TIP3    H135752   5.540   2.490   3.499 -0.3739 -1.5362  0.1031
 4779TIP3    H235753   5.473   2.525   3.629  0.7503  1.1419  0.0192
 4780TIP3   OH235754   5.824   5.629  16.301  0.1209  0.2259  0.3480
 4780TIP3    H135755   5.850   5.601  16.389  1.7580  0.9139  0.1051
 4780TIP3    H235756   5.739   5.586  16.287  0.5887 -1.2141  1.6212
 4781TIP3   OH235757   1.397   0.759   6.340  0.4942  0.2115 -0.0165
 4781TIP3    H135758   1.369   0.754   6.431 -0.0376 -1.0163 -0.2341
 4781TIP3    H235759   1.393   0.853   6.319  0.3315  0.4713  1.1171
 4782TIP3   OH235760   1.497   2.030  13.307 -0.4377  0.0906 -0.5059
 4782TIP3    H135761   1.472   2.104  13.252 -0.3009 -0.5197 -1.4048
 4782TIP3    H235762   1.550   1.975  13.250 -0.2158 -0.5097  0.2718
 4783TIP3   OH235763   6.103   3.249   4.094 -0.1200 -0.7727 -0.0068
 4783TIP3    H135764   6.110   3.296   4.177  0.1857  1.4236 -1.2197
 4783TIP3    H235765   6.010   3.226   4.087 -0.6312  1.1824 -0.1482
 4784TIP3   OH235766   2.604   0.709   5.080 -0.5994  0.2521 -0.2119
 4784TIP3    H135767   2.612   0.709   5.176  0.5842  3.0217 -0.2191
 4784TIP3    H235768   2.511   0.717   5.064 -0.9519 -1.5797  0.6333
 4785TIP3   OH235769   2.671   5.641   3.215 -0.6567  0.2244  0.1926
 4785TIP3    H135770   2.745   5.646   3.155  0.0304 -3.6906  0.4784
 4785TIP3    H235771   2.709   5.616   3.300 -2.1271 -0.4968  0.6922
 4786TIP3   OH235772   4.426   5.316  12.517 -0.0654  0.3848  0.0954
 4786TIP3    H135773   4.398   5.337  12.428  0.0743  2.6126  0.5300
 4786TIP3    H235774   4.416   5.398  12.566  2.9864  0.1461  1.3591
 4787TIP3   OH235775   4.090   4.338   1.740  0.0019 -0.4154 -0.0653
 4787TIP3    H135776   4.019   4.403   1.735 -1.1132 -1.5654  0.3197
 4787TIP3    H235777   4.114   4.336   1.832 -0.6291 -1.2302  0.0855
 4788TIP3   OH235778   5.583   1.223  15.591 -0.1861  0.5721 -0.1031
 4788TIP3    H135779   5.672   1.205  15.559 -0.2351  1.8776 -1.0484
 4788TIP3    H235780   5.596   1.259  15.679  0.1760  0.1648  0.0134
 4789TIP3   OH235781   5.330   2.792  13.896 -0.1587  0.4139 -0.4525
 4789TIP3    H135782   5.285   2.708  13.887  0.2305  0.2971 -1.4959
 4789TIP3    H235783   5.337   2.806  13.990 -1.9848  0.2243 -0.2542
 4790TIP3   OH235784   2.869   1.228  10.583  0.2647  0.4657  0.1485
 4790TIP3    H135785   2.816   1.217  10.662  0.4151  0.8805  0.3125
 4790TIP3    H235786   2.879   1.140  10.548  1.5833  0.0464  1.4884
 4791TIP3   OH235787   5.486   4.235  16.072  0.6516  0.3999  0.1140
 4791TIP3    H135788   5.442   4.317  16.049  0.1298 -0.0740 -0.6027
 4791TIP3    H235789   5.447   4.169  16.015  0.4704 -0.5193  1.2462
 4792TIP3   OH235790   3.960   3.471   6.603  0.1030 -0.6339 -0.1415
 4792TIP3    H135791   3.963   3.397   6.664  0.9834 -0.5889 -0.1090
 4792TIP3    H235792   4.014   3.443   6.529  0.6861  0.0745  0.0003
 4793TIP3   OH235793   1.389   3.102  16.870 -0.0079 -0.2958  0.1135
 4793TIP3    H135794   1.441   3.150  16.806 -1.1620 -0.5316 -1.0547
 4793TIP3    H235795   1.387   3.012  16.837 -0.2405 -0.5272  0.7360
 4794TIP3   OH235796   2.796   2.735   5.757  0.3317 -0.5409  0.1831
 4794TIP3    H135797   2.748   2.689   5.826  1.1782 -0.1155  1.0729
 4794TIP3    H235798   2.872   2.773   5.802 -0.3626  1.7838 -0.4680
 4795TIP3   OH235799   6.636   0.337  12.346 -0.3165 -0.3108 -0.4460
 4795TIP3    H135800   6.587   0.407  12.302 -0.3446 -1.1781 -1.8803
 4795TIP3    H235801   6.673   0.286  12.274  0.9668 -0.9000  0.5845
 4796TIP3   OH235802   6.308   2.134  11.969  0.0739 -0.3271 -1.0674
 4796TIP3    H135803   6.249   2.115  12.043 -0.6733 -1.7160 -1.9788
 4796TIP3    H235804   6.250   2.169  11.901 -0.2288 -3.8942 -2.8441
 4797TIP3   OH235805   3.168   1.150  11.120 -0.1605 -0.3482  0.1139
 4797TIP3    H135806   3.118   1.221  11.158  0.6180 -0.4728  1.4400
 4797TIP3    H235807   3.244   1.140  11.178  0.0398 -1.8765 -0.3595
 4798TIP3   OH235808   1.460   3.359  12.882 -0.0168 -0.0571  0.3056
 4798TIP3    H135809   1.400   3.295  12.842 -0.6022  0.7570 -0.1446
 4798TIP3    H235810   1.501   3.311  12.954 -1.9546 -0.3481  1.2683
 4799TIP3   OH235811   3.114   1.096   3.185  0.4986 -0.1559  0.9118
 4799TIP3    H135812   3.127   1.159   3.113  2.4672  0.8940  2.0903
 4799TIP3    H235813   3.048   1.036   3.152  0.1088  1.2634 -1.1318
 4800TIP3   OH235814   0.225   0.558   0.789 -0.0081 -0.4799 -0.1075
 4800TIP3    H135815   0.276   0.487   0.750 -0.6868 -1.8843  1.4719
 4800TIP3    H235816   0.282   0.635   0.782  1.6823 -1.6591  0.2162
 4801TIP3   OH235817   4.738   6.215  11.920 -0.4056 -0.3706  0.1583
 4801TIP3    H135818   4.828   6.180  11.925 -0.7674 -1.1989  1.3422
 4801TIP3    H235819   4.742   6.298  11.968 -0.3439 -0.5677  0.4969
 4802TIP3   OH235820   5.750   2.086   2.645  0.0518 -0.0113 -0.5727
 4802TIP3    H135821   5.779   2.104   2.555  0.4669  2.0599 -0.0819
 4802TIP3    H235822   5.798   2.150   2.698 -1.0353 -0.4560  0.9912
 4803TIP3   OH235823   4.526   1.425  11.364 -0.0916  0.2311 -0.6966
 4803TIP3    H135824   4.589   1.393  11.429  1.5099  2.0698 -1.2693
 4803TIP3    H235825   4.446   1.375  11.382  1.1663 -1.3652  0.7968
 4804TIP3   OH235826   2.770   2.194   1.938  0.2229  0.8163 -0.4869
 4804TIP3    H135827   2.715   2.118   1.918  0.5643  0.2905  0.4882
 4804TIP3    H235828   2.825   2.205   1.860  1.7429 -1.3641  0.1714
 4805TIP3   OH235829   1.261   0.884   1.193 -0.9327 -0.5231  0.5008
 4805TIP3    H135830   1.300   0.827   1.127 -1.5193 -0.1359 -0.1976
 4805TIP3    H235831   1.302   0.969   1.178 -2.4927  0.0721 -0.7084
 4806TIP3   OH235832   3.160   2.627  12.628  0.2364  0.0693 -0.1162
 4806TIP3    H135833   3.076   2.670  12.610 -0.6910 -0.9917  1.4474
 4806TIP3    H235834   3.152   2.542  12.585  1.3237  0.6956 -1.6201
 4807TIP3   OH235835   0.856   0.669  16.365 -0.2624  0.1900  0.7228
 4807TIP3    H135836   0.762   0.651  16.374 -0.5731  2.3857  2.8526
 4807TIP3    H235837   0.890   0.663  16.454  1.6210 -0.3390  0.0148
 4808TIP3   OH235838   1.193   3.767  11.822  0.4507 -0.3018  0.1462
 4808TIP3    H135839   1.249   3.842  11.802  1.0332 -0.7677 -0.0136
 4808TIP3    H235840   1.239   3.692  11.783 -0.0324 -0.7646  0.4529
 4809TIP3   OH235841   1.285   4.143   5.023 -0.4069 -0.3879  0.5444
 4809TIP3    H135842   1.252   4.153   5.112  1.3747  1.2979  1.0894
 4809TIP3    H235843   1.358   4.081   5.032  1.9368  2.2454  0.9712
 4810TIP3   OH235844   4.768   4.493  16.868  0.6834 -0.7593 -0.0086
 4810TIP3    H135845   4.851   4.535  16.891  0.5797 -1.6594  2.2756
 4810TIP3    H235846   4.793   4.419  16.813  1.3360 -0.6794  0.1761
 4811TIP3   OH235847   6.450   3.598  10.685 -0.4274  0.3231 -0.3654
 4811TIP3    H135848   6.524   3.538  10.688  0.1282  1.0386  0.3756
 4811TIP3    H235849   6.391   3.567  10.754 -0.1512  0.6167  0.0015
 4812TIP3   OH235850   0.359   4.659   4.381  0.6555 -0.2121  0.4358
 4812TIP3    H135851   0.391   4.662   4.291 -1.6850  0.1261 -0.4632
 4812TIP3    H235852   0.365   4.750   4.412 -1.1665  0.2619 -0.4494
 4813TIP3   OH235853   3.976   5.754  14.663  0.4856  0.1225 -0.8413
 4813TIP3    H135854   3.923   5.710  14.730  1.9116 -2.1993 -1.0873
 4813TIP3    H235855   4.010   5.832  14.707  2.1887 -1.8232  1.6431
 4814TIP3   OH235856   6.445   1.835   4.323 -0.1936 -0.3415 -0.1185
 4814TIP3    H135857   6.377   1.778   4.286 -1.5956  1.6905 -0.8232
 4814TIP3    H235858   6.503   1.854   4.249 -2.0349  2.3425 -0.9881
 4815TIP3   OH235859   2.294   4.944  15.909  0.7088  0.1084 -0.5076
 4815TIP3    H135860   2.251   5.000  15.844  0.2232  1.0359  0.5813
 4815TIP3    H235861   2.305   4.860  15.864  0.4513  0.7403 -1.8079
 4816TIP3   OH235862   2.079   0.263   3.188  0.1721  0.0310  0.4935
 4816TIP3    H135863   2.041   0.178   3.165 -1.5549  1.2174 -1.4481
 4816TIP3    H235864   2.035   0.287   3.270 -0.1038 -0.4653  0.4968
 4817TIP3   OH235865   6.472   3.995   3.507  0.0679  0.1578  0.0476
 4817TIP3    H135866   6.503   3.959   3.590 -1.0864  1.5035  1.1166
 4817TIP3    H235867   6.382   4.021   3.525 -0.3929 -0.0500 -1.8170
 4818TIP3   OH235868   5.537   5.395  13.691 -0.2680  0.1209 -0.1467
 4818TIP3    H135869   5.529   5.353  13.776  3.2104  1.7935  1.2249
 4818TIP3    H235870   5.580   5.330  13.636  0.2197  0.0125  0.3464
 4819TIP3   OH235871   4.503   5.522  11.688 -0.3774  0.4760  0.3320
 4819TIP3    H135872   4.471   5.603  11.649 -1.1412 -0.5549 -1.3012
 4819TIP3    H235873   4.433   5.493  11.746  0.1624  1.2782  1.4162
 4820TIP3   OH235874   1.145   3.885  17.195  0.5076 -0.0888 -0.0533
 4820TIP3    H135875   1.240   3.879  17.194  0.4245 -1.8575 -0.7504
 4820TIP3    H235876   1.120   3.858  17.284  0.6907  2.3766  0.8361
 4821TIP3   OH235877   1.175   5.414  16.175  0.3621 -0.0440  0.3424
 4821TIP3    H135878   1.135   5.431  16.090 -0.0302 -0.0310  0.5260
 4821TIP3    H235879   1.149   5.490  16.229 -0.9346 -0.9250  1.0116
 4822TIP3   OH235880   6.510   5.630   2.990 -0.6219 -0.1349  0.3161
 4822TIP3    H135881   6.520   5.539   2.960 -1.3978  0.0563 -0.5620
 4822TIP3    H235882   6.571   5.679   2.935 -0.9354  0.0102  0.0983
 4823TIP3   OH235883   5.273   3.415  11.669  0.3597  0.2376  0.2452
 4823TIP3    H135884   5.248   3.450  11.755 -1.8765 -0.5926  0.0066
 4823TIP3    H235885   5.324   3.337  11.689  1.4898  1.0863  0.7841
 4824TIP3   OH235886   6.454   1.771   0.661  0.1273  0.2264 -0.2341
 4824TIP3    H135887   6.449   1.679   0.633  0.1189 -1.1285  3.6452
 4824TIP3    H235888   6.398   1.818   0.599 -0.8051 -2.5440 -1.6837
 4825TIP3   OH235889   0.604   2.513   3.933  0.4189  0.0834 -0.4840
 4825TIP3    H135890   0.518   2.517   3.974  0.4770 -1.4525 -0.1445
 4825TIP3    H235891   0.591   2.461   3.854  1.5162 -3.0275  1.1765
 4826TIP3   OH235892   1.274   0.440   1.196 -0.4940  0.4965 -0.0216
 4826TIP3    H135893   1.206   0.475   1.138  1.1280  3.0183 -0.5723
 4826TIP3    H235894   1.226   0.403   1.270 -2.4979  0.5271 -1.2296
 4827TIP3   OH235895   4.779   6.366  11.622 -0.3745 -0.5500 -0.1210
 4827TIP3    H135896   4.775   6.302  11.693 -1.6990  0.3062  0.6301
 4827TIP3    H235897   4.807   6.447  11.665 -1.4445  0.0382 -0.4956
 4828TIP3   OH235898   0.378   0.420  12.690 -0.0188 -0.0741  0.0191
 4828TIP3    H135899   0.463   0.392  12.725 -0.4451 -0.7684  0.5281
 4828TIP3    H235900   0.335   0.464  12.764 -0.1386  0.2101 -0.2159
 4829TIP3   OH235901   0.293   6.235   1.162  0.4555 -0.3562 -0.0448
 4829TIP3    H135902   0.249   6.317   1.139  0.5624 -0.5213 -0.8753
 4829TIP3    H235903   0.338   6.254   1.244  0.7886  0.5343 -0.4252
 4830TIP3   OH235904   6.068   3.930  16.375  0.4693  0.3409  0.2789
 4830TIP3    H135905   6.147   3.960  16.330 -0.6798  1.4023 -1.1440
 4830TIP3    H235906   6.034   4.009  16.417  0.1790 -0.1076  0.8903
 4831TIP3   OH235907   5.889   4.246   5.557  0.4736 -0.6971  0.6126
 4831TIP3    H135908   5.982   4.270   5.554  0.1770  0.4990  0.3757
 4831TIP3    H235909   5.861   4.269   5.646 -0.0704  0.8969  0.0536
 4832TIP3   OH235910   3.232   4.151   1.348  0.3014 -0.1946 -0.2455
 4832TIP3    H135911   3.248   4.057   1.343  0.4177 -0.2619  0.9988
 4832TIP3    H235912   3.239   4.182   1.257  0.2238 -1.3813 -0.6721
 4833TIP3   OH235913   5.614   3.885  13.370  0.7308  0.3285 -0.6997
 4833TIP3    H135914   5.588   3.915  13.458  2.9478 -0.7343  0.3911
 4833TIP3    H235915   5.615   3.790  13.377 -0.9784  0.1179 -2.5280
 4834TIP3   OH235916   3.545   3.481   1.562  0.2958  0.0042 -0.4802
 4834TIP3    H135917   3.543   3.516   1.473 -1.0400  0.4942 -0.2828
 4834TIP3    H235918   3.518   3.389   1.552 -1.7063  0.5392 -0.4143
 4835TIP3   OH235919   3.720   4.814   3.796  0.4828  0.3602 -0.0872
 4835TIP3    H135920   3.642   4.841   3.845  0.3638 -0.3939  0.1424
 4835TIP3    H235921   3.694   4.822   3.704 -0.6608 -2.0426 -0.0458
 4836TIP3   OH235922   4.092   3.494   5.492  0.4607  0.3774 -0.3638
 4836TIP3    H135923   4.045   3.441   5.556  1.0300 -0.5626 -0.7101
 4836TIP3    H235924   4.102   3.437   5.415  0.7893  1.0935 -0.8676
 4837TIP3   OH235925   3.436   5.639  11.198 -0.2550 -0.1157  0.0730
 4837TIP3    H135926   3.515   5.648  11.145  0.0328  0.5875  0.6173
 4837TIP3    H235927   3.375   5.593  11.140 -0.6750  2.4241 -1.6907
 4838TIP3   OH235928   2.989   4.888  15.719  0.5462 -0.0688 -0.3173
 4838TIP3    H135929   3.046   4.900  15.795  1.8897 -1.7970 -0.9765
 4838TIP3    H235930   2.960   4.797  15.725 -1.2383  0.4415 -0.6419
 4839TIP3   OH235931   1.070   3.055  15.530  0.6955 -0.1194 -0.3981
 4839TIP3    H135932   1.120   2.977  15.505 -0.4732 -1.0268 -0.0078
 4839TIP3    H235933   1.131   3.127  15.519  2.1502 -1.2036  0.2313
 4840TIP3   OH235934   4.593   4.170   0.804 -0.2672  0.0665  0.2980
 4840TIP3    H135935   4.575   4.164   0.710  0.1533  0.7234  0.1662
 4840TIP3    H235936   4.522   4.225   0.838 -1.2108 -1.2962  0.6191
 4841TIP3   OH235937   3.057   6.708  16.852  0.5574 -0.2356 -0.0929
 4841TIP3    H135938   3.092   6.624  16.883  0.5795 -0.2572 -0.1777
 4841TIP3    H235939   3.071   6.706  16.757  2.4988  0.7611  0.1194
 4842TIP3   OH235940   6.287   4.763   0.788 -0.1227  0.0285 -0.5749
 4842TIP3    H135941   6.349   4.788   0.856  0.0770  0.9257 -1.0742
 4842TIP3    H235942   6.324   4.798   0.707 -1.5914  1.2177 -0.7900
 4843TIP3   OH235943   5.078   6.227   5.805 -0.7333 -0.2805 -0.3139
 4843TIP3    H135944   5.113   6.146   5.842 -1.4848 -0.6668 -0.4288
 4843TIP3    H235945   5.031   6.199   5.726 -0.0314  0.4079 -0.9940
 4844TIP3   OH235946   5.756   4.935   2.625  0.3376 -0.0096  0.2148
 4844TIP3    H135947   5.759   4.976   2.539  0.5376 -3.2258 -1.4473
 4844TIP3    H235948   5.843   4.951   2.663  0.4593  0.9031 -0.4314
 4845TIP3   OH235949   2.706   1.275  14.265  0.4436 -0.0860 -1.1067
 4845TIP3    H135950   2.651   1.311  14.196  1.1461  1.7053 -0.8047
 4845TIP3    H235951   2.655   1.285  14.345 -0.5547 -2.5698 -1.3355
 4846TIP3   OH235952   1.159   5.834   4.700 -0.1660 -0.7883  0.1192
 4846TIP3    H135953   1.094   5.804   4.636 -2.1687  3.1062  0.0105
 4846TIP3    H235954   1.233   5.863   4.646 -0.3838 -0.7294 -0.1524
 4847TIP3   OH235955   6.448   3.375   3.678 -0.5055 -0.0823 -0.5927
 4847TIP3    H135956   6.418   3.284   3.680 -0.9917  0.0647 -1.0615
 4847TIP3    H235957   6.411   3.413   3.758  0.4251 -0.5087  0.0640
 4848TIP3   OH235958   4.264   0.652  13.647 -0.0140 -0.0597 -0.4125
 4848TIP3    H135959   4.248   0.558  13.649  0.4612 -0.1563 -1.2113
 4848TIP3    H235960   4.182   0.690  13.680  0.2307 -0.7824  1.1340
 4849TIP3   OH235961   5.974   4.125   5.862 -0.5279 -0.5187 -0.0504
 4849TIP3    H135962   6.048   4.077   5.899  1.0993 -0.1914 -2.6108
 4849TIP3    H235963   5.982   4.213   5.898  0.7251 -0.3310 -0.7074
 4850TIP3   OH235964   4.430   5.493  17.290  0.5874  0.3211 -0.0914
 4850TIP3    H135965   4.401   5.439  17.216 -1.8131 -0.8232  1.5362
 4850TIP3    H235966   4.351   5.508  17.341  1.3075  4.6533  0.1416
 4851TIP3   OH235967   5.356   1.465   5.042  0.0660  0.1678 -0.5562
 4851TIP3    H135968   5.399   1.417   4.971  0.9174 -0.0229  0.0795
 4851TIP3    H235969   5.289   1.405   5.075  0.5609 -0.2605 -0.3227
 4852TIP3   OH235970   1.151   0.422   0.397 -1.1055  0.3851  0.0307
 4852TIP3    H135971   1.062   0.386   0.397 -1.4916  1.0429 -3.1638
 4852TIP3    H235972   1.173   0.430   0.304  2.8048 -0.9101  0.6609
 4853TIP3   OH235973   4.936   0.221  17.123  0.1434 -0.4897 -0.1037
 4853TIP3    H135974   4.848   0.189  17.101 -0.4378  0.9944 -0.0539
 4853TIP3    H235975   4.938   0.219  17.219  1.1894 -3.0612 -0.0871
 4854TIP3   OH235976   0.829   1.110  16.712  0.1708  0.0690  0.1417
 4854TIP3    H135977   0.830   1.165  16.790  1.8135 -0.7701  0.7636
 4854TIP3    H235978   0.772   1.037  16.735  2.1775 -1.1995  1.3741
 4855TIP3   OH235979   3.741   0.158   1.958  0.2442 -0.9231 -0.1492
 4855TIP3    H135980   3.678   0.109   2.012  0.5265  0.0242  1.0911
 4855TIP3    H235981   3.727   0.125   1.869 -1.3347 -1.4142  0.2446
 4856TIP3   OH235982   6.194   1.082   1.094  0.2350 -0.1310  0.2763
 4856TIP3    H135983   6.107   1.041   1.102  0.7755 -1.7666 -1.4058
 4856TIP3    H235984   6.185   1.143   1.021  0.8161 -1.4011 -0.9116
 4857TIP3   OH235985   4.388   5.361  15.775 -0.6089  0.0377  0.4715
 4857TIP3    H135986   4.340   5.288  15.734 -3.4870  1.4316  1.0854
 4857TIP3    H235987   4.453   5.319  15.830 -2.3962 -2.1243  1.0784
 4858TIP3   OH235988   6.177   5.094  13.841  0.5395 -0.0225 -0.4474
 4858TIP3    H135989   6.256   5.071  13.890  0.9143 -0.1953 -1.1314
 4858TIP3    H235990   6.106   5.058  13.894  0.9739 -0.6261 -0.2635
 4859TIP3   OH235991   5.665   3.700  13.672  0.2139 -0.0768 -0.2582
 4859TIP3    H135992   5.638   3.631  13.612 -1.1793 -0.5323  0.8176
 4859TIP3    H235993   5.589   3.758  13.677  0.2804 -0.0651  1.0469
 4860TIP3   OH235994   1.468   1.449   0.714  0.1550 -0.3977 -0.2693
 4860TIP3    H135995   1.495   1.462   0.623  0.6133 -1.1050 -0.2417
 4860TIP3    H235996   1.550   1.435   0.762 -0.0114  0.8182  0.4066
 4861TIP3   OH235997   6.751   4.721  10.668  0.5698 -0.5710  0.0928
 4861TIP3    H135998   6.695   4.648  10.642  0.4555 -0.4914  0.1162
 4861TIP3    H235999   6.751   4.779  10.593 -0.2317 -0.0554  0.4764
 4862TIP3   OH236000   5.511   3.127   1.534 -0.3395  0.5933 -0.4068
 4862TIP3    H136001   5.565   3.112   1.611 -1.0285 -0.3780 -0.0952
 4862TIP3    H236002   5.570   3.169   1.471  0.5199  0.3956  0.2522
 4863TIP3   OH236003   6.372   3.812  14.794  0.5238 -0.2028 -0.0603
 4863TIP3    H136004   6.325   3.728  14.796  0.8231 -0.3533  0.9513
 4863TIP3    H236005   6.366   3.839  14.702 -2.7507  0.4660  0.2012
 4864TIP3   OH236006   1.039   2.838   3.330 -0.1465 -0.4550 -0.1314
 4864TIP3    H136007   1.091   2.858   3.252 -0.9676 -2.1146 -1.1581
 4864TIP3    H236008   0.950   2.862   3.305  0.0853  3.3840  1.9827
 4865TIP3   OH236009   3.180   3.469  13.421 -0.1545 -0.3597 -0.1934
 4865TIP3    H136010   3.220   3.554  13.439  1.3016 -1.5613  3.2268
 4865TIP3    H236011   3.239   3.427  13.359  0.2286  0.3861 -0.3441
 4866TIP3   OH236012   3.911   1.172  11.720  0.0242  0.2115  0.0664
 4866TIP3    H136013   3.903   1.185  11.815 -0.5265  0.0177  0.0520
 4866TIP3    H236014   3.851   1.100  11.701  0.2044  0.1864 -0.4182
 4867TIP3   OH236015   0.050   5.692  11.630  0.0832  0.4784  0.9375
 4867TIP3    H136016   0.075   5.761  11.569 -0.2696 -0.7065 -0.5928
 4867TIP3    H236017  -0.025   5.728  11.677  1.1898  1.9292  1.6961
 4868TIP3   OH236018   1.814   6.221  11.585 -0.2350 -0.0340 -0.0142
 4868TIP3    H136019   1.774   6.211  11.498 -0.4228  0.8541 -0.0369
 4868TIP3    H236020   1.777   6.302  11.619  1.6517  0.9088 -0.1075
 4869TIP3   OH236021   4.883   6.372   5.423  0.9088 -0.0682 -0.3573
 4869TIP3    H136022   4.893   6.321   5.504 -0.3773 -0.2357 -0.2876
 4869TIP3    H236023   4.816   6.437   5.444  0.7852  0.0828 -1.1932
 4870TIP3   OH236024   0.436   3.604  13.365 -1.0424 -0.7472 -0.4065
 4870TIP3    H136025   0.403   3.678  13.416 -0.5915 -1.6517  1.2713
 4870TIP3    H236026   0.530   3.618  13.361 -1.0941 -0.5875 -1.1780
 4871TIP3   OH236027   6.130   5.468  17.177 -0.0730 -0.3250 -0.1270
 4871TIP3    H136028   6.134   5.372  17.176  1.2526 -0.2934  0.5377
 4871TIP3    H236029   6.069   5.488  17.248 -0.3657 -0.6664 -0.2743
 4872TIP3   OH236030   6.345   2.984  13.201  0.5946  0.0189  0.8525
 4872TIP3    H136031   6.277   2.985  13.133  0.0681  1.5554  1.3519
 4872TIP3    H236032   6.341   2.896  13.239 -1.7789  0.3470  1.4954
 4873TIP3   OH236033   3.712   0.243  13.239  0.1964 -0.0139  0.4928
 4873TIP3    H136034   3.669   0.300  13.175 -0.9734 -0.5114  0.8213
 4873TIP3    H236035   3.704   0.289  13.322  1.2075  0.3591  0.4039
 4874TIP3   OH236036   0.178   5.455   1.765 -0.3111  0.1299 -0.2315
 4874TIP3    H136037   0.243   5.507   1.813 -1.0357  0.9925 -0.1654
 4874TIP3    H236038   0.112   5.518   1.737 -0.6321 -0.5818 -1.1465
 4875TIP3   OH236039   4.590   0.668   4.451  0.4131  0.6079 -0.1828
 4875TIP3    H136040   4.515   0.661   4.509 -0.6825  0.4756 -1.5577
 4875TIP3    H236041   4.617   0.760   4.458  0.6706  0.4617  0.9392
 4876TIP3   OH236042   6.381   5.973  15.972 -0.0368  0.1480  0.0536
 4876TIP3    H136043   6.401   6.060  15.937 -0.8041 -0.1035 -1.0517
 4876TIP3    H236044   6.440   5.914  15.925 -1.3630 -0.2455 -1.1970
 4877TIP3   OH236045   5.591   2.452   6.036  0.0551  0.3778  0.9884
 4877TIP3    H136046   5.574   2.435   6.129  0.0933 -1.6584  0.6771
 4877TIP3    H236047   5.604   2.365   5.998  0.1876  1.1751 -0.9087
 4878TIP3   OH236048   0.362   4.974  13.176  0.2819 -0.0568  0.0499
 4878TIP3    H136049   0.351   4.996  13.083 -1.0911 -3.7806 -0.8447
 4878TIP3    H236050   0.433   4.910  13.177 -1.0865 -1.6529  1.1968
 4879TIP3   OH236051   5.851   0.023  12.831 -0.1447  0.0383  0.2920
 4879TIP3    H136052   5.885   0.106  12.863  0.9808 -0.2711 -0.0621
 4879TIP3    H236053   5.783   0.047  12.768 -0.0023  0.6847  0.3868
 4880TIP3   OH236054   0.530   0.418   5.743  0.0288 -0.2025 -0.0545
 4880TIP3    H136055   0.436   0.403   5.738  0.0394 -0.1422 -0.4221
 4880TIP3    H236056   0.547   0.431   5.837 -0.6835  2.0128 -0.1708
 4881TIP3   OH236057   1.535   2.479  15.640 -0.1259  0.3013  0.0694
 4881TIP3    H136058   1.537   2.384  15.652 -0.5924  0.3799  0.8332
 4881TIP3    H236059   1.627   2.506  15.640  0.1249 -0.3731 -2.1703
 4882TIP3   OH236060   3.146   1.735   5.611  0.2914  0.5383 -0.1015
 4882TIP3    H136061   3.172   1.808   5.668  0.0835  0.3106  0.2925
 4882TIP3    H236062   3.113   1.777   5.532 -2.1632  1.0185  1.0507
 4883TIP3   OH236063   5.963   3.175  16.155 -0.0767  0.3967  0.0243
 4883TIP3    H136064   5.992   3.108  16.217 -0.6745  0.2902  0.1969
 4883TIP3    H236065   5.928   3.245  16.210  1.5573  1.3585 -0.1012
 4884TIP3   OH236066   3.398   4.017  16.994  0.4315  0.4538 -0.5463
 4884TIP3    H136067   3.454   3.967  17.053 -0.2237 -0.2830 -0.5251
 4884TIP3    H236068   3.433   3.999  16.906  0.5542  0.4292 -0.4910
 4885TIP3   OH236069   2.429   5.025   1.185  0.0862  0.2045 -0.0568
 4885TIP3    H136070   2.396   5.091   1.246  0.8919 -0.5922  1.2863
 4885TIP3    H236071   2.511   5.061   1.152  0.5600 -0.1352  0.7278
 4886TIP3   OH236072   5.791   3.103  11.190 -0.4988  0.9401 -0.7931
 4886TIP3    H136073   5.725   3.035  11.176  0.1758  0.3829 -1.3211
 4886TIP3    H236074   5.875   3.057  11.183 -0.0350  1.3885  1.0459
 4887TIP3   OH236075   1.756   3.911  15.371 -0.1094  0.2053 -0.2655
 4887TIP3    H136076   1.736   4.001  15.396  1.2170  0.2115  0.8354
 4887TIP3    H236077   1.824   3.919  15.304 -1.4218  0.0572 -1.6946
 4888TIP3   OH236078   0.673   5.406   3.897  0.3481  0.2092  0.3590
 4888TIP3    H136079   0.616   5.375   3.967  0.7031 -0.0162  0.5458
 4888TIP3    H236080   0.614   5.456   3.840  0.2162  1.0733  1.2350
 4889TIP3   OH236081   2.349   1.058   2.725  0.7533  0.1221  0.4163
 4889TIP3    H136082   2.272   1.079   2.779 -0.5607  0.7975 -1.6099
 4889TIP3    H236083   2.352   0.963   2.725  0.4915  0.0972  1.2674
 4890TIP3   OH236084   5.657   5.510   4.892 -0.3983 -0.0162 -0.2535
 4890TIP3    H136085   5.722   5.440   4.895  1.1669  1.1741 -2.4520
 4890TIP3    H236086   5.583   5.473   4.843 -0.9422 -1.0210  1.2619
 4891TIP3   OH236087   4.668   3.463   5.292 -1.0145  0.2292 -0.2508
 4891TIP3    H136088   4.614   3.540   5.313 -1.7104 -0.1390 -0.6599
 4891TIP3    H236089   4.632   3.430   5.210 -0.2139 -0.0819 -0.4877
 4892TIP3   OH236090   0.463   3.221  15.216  0.3501  0.5192  0.8824
 4892TIP3    H136091   0.389   3.246  15.272 -0.0463  2.0668 -0.2640
 4892TIP3    H236092   0.484   3.301  15.167  2.1648 -0.1665  0.4822
 4893TIP3   OH236093   0.293   2.039   5.805  0.2638 -0.7009  0.0109
 4893TIP3    H136094   0.368   2.070   5.755  0.8404 -2.5779 -0.3750
 4893TIP3    H236095   0.327   2.022   5.893  0.6560 -2.7508 -0.4898
 4894TIP3   OH236096   4.083   5.670   7.052 -0.2865  0.4314 -0.3174
 4894TIP3    H136097   4.107   5.742   7.110 -1.5961  0.6637 -0.0164
 4894TIP3    H236098   4.153   5.667   6.987 -0.4010  2.2576 -0.5869
 4895TIP3   OH236099   5.618   2.220   5.923 -0.1095  0.2888  0.0664
 4895TIP3    H136100   5.576   2.169   5.992  1.7794 -1.2836  0.1548
 4895TIP3    H236101   5.626   2.159   5.850  2.2155  0.3945  0.1707
 4896TIP3   OH236102   2.143   5.750   2.021 -0.3316 -0.5109  0.0393
 4896TIP3    H136103   2.191   5.695   1.959 -1.7411 -1.2672 -0.4035
 4896TIP3    H236104   2.083   5.691   2.065 -1.4239  0.5467  0.0190
 4897TIP3   OH236105   2.290   5.906  11.870 -0.1728  0.0172 -0.0919
 4897TIP3    H136106   2.385   5.919  11.875 -0.1600  0.2229 -0.7154
 4897TIP3    H236107   2.254   5.993  11.890 -0.1528  0.5232 -2.0489
 4898TIP3   OH236108   6.528   3.841  16.598 -0.2747 -0.0907  0.3213
 4898TIP3    H136109   6.559   3.874  16.682 -0.8519  0.3604  0.3671
 4898TIP3    H236110   6.437   3.817  16.613 -0.5834  0.6173 -0.3258
 4899TIP3   OH236111   5.084   0.435  16.175  0.4736 -0.2160  0.3062
 4899TIP3    H136112   5.163   0.383  16.188  0.3482 -1.1759 -2.2664
 4899TIP3    H236113   5.013   0.371  16.169 -0.0327  0.3863 -0.5160
 4900TIP3   OH236114   3.621   1.915   2.245  0.1977  0.1532 -0.4576
 4900TIP3    H136115   3.625   2.006   2.215 -1.0571 -0.1450 -1.6281
 4900TIP3    H236116   3.541   1.910   2.297  0.5004 -0.1852 -0.0141
 4901TIP3   OH236117   0.207   4.568  12.141 -0.6390 -0.2009  0.7947
 4901TIP3    H136118   0.229   4.500  12.077 -0.4304  1.3220 -0.8442
 4901TIP3    H236119   0.112   4.577  12.135 -0.9678 -1.7738  2.6008
 4902TIP3   OH236120   5.977   4.982  16.125  0.0395  0.3622 -0.1810
 4902TIP3    H136121   5.883   4.973  16.110  0.0321  0.7534 -0.3949
 4902TIP3    H236122   5.985   5.060  16.180  0.0098 -1.4392  2.5263
 4903TIP3   OH236123   0.013   3.432   5.688 -0.1395  0.0006  0.3851
 4903TIP3    H136124   0.064   3.408   5.610  1.3501 -0.3324  1.4077
 4903TIP3    H236125  -0.016   3.521   5.672  2.8697  1.1605  0.7052
 4904TIP3   OH236126   1.917   1.279  15.763  0.2519  0.6554 -0.1539
 4904TIP3    H136127   1.908   1.218  15.689  0.3154  0.0835  0.3036
 4904TIP3    H236128   1.972   1.350  15.729  0.6275  0.1885 -0.5347
 4905TIP3   OH236129   5.105   4.252  10.713  0.3355 -0.2259  0.0012
 4905TIP3    H136130   5.107   4.294  10.799 -0.5935 -1.3230  0.5880
 4905TIP3    H236131   5.154   4.312  10.656  0.6710  0.6918  1.2048
 4906TIP3   OH236132   5.202   0.692  12.246 -0.2714  0.2765  0.2673
 4906TIP3    H136133   5.240   0.774  12.277 -2.0294  0.6847  1.4822
 4906TIP3    H236134   5.273   0.649  12.198  1.0415  1.9429  0.6394
 4907TIP3   OH236135   5.316   4.479   2.882 -0.7901  0.2047  0.2551
 4907TIP3    H136136   5.380   4.462   2.952  0.5747 -2.4513 -1.4937
 4907TIP3    H236137   5.241   4.424   2.905 -0.9856  0.5415  0.4286
 4908TIP3   OH236138   6.153   0.664   5.351 -0.4029 -0.3509 -0.5099
 4908TIP3    H136139   6.058   0.660   5.366 -0.6585 -0.7313 -2.1340
 4908TIP3    H236140   6.184   0.727   5.417 -2.0335  1.1198 -1.0565
 4909TIP3   OH236141   2.109   3.515  15.848 -0.2715 -0.3762  0.1215
 4909TIP3    H136142   2.066   3.464  15.916 -2.1739  2.0630  0.9142
 4909TIP3    H236143   2.162   3.579  15.896  0.9521 -0.6486 -0.8042
 4910TIP3   OH236144   3.012   4.363  13.070  0.3152  0.2345  0.4051
 4910TIP3    H136145   2.927   4.405  13.088  0.8736  1.4626  0.2684
 4910TIP3    H236146   3.076   4.427  13.101  1.3121  1.1840 -3.1503
 4911TIP3   OH236147   2.282   5.055  15.353  0.1848 -0.9355 -0.5862
 4911TIP3    H136148   2.263   5.061  15.260 -0.3651  0.0345 -0.4188
 4911TIP3    H236149   2.309   5.143  15.378 -1.6533 -0.6512  0.5846
 4912TIP3   OH236150   3.138   3.181   3.595 -0.1397  0.2317 -0.2862
 4912TIP3    H136151   3.073   3.251   3.586  0.0001  0.4223  0.1362
 4912TIP3    H236152   3.112   3.134   3.675 -1.4936 -1.5508 -1.6920
 4913TIP3   OH236153   1.788   1.219   2.612 -0.4415  0.3082  0.3724
 4913TIP3    H136154   1.718   1.272   2.574 -1.3657 -1.9997 -1.3524
 4913TIP3    H236155   1.853   1.211   2.541 -0.3094 -0.8078  0.6068
 4914TIP3   OH236156   3.015   4.033   5.450  0.1871 -0.1000 -0.2948
 4914TIP3    H136157   2.958   4.015   5.525 -2.4484  0.8011 -1.9586
 4914TIP3    H236158   3.049   4.121   5.467  1.0426 -0.5838  0.6356
 4915TIP3   OH236159   3.515   6.203  16.105  0.2874  1.0671 -0.5399
 4915TIP3    H136160   3.571   6.281  16.108  2.1095 -0.1748 -0.8223
 4915TIP3    H236161   3.545   6.149  16.178 -0.0444  0.0512 -1.1279
 4916TIP3   OH236162   3.589   2.487   3.913 -0.5916 -0.0454  0.2064
 4916TIP3    H136163   3.581   2.582   3.919  0.6251  0.0439  0.9358
 4916TIP3    H236164   3.626   2.472   3.826  0.0006  0.2263  0.4037
 4917TIP3   OH236165   2.128   4.329   3.214  0.7832 -0.3307  0.2816
 4917TIP3    H136166   2.132   4.247   3.165  1.0596  0.0112 -0.2712
 4917TIP3    H236167   2.083   4.306   3.295  4.3105 -1.9320  1.9703
 4918TIP3   OH236168   6.733   1.509  13.362  0.4663 -0.4700  0.2559
 4918TIP3    H136169   6.739   1.504  13.457  0.4967 -1.0654  0.2265
 4918TIP3    H236170   6.677   1.435  13.337 -0.1468  0.1144 -0.1278
 4919TIP3   OH236171   4.843   3.054   5.071 -0.2776  0.5830  0.3690
 4919TIP3    H136172   4.876   3.086   4.988  0.6766 -0.0572  0.4766
 4919TIP3    H236173   4.834   3.132   5.126  1.8005  0.7265  0.5683
 4920TIP3   OH236174   5.448   4.507   1.475  0.2839  0.4728 -0.2066
 4920TIP3    H136175   5.494   4.491   1.557 -1.5892  1.3313  1.0851
 4920TIP3    H236176   5.463   4.599   1.456  0.9936  0.1965 -1.0313
 4921TIP3   OH236177   2.329   1.067  17.279 -0.3712  0.3652 -0.5654
 4921TIP3    H136178   2.418   1.033  17.290 -0.6878 -0.9219 -1.5969
 4921TIP3    H236179   2.295   1.018  17.204 -2.0786  0.5774  0.0367
 4922TIP3   OH236180   4.025   1.846  11.554  0.2849  0.2315  0.2005
 4922TIP3    H136181   4.047   1.921  11.609  0.4044 -1.0803  2.0280
 4922TIP3    H236182   3.941   1.815  11.588  0.1625 -0.3972 -0.6306
 4923TIP3   OH236183   6.699   4.268  12.847  0.5121  0.4248 -0.5702
 4923TIP3    H136184   6.742   4.229  12.770  2.2776  2.2071 -0.5588
 4923TIP3    H236185   6.767   4.322  12.888 -0.8474  0.7655  1.3717
 4924TIP3   OH236186   2.033   1.761   5.035  0.1658  0.5848 -0.0673
 4924TIP3    H136187   1.994   1.686   4.990 -0.2604  0.1236  1.0548
 4924TIP3    H236188   2.127   1.752   5.017  0.0598  0.1159 -0.4210
 4925TIP3   OH236189   3.252   4.171   3.871 -0.3264 -0.0969  0.7069
 4925TIP3    H136190   3.321   4.133   3.924  1.2467  0.4094 -0.8730
 4925TIP3    H236191   3.237   4.106   3.801 -0.6143  0.3126  0.3799
 4926TIP3   OH236192   2.269   1.845   1.944 -0.0447 -0.2790  0.2688
 4926TIP3    H136193   2.319   1.926   1.955  0.6653 -0.5327 -0.9185
 4926TIP3    H236194   2.225   1.832   2.028  1.1447  0.4590  1.0265
 4927TIP3   OH236195   1.346   4.336   0.601  0.5827  0.5902  0.2581
 4927TIP3    H136196   1.320   4.406   0.661 -1.8288  0.0145 -0.0115
 4927TIP3    H236197   1.311   4.256   0.641 -1.6780  0.2647 -2.1354
 4928TIP3   OH236198   1.820   4.782   5.662 -0.1078 -0.1092  0.5743
 4928TIP3    H136199   1.777   4.775   5.747  0.0922 -1.7935  0.5711
 4928TIP3    H236200   1.887   4.713   5.664 -0.4673 -0.5440 -1.1486
 4929TIP3   OH236201   3.534   1.499   5.906  0.6418  0.4241  0.0700
 4929TIP3    H136202   3.458   1.489   5.964  0.7337 -0.1221  0.0980
 4929TIP3    H236203   3.608   1.509   5.966  0.4854  1.9622  0.0561
 4930TIP3   OH236204   4.291   6.181  12.308 -0.3924 -0.2642 -0.2865
 4930TIP3    H136205   4.222   6.246  12.316  0.6465  0.8658 -0.2387
 4930TIP3    H236206   4.365   6.219  12.354 -0.1880 -2.1335  1.0225
 4931TIP3   OH236207   5.311   5.143   4.742  0.1467 -0.3080  0.5501
 4931TIP3    H136208   5.317   5.089   4.820 -0.8623  1.5949  2.0312
 4931TIP3    H236209   5.323   5.082   4.669  1.5205 -2.0728  2.1699
 4932TIP3   OH236210   6.201   5.065   2.315  0.3272  1.0936  0.3612
 4932TIP3    H136211   6.254   5.144   2.302 -0.3782  1.6212  0.6426
 4932TIP3    H236212   6.230   5.005   2.246  0.9021  1.5759  0.1730
 4933TIP3   OH236213   6.618   5.598   5.574  0.5325 -0.4117 -0.1585
 4933TIP3    H136214   6.550   5.576   5.510 -0.2952  0.1679  0.5176
 4933TIP3    H236215   6.698   5.605   5.522  0.0872 -1.1285 -0.9569
 4934TIP3   OH236216   0.916   0.725   5.868 -0.4733 -0.3111 -0.3790
 4934TIP3    H136217   0.873   0.733   5.953  1.2931 -1.9223  0.7429
 4934TIP3    H236218   0.846   0.699   5.808 -1.4627 -0.7476  0.9171
 4935TIP3   OH236219   5.115   5.799   5.754 -0.3320 -0.3017 -0.6700
 4935TIP3    H136220   5.156   5.868   5.806 -0.3958  0.1658 -1.2306
 4935TIP3    H236221   5.187   5.742   5.728  0.0827  0.8656 -2.1815
 4936TIP3   OH236222   2.344   4.309  16.538 -0.2665  0.5378  0.2285
 4936TIP3    H136223   2.413   4.369  16.509 -0.6492  1.3990  1.0547
 4936TIP3    H236224   2.276   4.316  16.471 -0.3602  1.1256  0.3802
 4937TIP3   OH236225   0.810   4.368   4.112  0.4867 -0.0504 -0.0126
 4937TIP3    H136226   0.726   4.326   4.093 -1.5397  3.7837 -0.6503
 4937TIP3    H236227   0.821   4.432   4.042  2.1663  1.9444  1.9182
 4938TIP3   OH236228   5.363   0.491  17.149  0.4048 -0.0637  0.2181
 4938TIP3    H136229   5.346   0.585  17.157  0.0194 -0.2313  1.5996
 4938TIP3    H236230   5.280   0.455  17.116  0.9415  0.2123 -1.5183
 4939TIP3   OH236231   5.523   5.780   1.107 -0.3284  0.3873  0.2366
 4939TIP3    H136232   5.490   5.731   1.033  0.1544  0.5826 -0.1173
 4939TIP3    H236233   5.446   5.804   1.158 -0.5467 -1.0581  0.6269
 4940TIP3   OH236234   4.688   5.072  16.313 -0.7757 -0.2597  1.1165
 4940TIP3    H136235   4.666   5.153  16.267  0.7239 -0.1120  0.5741
 4940TIP3    H236236   4.640   5.004  16.265  1.5143 -0.2479 -1.4630
 4941TIP3   OH236237   1.406   6.547   1.806  0.2081 -0.4557 -0.0158
 4941TIP3    H136238   1.446   6.556   1.893 -2.3519  0.6847  1.1532
 4941TIP3    H236239   1.347   6.472   1.815 -1.2480  0.6214 -0.2216
 4942TIP3   OH236240   3.238   2.721  12.010 -0.2408  0.3547  0.1339
 4942TIP3    H136241   3.305   2.768  11.960 -1.0582  0.4554 -0.9189
 4942TIP3    H236242   3.158   2.772  11.994 -0.8188 -0.4972  0.2928
 4943TIP3   OH236243   5.154   5.651  16.130 -0.5918  0.5258 -0.6287
 4943TIP3    H136244   5.099   5.693  16.197 -1.7037 -1.1327 -0.4456
 4943TIP3    H236245   5.199   5.724  16.087  0.4222  1.6266  2.1094
 4944TIP3   OH236246   2.983   2.465   1.456  0.5899  0.5711  0.0464
 4944TIP3    H136247   3.013   2.379   1.426 -0.9663  0.3617 -0.9821
 4944TIP3    H236248   2.973   2.455   1.551  0.7577 -0.2658 -0.0162
 4945TIP3   OH236249   2.519   2.327  16.275 -0.4751  0.2398  0.0856
 4945TIP3    H136250   2.471   2.316  16.357 -2.1693 -0.4634 -0.9476
 4945TIP3    H236251   2.521   2.239  16.237 -0.1793  0.6541 -0.8766
 4946TIP3   OH236252   0.026   3.389  14.005 -0.6088 -0.0771  0.0561
 4946TIP3    H136253  -0.056   3.340  13.996 -1.2096  1.0081 -0.4842
 4946TIP3    H236254   0.091   3.322  14.027 -1.3702 -1.1620 -0.8711
 4947TIP3   OH236255   5.512   2.273   2.777 -0.0923 -0.1367  0.0863
 4947TIP3    H136256   5.574   2.208   2.746 -0.2626 -0.8358  1.1536
 4947TIP3    H236257   5.509   2.339   2.708  2.7161  0.5447  0.4728
 4948TIP3   OH236258   4.736   1.499   4.283  0.2101  0.0503  0.3085
 4948TIP3    H136259   4.642   1.480   4.283  0.0757  0.6849  0.7032
 4948TIP3    H236260   4.765   1.477   4.195 -0.4992  0.7386 -0.1108
 4949TIP3   OH236261   5.058   1.751   2.515  0.3302  0.1096 -0.5705
 4949TIP3    H136262   5.083   1.780   2.603  0.3204 -1.1789 -0.1213
 4949TIP3    H236263   4.991   1.684   2.530 -0.0843  0.2731 -1.5884
 4950TIP3   OH236264   4.624   6.279   1.852  0.1771 -0.1036 -0.1733
 4950TIP3    H136265   4.675   6.358   1.870  1.3651 -0.6555 -1.0356
 4950TIP3    H236266   4.658   6.246   1.769 -0.1072 -1.6739  0.2998
 4951TIP3   OH236267   4.915   3.933  11.138 -0.0540  0.0880 -0.0642
 4951TIP3    H136268   4.894   3.922  11.045  2.3558 -0.3238 -0.6131
 4951TIP3    H236269   4.984   3.870  11.155  0.7266  1.3107  1.5910
 4952TIP3   OH236270   2.222   4.552   2.634 -0.7502 -0.0293 -0.6116
 4952TIP3    H136271   2.306   4.598   2.639 -0.9931  0.4597 -0.9413
 4952TIP3    H236272   2.222   4.509   2.548 -0.0506 -1.6064  0.1299
 4953TIP3   OH236273   6.039   4.079   1.988  0.0082  0.0576 -0.4830
 4953TIP3    H136274   6.089   4.013   2.037  1.9401  1.2238 -0.7633
 4953TIP3    H236275   6.028   4.041   1.901 -1.2595 -0.9755  0.0902
 4954TIP3   OH236276   4.362   0.214  16.267 -0.2150 -0.2338  0.0187
 4954TIP3    H136277   4.438   0.239  16.214  1.0160 -0.2491  1.7255
 4954TIP3    H236278   4.396   0.152  16.331 -1.9396 -1.2409  0.0282
 4955TIP3   OH236279   6.293   0.520   1.779 -0.2770 -0.3371  0.1864
 4955TIP3    H136280   6.269   0.436   1.741  1.2185 -0.5228 -0.4277
 4955TIP3    H236281   6.320   0.574   1.704  2.3530 -0.5857  0.8697
 4956TIP3   OH236282   3.217   6.084   2.398 -0.5503  0.2364  0.1153
 4956TIP3    H136283   3.271   6.121   2.468 -1.1130  0.9815  0.1704
 4956TIP3    H236284   3.269   6.096   2.318  0.4270 -1.3046  0.4753
 4957TIP3   OH236285   2.407   4.475  13.858  0.1803  0.3906 -0.4746
 4957TIP3    H136286   2.366   4.465  13.944 -1.1519  0.3528 -1.0975
 4957TIP3    H236287   2.490   4.520  13.876 -0.1691  0.5512  0.8072
 4958TIP3   OH236288   4.231   1.859  12.665 -0.5805  0.2871  0.2998
 4958TIP3    H136289   4.224   1.901  12.579 -1.4237 -1.4567 -0.5335
 4958TIP3    H236290   4.158   1.897  12.715 -2.1913 -1.0872 -0.8898
 4959TIP3   OH236291   0.135   0.938  14.157  0.0185  0.0605  0.0507
 4959TIP3    H136292   0.207   0.878  14.172 -1.5209 -1.4399  1.9408
 4959TIP3    H236293   0.103   0.960  14.244 -0.8230  1.9586 -0.6850
 4960TIP3   OH236294   5.518   2.841   4.611  0.1641  0.0660  0.4932
 4960TIP3    H136295   5.572   2.806   4.682 -0.7667 -2.4185  0.0727
 4960TIP3    H236296   5.438   2.870   4.654  0.2850  0.1621  0.6566
 4961TIP3   OH236297   0.975   2.300   3.157  0.3812 -0.2768  0.6897
 4961TIP3    H136298   0.938   2.228   3.108 -0.0290  0.5447 -0.2281
 4961TIP3    H236299   0.930   2.298   3.241 -0.0067 -0.7552  0.4720
 4962TIP3   OH236300   5.230   1.024   4.370 -0.3030  0.4130 -0.0060
 4962TIP3    H136301   5.228   0.948   4.428  0.0803 -0.4073 -1.0312
 4962TIP3    H236302   5.307   1.074   4.397 -0.5538  0.4404  0.6705
 4963TIP3   OH236303   6.717   6.464  12.732 -0.3711  0.1275  0.2210
 4963TIP3    H136304   6.656   6.479  12.804 -0.6974  0.5210 -0.1300
 4963TIP3    H236305   6.761   6.548  12.720  0.1668 -0.1257  0.4011
 4964TIP3   OH236306   5.006   2.554  11.231 -0.3488 -0.3973  0.1600
 4964TIP3    H136307   4.963   2.600  11.159 -0.0817  0.9759  0.8456
 4964TIP3    H236308   4.936   2.537  11.294 -0.3059 -0.2035  0.2612
 4965TIP3   OH236309   1.516   2.607   5.506  0.5114  0.2232 -0.5305
 4965TIP3    H136310   1.507   2.512   5.513 -0.7666  0.4174  0.8770
 4965TIP3    H236311   1.458   2.632   5.435 -0.6978  0.1398  0.4047
 4966TIP3   OH236312   0.058   4.387   6.560  0.1659 -0.5318  0.5866
 4966TIP3    H136313   0.061   4.481   6.543  1.2626 -0.5062  0.8534
 4966TIP3    H236314   0.145   4.366   6.594 -0.1673 -1.5887  0.8247
 4967TIP3   OH236315   5.434   3.675  11.886 -0.0135  0.1246 -0.1461
 4967TIP3    H136316   5.364   3.610  11.887 -0.5923  0.7516  1.2838
 4967TIP3    H236317   5.392   3.757  11.861  0.6067  0.1042 -1.3451
 4968TIP3   OH236318   2.850   4.317  11.340 -0.4253 -0.4169 -0.3149
 4968TIP3    H136319   2.895   4.234  11.352  1.2398  0.2154 -1.7441
 4968TIP3    H236320   2.875   4.370  11.416 -0.3282 -0.7309 -0.1288
 4969TIP3   OH236321   6.278   2.628   4.276 -0.0009  0.2123 -0.0079
 4969TIP3    H136322   6.256   2.585   4.193 -0.8314  1.4677 -0.4727
 4969TIP3    H236323   6.334   2.566   4.322  0.9358 -0.2801 -1.7516
 4970TIP3   OH236324   1.527   4.536  15.651  0.0070  0.4209  0.2560
 4970TIP3    H136325   1.503   4.624  15.624 -2.0485  0.7003  2.6004
 4970TIP3    H236326   1.470   4.479  15.601  2.1144  0.1955 -2.1220
 4971TIP3   OH236327   0.250   5.344  14.742  0.1004  0.4504 -0.6581
 4971TIP3    H136328   0.194   5.398  14.688  0.5408  0.8712 -0.6999
 4971TIP3    H236329   0.209   5.345  14.829 -0.5719 -0.1757 -0.9604
 4972TIP3   OH236330   5.428   6.558  16.691 -0.6687  0.1870  0.1889
 4972TIP3    H136331   5.502   6.610  16.723 -0.4860  1.5454 -2.1917
 4972TIP3    H236332   5.419   6.487  16.755  2.4139  0.2026  0.7895
 4973TIP3   OH236333   6.351   1.769   4.619 -0.3016 -0.4897 -0.2678
 4973TIP3    H136334   6.382   1.739   4.533  2.0357  0.4844  0.1698
 4973TIP3    H236335   6.307   1.693   4.656  1.4983 -1.9868 -1.0320
 4974TIP3   OH236336   4.771   4.643  14.603  0.0476  0.2956  0.6981
 4974TIP3    H136337   4.711   4.569  14.614 -0.0135  0.2422  0.0675
 4974TIP3    H236338   4.714   4.717  14.582  0.1489  0.4036  0.8026
 4975TIP3   OH236339   4.160   3.821  13.249  0.1718  0.5816 -0.3716
 4975TIP3    H136340   4.118   3.765  13.314  1.0531  0.9419  0.5330
 4975TIP3    H236341   4.254   3.810  13.264  0.3923  2.9954  0.4731
 4976TIP3   OH236342   2.637   4.278  11.568 -0.1342 -0.2951 -0.1681
 4976TIP3    H136343   2.636   4.335  11.491 -0.6671 -0.7851 -0.5302
 4976TIP3    H236344   2.628   4.190  11.532 -0.7200 -0.5026  0.4812
 4977TIP3   OH236345   5.979   5.378  15.494 -0.0563  0.0762  0.1438
 4977TIP3    H136346   5.985   5.473  15.491  1.0726 -0.0021 -0.9632
 4977TIP3    H236347   5.973   5.356  15.587 -1.3723  1.2674  0.3609
 4978TIP3   OH236348   1.789   0.642   3.043 -0.1446  0.5644 -0.0622
 4978TIP3    H136349   1.704   0.614   3.008 -0.6388  0.9667  0.7949
 4978TIP3    H236350   1.786   0.615   3.135  1.0440 -0.2735 -0.2508
 4979TIP3   OH236351   0.235   3.710   1.974  0.3250 -0.4823 -0.1580
 4979TIP3    H136352   0.156   3.734   2.022  0.9079 -0.1478  0.6586
 4979TIP3    H236353   0.220   3.743   1.886 -0.0159  0.5225  0.2604
 4980TIP3   OH236354   3.230   5.262   1.195  0.0641  0.5907  0.2622
 4980TIP3    H136355   3.215   5.339   1.250  2.1801  1.4147 -0.1998
 4980TIP3    H236356   3.224   5.296   1.105  0.4058  0.1010  0.0529
 4981TIP3   OH236357   5.351   0.860   2.482 -0.3174  0.0378  0.2185
 4981TIP3    H136358   5.281   0.853   2.418  1.0430 -0.1703 -1.3365
 4981TIP3    H236359   5.387   0.771   2.486 -0.0547  0.1721  0.8832
 4982TIP3   OH236360   2.393   5.500  11.600 -0.2067 -0.3326 -0.6852
 4982TIP3    H136361   2.330   5.488  11.671 -2.1685 -0.9781 -2.4269
 4982TIP3    H236362   2.412   5.411  11.570 -2.3211 -0.0141 -3.2978
 4983TIP3   OH236363   3.545   5.757  12.995  0.1923  0.2020  0.0759
 4983TIP3    H136364   3.636   5.729  12.997  0.7269  1.8480  2.3593
 4983TIP3    H236365   3.500   5.697  13.054  0.4781  1.2677  1.4445
 4984TIP3   OH236366   2.826   0.305   2.226  0.0557 -0.4362  0.4970
 4984TIP3    H136367   2.790   0.300   2.314  3.1481  1.0510  1.9678
 4984TIP3    H236368   2.902   0.248   2.227  0.7744  0.4338 -0.8925
 4985TIP3   OH236369   0.520   6.640  14.164  0.1938  0.0185 -0.1193
 4985TIP3    H136370   0.426   6.635  14.144  0.5326  0.8882 -2.1792
 4985TIP3    H236371   0.552   6.713  14.112  1.5704  1.5258  2.5852
 4986TIP3   OH236372   2.486   0.172  15.737 -0.2819 -0.3043  0.3977
 4986TIP3    H136373   2.442   0.218  15.809  2.1328 -1.3652  2.6950
 4986TIP3    H236374   2.437   0.090  15.728 -0.9928  0.1112  0.3240
 4987TIP3   OH236375   2.118   4.684   5.573 -0.6734  0.1957 -0.0187
 4987TIP3    H136376   2.073   4.747   5.516  0.8523 -0.3266 -1.8986
 4987TIP3    H236377   2.048   4.647   5.626 -2.1766  0.8053 -1.4653
 4988TIP3   OH236378   2.529   0.950   5.926  0.1180 -0.1524  0.0249
 4988TIP3    H136379   2.587   0.878   5.952 -0.1105 -0.1613  0.5292
 4988TIP3    H236380   2.566   0.982   5.844 -0.4236 -1.5959 -0.8215
 4989TIP3   OH236381   2.656   1.934   4.226 -0.7616  0.9872 -0.6867
 4989TIP3    H136382   2.684   1.943   4.317  0.5976 -1.8810 -0.7196
 4989TIP3    H236383   2.710   1.997   4.178  1.1584 -0.0048  0.0819
 4990TIP3   OH236384   4.206   3.350  14.174 -0.1979  0.1030 -0.4319
 4990TIP3    H136385   4.179   3.441  14.175  0.3081  0.3132 -2.4861
 4990TIP3    H236386   4.294   3.351  14.213 -0.1335  0.5071 -0.5832
 4991TIP3   OH236387   2.760   5.394   5.947 -0.0703  0.2853 -0.3425
 4991TIP3    H136388   2.691   5.440   5.899 -0.6036 -0.0949  0.0482
 4991TIP3    H236389   2.762   5.306   5.908 -0.5285 -0.0345  0.3441
 4992TIP3   OH236390   2.630   0.541   3.845 -0.8714  0.0505  0.5486
 4992TIP3    H136391   2.683   0.600   3.792  1.0747 -1.4527  0.7279
 4992TIP3    H236392   2.540   0.569   3.828 -0.1051  2.0852 -0.5023
 4993TIP3   OH236393   3.240   1.071  13.898 -0.4389  0.0256 -0.3891
 4993TIP3    H136394   3.282   1.034  13.976  1.7920  0.3245 -1.3690
 4993TIP3    H236395   3.224   1.163  13.919  0.8371  0.2890 -0.5015
 4994TIP3   OH236396   2.203   5.475  12.335  0.1617  0.1319 -0.4815
 4994TIP3    H136397   2.174   5.427  12.258 -0.4440 -0.6447  0.2150
 4994TIP3    H236398   2.142   5.549  12.341  0.6187  0.5734 -1.1095
 4995TIP3   OH236399   1.946   1.074  12.869  0.1299 -0.7281  0.5829
 4995TIP3    H136400   1.997   1.022  12.931  0.6657 -0.2432  0.5651
 4995TIP3    H236401   1.990   1.061  12.785 -0.4949 -1.2519  0.3392
 4996TIP3   OH236402   5.079   4.834  14.239 -0.0353 -0.5437 -0.3452
 4996TIP3    H136403   5.104   4.771  14.172  0.6376 -0.0131 -0.6044
 4996TIP3    H236404   5.058   4.781  14.316  0.5169 -1.0801 -0.5609
 4997TIP3   OH236405   4.331   1.953  15.213 -0.4521 -0.4319 -0.5292
 4997TIP3    H136406   4.284   1.872  15.194  0.8388 -1.4206  0.3706
 4997TIP3    H236407   4.413   1.946  15.164 -0.4816  0.5182 -0.7496
 4998TIP3   OH236408   1.564   1.191   1.625  0.3424 -0.1971  0.1430
 4998TIP3    H136409   1.649   1.147   1.629  0.4196  0.0247  1.0712
 4998TIP3    H236410   1.559   1.241   1.707 -0.6764 -0.1977  0.0846
 4999TIP3   OH236411   6.021   0.678  16.238  0.7034 -0.0953 -0.1760
 4999TIP3    H136412   6.009   0.583  16.232 -3.3796  0.2923 -1.1103
 4999TIP3    H236413   6.040   0.694  16.330 -0.0512 -1.7295  0.3007
 5000TIP3   OH236414   6.265   1.673   2.685 -0.0757 -0.2761 -0.1428
 5000TIP3    H136415   6.189   1.649   2.632  0.6226 -1.2856 -0.7188
 5000TIP3    H236416   6.337   1.679   2.623  1.0737 -2.8539  0.7831
 5001TIP3   OH236417   3.560   4.918   0.778  0.2318  0.2686  0.9758
 5001TIP3    H136418   3.636   4.922   0.719 -0.7419 -1.9637 -0.5791
 5001TIP3    H236419   3.531   5.009   0.786  1.2700  0.8291 -0.8649
 5002TIP3   OH236420   5.002   2.755  13.813  0.2874  0.0840  0.0312
 5002TIP3    H136421   5.082   2.704  13.823  0.5758  0.1477 -1.5789
 5002TIP3    H236422   4.938   2.693  13.778 -0.4784 -0.0338  1.5714
 5003TIP3   OH236423   5.234   2.529   3.014  0.3188  0.4178 -0.0157
 5003TIP3    H136424   5.185   2.598   2.971 -0.7654  0.2061  0.8419
 5003TIP3    H236425   5.176   2.453   3.014  1.9342 -0.9315 -2.0690
 5004TIP3   OH236426   1.352   0.987   1.880  0.0422 -0.1107  0.3554
 5004TIP3    H136427   1.396   0.924   1.937  1.7019 -0.8029 -1.5817
 5004TIP3    H236428   1.368   1.072   1.921 -2.2621 -0.8306  3.0337
 5005TIP3   OH236429   4.777   5.608  17.114  0.2705  0.6628 -0.2159
 5005TIP3    H136430   4.811   5.698  17.119  1.6153  0.1626 -0.0390
 5005TIP3    H236431   4.742   5.591  17.201 -0.2756  1.1246 -0.3423
 5006TIP3   OH236432   0.319   0.515   0.250  0.2110 -0.2050 -0.0206
 5006TIP3    H136433   0.391   0.500   0.188  1.6069  2.1835  0.9075
 5006TIP3    H236434   0.355   0.574   0.316 -2.7972  1.6717  0.1390
 5007TIP3   OH236435   0.601   4.233  16.746  0.0780  0.2741  0.1768
 5007TIP3    H136436   0.610   4.318  16.704 -1.8699  0.2466 -0.4230
 5007TIP3    H236437   0.653   4.239  16.826  1.3527  1.4090 -0.6949
 5008TIP3   OH236438   2.706   1.648  14.129 -0.2912  0.7957 -0.6331
 5008TIP3    H136439   2.611   1.655  14.124 -0.3896  1.6448  1.3995
 5008TIP3    H236440   2.737   1.686  14.046 -1.6966  0.9638 -1.1115
 5009TIP3   OH236441   6.099   2.997  14.815 -0.4107  0.0547 -0.8864
 5009TIP3    H136442   6.112   2.902  14.817 -2.4847 -0.2746 -0.3597
 5009TIP3    H236443   6.155   3.030  14.886  1.3440 -0.5751 -1.9161
 5010TIP3   OH236444   1.359   3.540  13.143 -0.5949  0.4525 -0.3350
 5010TIP3    H136445   1.344   3.453  13.107  2.2223  0.0534 -0.7897
 5010TIP3    H236446   1.377   3.596  13.067  3.7644 -0.0440  0.0805
 5011TIP3   OH236447   6.315   3.825   1.190  0.0349 -0.3578 -0.5576
 5011TIP3    H136448   6.252   3.778   1.244 -0.5925 -0.7255 -1.5822
 5011TIP3    H236449   6.346   3.760   1.127  0.2685  0.2187 -1.0554
 5012TIP3   OH236450   4.470   6.345   2.485 -0.1873  0.1100 -0.1908
 5012TIP3    H136451   4.394   6.344   2.426 -0.6161 -0.1291  0.3575
 5012TIP3    H236452   4.442   6.399   2.559  0.1868  0.0353  0.0066
 5013TIP3   OH236453   1.213   0.211  17.229 -0.3533  0.3127 -0.0783
 5013TIP3    H136454   1.294   0.260  17.243 -0.2930  0.4475 -0.8782
 5013TIP3    H236455   1.235   0.145  17.163 -1.1434  1.0003 -1.0605
 5014TIP3   OH236456   3.033   4.986   1.705 -0.0441  0.4837 -0.4064
 5014TIP3    H136457   2.995   4.899   1.717 -3.2507  1.8750  0.8960
 5014TIP3    H236458   3.108   4.989   1.764 -1.8071 -0.4288  2.0258
 5015TIP3   OH236459   3.417   2.976   1.494  0.1170 -0.3322  0.1796
 5015TIP3    H136460   3.324   2.958   1.489  0.4359 -2.1531  0.0819
 5015TIP3    H236461   3.458   2.906   1.441  1.4870  0.8446 -0.3907
 5016TIP3   OH236462   3.270   1.771   2.980  0.1760 -0.4801  0.1142
 5016TIP3    H136463   3.175   1.780   2.973 -0.1189 -1.6424  2.0662
 5016TIP3    H236464   3.294   1.818   3.059  1.5877  1.6097 -1.4419
 5017TIP3   OH236465   1.203   1.474   1.676  0.1715 -0.2219 -0.0179
 5017TIP3    H136466   1.202   1.517   1.591 -1.1909  1.6280  0.8855
 5017TIP3    H236467   1.117   1.433   1.684  1.6351 -3.9244 -1.1410
 5018TIP3   OH236468   5.216   6.317   2.937  0.3264  0.4207 -0.2446
 5018TIP3    H136469   5.269   6.273   2.871 -1.1829 -2.2071  0.1364
 5018TIP3    H236470   5.275   6.327   3.012  0.7650 -1.0451 -0.3464
 5019TIP3   OH236471   3.887   6.124  16.203 -0.3527  0.0761 -0.1066
 5019TIP3    H136472   3.886   6.216  16.176 -0.2527  0.3122  0.6539
 5019TIP3    H236473   3.840   6.078  16.135  0.7719  0.4938 -1.2144
 5020TIP3   OH236474   2.382   5.506  16.846 -0.0600  0.1217  0.1168
 5020TIP3    H136475   2.436   5.574  16.805 -0.8428  1.0140  0.5269
 5020TIP3    H236476   2.344   5.459  16.772 -1.0075  1.3575 -0.2232
 5021TIP3   OH236477   1.626   2.709  16.612  0.6022 -0.0983  0.5421
 5021TIP3    H136478   1.535   2.682  16.597 -0.4671  3.5323 -0.6292
 5021TIP3    H236479   1.672   2.685  16.532 -0.6853  2.5537 -1.1625
 5022TIP3   OH236480   2.005   0.749   1.611  0.2136 -0.7843  0.2592
 5022TIP3    H136481   2.098   0.725   1.605  0.6425  0.5744  0.8846
 5022TIP3    H236482   2.002   0.811   1.684 -1.5707 -2.4436  1.6960
 5023TIP3   OH236483   5.329   2.336  16.422 -0.3521  0.2591  0.7246
 5023TIP3    H136484   5.368   2.339  16.509 -0.9219 -1.3406  1.0660
 5023TIP3    H236485   5.238   2.308  16.437  0.1764 -2.4761 -0.4852
 5024TIP3   OH236486   1.185   5.322   4.456 -1.1743  0.4192  0.1115
 5024TIP3    H136487   1.236   5.399   4.483 -1.0302  0.7362 -1.0420
 5024TIP3    H236488   1.168   5.275   4.538 -2.0349  2.1307  0.9579
 5025TIP3   OH236489   2.597   2.916  15.777  0.4675 -0.1711  0.0040
 5025TIP3    H136490   2.671   2.922  15.837  0.3029 -2.4054  0.5165
 5025TIP3    H236491   2.594   3.002  15.734  1.1996  1.1597  2.4310
 5026TIP3   OH236492   5.595   3.452  13.592  0.3538  0.4602 -0.4383
 5026TIP3    H136493   5.502   3.467  13.606  0.5890  0.0859  1.8904
 5026TIP3    H236494   5.612   3.367  13.631  1.4532 -0.0883 -2.0247
 5027TIP3   OH236495   6.124   4.062  15.936 -0.1556  0.2600 -0.1155
 5027TIP3    H136496   6.194   4.046  15.873  0.6636  0.5383  0.6994
 5027TIP3    H236497   6.153   4.139  15.986 -0.6657 -0.0922  0.7601
 5028TIP3   OH236498   3.815   3.216   1.818  0.1265 -0.1033  0.1183
 5028TIP3    H136499   3.803   3.271   1.740 -2.1056 -1.0048 -0.2687
 5028TIP3    H236500   3.871   3.144   1.789  1.5492  0.9546  0.1332
 5029TIP3   OH236501   4.434   0.514   5.976  0.6907 -0.0947  0.6132
 5029TIP3    H136502   4.503   0.533   5.912  1.5646  0.0051  1.5653
 5029TIP3    H236503   4.387   0.597   5.986  1.4379  0.2674  1.1451
 5030TIP3   OH236504   6.248   1.059   4.743  0.0184  0.7192  1.1198
 5030TIP3    H136505   6.325   1.045   4.799  0.3260  0.7717  0.7215
 5030TIP3    H236506   6.275   1.130   4.684  1.2093 -1.8398 -1.6954
 5031TIP3   OH236507   4.304   5.133  11.866 -0.5895  0.3996 -0.1710
 5031TIP3    H136508   4.326   5.050  11.825 -1.7836  0.3647 -0.7778
 5031TIP3    H236509   4.381   5.155  11.919 -0.1828 -0.9806 -0.1624
 5032TIP3   OH236510   2.054   3.348  17.088 -0.0426 -0.0461  0.0912
 5032TIP3    H136511   2.111   3.290  17.139 -2.9086 -2.4832  0.8487
 5032TIP3    H236512   2.068   3.323  16.997 -0.3589 -1.1115  0.3247
 5033TIP3   OH236513   1.381   2.172   3.045 -0.0742  0.4220 -0.5827
 5033TIP3    H136514   1.442   2.145   3.114 -0.2935 -0.2550 -0.6431
 5033TIP3    H236515   1.303   2.202   3.092  0.0981  0.7763 -0.5193
 5034TIP3   OH236516   1.778   5.945  12.193 -0.0175 -0.0967 -0.1973
 5034TIP3    H136517   1.702   5.900  12.230  0.1392 -0.9378 -0.8490
 5034TIP3    H236518   1.832   5.874  12.157  1.0535  0.4899  0.2053
 5035TIP3   OH236519   4.239   0.827  13.144 -0.1484 -1.2585 -0.0770
 5035TIP3    H136520   4.229   0.735  13.120  1.2943 -1.0506 -1.5954
 5035TIP3    H236521   4.153   0.852  13.179 -1.4298 -2.4664 -2.1688
 5036TIP3   OH236522   3.675   4.806  13.790  0.1994  0.4096  0.2973
 5036TIP3    H136523   3.698   4.723  13.831 -0.6562  0.3884  0.7537
 5036TIP3    H236524   3.661   4.866  13.863 -0.3993  0.6216  0.0132
 5037TIP3   OH236525   5.173   5.826   4.728  0.5937  0.1070  0.5885
 5037TIP3    H136526   5.203   5.867   4.647 -1.0712  0.2639  0.0325
 5037TIP3    H236527   5.123   5.894   4.773  0.9978 -0.1653  1.4756
 5038TIP3   OH236528   3.285   5.910  10.478  0.3563  0.2182 -0.8738
 5038TIP3    H136529   3.325   5.874  10.557 -1.8809  2.0395  1.2807
 5038TIP3    H236530   3.217   5.847  10.455  0.6249 -0.0293 -0.9927
 5039TIP3   OH236531   4.533   3.073  13.216  0.1592  0.2021 -0.0683
 5039TIP3    H136532   4.616   3.048  13.258  0.3960 -1.7504 -1.5360
 5039TIP3    H236533   4.488   2.990  13.200 -1.9439  1.1933  0.3245
 5040TIP3   OH236534   0.072   4.678   0.385  0.0950  0.0889  0.4305
 5040TIP3    H136535   0.151   4.654   0.337 -0.2013 -0.3083  0.1385
 5040TIP3    H236536   0.099   4.678   0.477  0.3438 -0.4000  0.3591
 5041TIP3   OH236537   4.489   5.928   0.852 -0.4753  0.2286 -0.0394
 5041TIP3    H136538   4.536   5.858   0.897 -1.0991  0.5413  1.1456
 5041TIP3    H236539   4.554   5.998   0.841  0.0158 -0.3356 -0.7849
 5042TIP3   OH236540   3.038   2.835   2.189  0.4277 -0.1181  0.1180
 5042TIP3    H136541   3.094   2.863   2.116 -0.0913 -0.8552 -0.5768
 5042TIP3    H236542   3.011   2.917   2.230  0.8502  0.3077 -0.4227
 5043TIP3   OH236543   1.387   5.686   1.807  0.0305  0.5053  0.4822
 5043TIP3    H136544   1.416   5.654   1.722  0.3681  1.5152  0.1979
 5043TIP3    H236545   1.466   5.725   1.846 -0.7426  2.7645 -0.0464
 5044TIP3   OH236546   2.543   3.139   0.601  0.0934  0.5499  0.0503
 5044TIP3    H136547   2.504   3.051   0.601  0.5399  0.3522 -0.5894
 5044TIP3    H236548   2.475   3.195   0.564  0.0823  0.3488 -0.2381
 5045TIP3   OH236549   6.172   4.468  15.745  0.1747 -0.1234 -0.5440
 5045TIP3    H136550   6.141   4.528  15.677 -3.7857 -1.0993  0.1353
 5045TIP3    H236551   6.169   4.519  15.825 -0.2340 -0.3726 -0.3968
 5046TIP3   OH236552   1.485   4.459   5.156  0.2464  0.1561  0.1748
 5046TIP3    H136553   1.537   4.537   5.176  0.2126 -0.0539  1.1435
 5046TIP3    H236554   1.549   4.388   5.155  0.0141 -0.0898  1.2796
 5047TIP3   OH236555   6.307   5.384  14.911 -0.6356  0.0908 -0.7215
 5047TIP3    H136556   6.251   5.376  14.834  0.5458  0.7740 -1.6802
 5047TIP3    H236557   6.391   5.415  14.877  0.3779 -1.0034  0.6549
 5048TIP3   OH236558   1.330   0.652  15.564 -0.1070 -0.0301  0.0358
 5048TIP3    H136559   1.346   0.559  15.584  1.7791  0.5662  1.6635
 5048TIP3    H236560   1.252   0.652  15.509  0.5092 -2.6698 -0.9899
 5049TIP3   OH236561   1.603   6.557  12.266  0.2974  0.2668  0.4509
 5049TIP3    H136562   1.542   6.599  12.206  1.1681  2.5836  1.1085
 5049TIP3    H236563   1.556   6.480  12.297 -0.3357 -0.8201 -2.8143
 5050TIP3   OH236564   3.326   3.605   0.627  0.6773 -1.2016  0.1748
 5050TIP3    H136565   3.269   3.531   0.607 -2.3644  0.5790  1.5680
 5050TIP3    H236566   3.272   3.663   0.681  2.7971  2.1609 -1.0029
 5051TIP3   OH236567   1.664   6.190  13.909 -0.1714  0.0428 -0.2590
 5051TIP3    H136568   1.585   6.142  13.883 -1.3721  1.1795  1.1192
 5051TIP3    H236569   1.682   6.159  13.998  1.7221 -1.1299 -0.9992
 5052TIP3   OH236570   4.233   5.234   4.340 -0.2063  0.1432  0.1085
 5052TIP3    H136571   4.199   5.267   4.257  0.6967  1.3536  0.1882
 5052TIP3    H236572   4.307   5.178   4.315 -0.2250  0.1346  0.0730
 5053TIP3   OH236573   4.846   3.557  17.078  0.4800 -0.2008 -0.2270
 5053TIP3    H136574   4.813   3.640  17.110 -0.9596 -1.7197  2.6808
 5053TIP3    H236575   4.894   3.520  17.153 -0.2373 -2.5985 -0.8536
 5054TIP3   OH236576   5.184   2.358  12.702  0.3205  0.7696 -0.1039
 5054TIP3    H136577   5.278   2.367  12.716  0.2203 -0.8492  2.0364
 5054TIP3    H236578   5.152   2.311  12.778 -1.6608 -1.9464 -2.4015
 5055TIP3   OH236579   6.575   2.607   0.174 -0.1068  0.0755 -0.5857
 5055TIP3    H136580   6.648   2.546   0.190 -0.8183 -1.2461 -2.0109
 5055TIP3    H236581   6.607   2.691   0.205  2.4049 -0.2596 -1.9389
 5056TIP3   OH236582   4.955   2.916  10.896 -0.2819 -0.5510 -0.2729
 5056TIP3    H136583   4.936   3.010  10.897  0.7580 -0.2973  1.9020
 5056TIP3    H236584   4.873   2.875  10.871 -1.1118  0.8982 -0.0508
 5057TIP3   OH236585   6.601   5.310   4.122 -0.1525 -0.5127  0.3985
 5057TIP3    H136586   6.610   5.220   4.093 -1.8425 -1.8957  3.6295
 5057TIP3    H236587   6.522   5.342   4.078 -1.6913 -1.9635  1.9372
 5058TIP3   OH236588   0.399   4.585   2.048 -0.1518  0.1684  0.1291
 5058TIP3    H136589   0.471   4.522   2.045  1.7424  2.2482 -0.6781
 5058TIP3    H236590   0.393   4.620   1.959 -1.6754  0.5932  0.3652
 5059TIP3   OH236591   3.628   4.578  12.060  0.6796 -0.3469 -0.0689
 5059TIP3    H136592   3.616   4.533  12.144 -1.3411 -0.2242 -0.2217
 5059TIP3    H236593   3.539   4.584  12.024  0.9367  2.9590 -0.4849
 5060TIP3   OH236594   4.613   5.095  13.714  0.0925  0.2226  0.0694
 5060TIP3    H136595   4.633   5.076  13.806  1.1753  0.1479 -0.1667
 5060TIP3    H236596   4.695   5.131  13.679 -0.7338  1.5908 -0.5077
 5061TIP3   OH236597   2.032   3.835   4.052 -0.4315 -0.2820 -0.0002
 5061TIP3    H136598   2.035   3.801   4.142 -2.7013 -1.1841 -0.2040
 5061TIP3    H236599   1.947   3.807   4.019  0.7319 -0.8451 -2.8017
 5062TIP3   OH236600   6.049   5.658   5.744 -0.2723  0.0797 -0.8087
 5062TIP3    H136601   6.012   5.609   5.818  0.5830  0.8560  0.1503
 5062TIP3    H236602   6.103   5.726   5.784  1.9096 -0.7556 -2.1451
 5063TIP3   OH236603   6.655   3.957   4.003 -0.6041 -0.3383  0.5085
 5063TIP3    H136604   6.735   4.009   4.006  1.5631 -3.1929 -2.0570
 5063TIP3    H236605   6.611   3.984   3.922 -0.4910 -1.0902  0.1890
 5064TIP3   OH236606   4.194   0.392  16.154 -0.3676  0.1308  0.3605
 5064TIP3    H136607   4.111   0.367  16.194  0.0605  2.1005  2.6971
 5064TIP3    H236608   4.257   0.329  16.189 -0.3188  0.7191  1.3631
 5065TIP3   OH236609   6.230   0.123   1.028  0.2086  0.0525  0.3907
 5065TIP3    H136610   6.294   0.074   1.080 -0.5965 -1.3034  0.1657
 5065TIP3    H236611   6.237   0.086   0.941 -0.9974 -0.2527  0.4069
 5066TIP3   OH236612   1.865   4.436  14.752  0.1838  0.3364 -0.2485
 5066TIP3    H136613   1.958   4.443  14.731 -0.0544 -2.2265 -2.6925
 5066TIP3    H236614   1.820   4.467  14.674 -1.0109  0.5331  0.4980
 5067TIP3   OH236615   1.328   0.520  12.380 -0.1765  0.1234 -0.5264
 5067TIP3    H136616   1.380   0.592  12.413 -3.1093  2.0525  0.2673
 5067TIP3    H236617   1.237   0.545  12.399 -1.3637 -3.9124  0.0713
 5068TIP3   OH236618   5.270   0.104  12.704  0.3095 -0.1006 -0.1180
 5068TIP3    H136619   5.293   0.011  12.710 -0.9684 -0.4149  0.1022
 5068TIP3    H236620   5.348   0.150  12.735  1.4019 -1.0516 -1.3549
 5069TIP3   OH236621   0.402   0.887   3.320 -0.4533 -0.4052  0.6559
 5069TIP3    H136622   0.496   0.875   3.306 -0.7080 -3.3114  0.8701
 5069TIP3    H236623   0.377   0.954   3.256  1.3304 -1.3733 -1.1674
 5070TIP3   OH236624   2.889   5.677  16.623 -0.4123  0.0797  0.3993
 5070TIP3    H136625   2.872   5.726  16.704  1.0677 -0.5764  1.1659
 5070TIP3    H236626   2.918   5.591  16.654  0.2840 -0.1428 -0.8211
 5071TIP3   OH236627   0.998   5.635  10.468  0.6927  0.0160  0.1686
 5071TIP3    H136628   0.955   5.573  10.409  1.6436 -0.0633 -0.4761
 5071TIP3    H236629   1.020   5.584  10.546  1.0567 -0.3534 -0.1702
 5072TIP3   OH236630   2.795   5.198   4.944 -0.0363 -0.0237  0.1325
 5072TIP3    H136631   2.705   5.185   4.917  0.2119  1.0622 -1.3533
 5072TIP3    H236632   2.829   5.264   4.884  2.2152 -1.5259 -0.3706
 5073TIP3   OH236633   4.137   3.807  16.207  0.2482  0.4517  0.4006
 5073TIP3    H136634   4.175   3.888  16.242 -0.8043  1.6534 -1.0900
 5073TIP3    H236635   4.047   3.830  16.185  0.4887 -0.5054 -1.9173
 5074TIP3   OH236636   6.186   0.590  13.428 -0.2109 -0.0638  0.2729
 5074TIP3    H136637   6.243   0.527  13.472  0.2781 -0.0985 -0.4066
 5074TIP3    H236638   6.099   0.550  13.434  0.1755 -1.0910 -0.6388
 5075TIP3   OH236639   1.621   4.853  15.109  0.6195 -0.1052  0.4683
 5075TIP3    H136640   1.690   4.918  15.120  0.9719  0.2752 -3.0152
 5075TIP3    H236641   1.570   4.883  15.034 -0.2523 -2.9462 -0.2161
 5076TIP3   OH236642   2.764   2.326  17.267  0.6415  0.5820  0.0816
 5076TIP3    H136643   2.853   2.341  17.298  0.3008  0.6327  1.0720
 5076TIP3    H236644   2.741   2.239  17.300  0.9915 -0.2596 -1.7934
 5077TIP3   OH236645   6.098   2.673   1.710 -0.0763  0.0915 -0.3997
 5077TIP3    H136646   6.038   2.628   1.651  0.0897 -0.2402 -0.3149
 5077TIP3    H236647   6.051   2.675   1.794  1.3106 -3.1210  0.5990
 5078TIP3   OH236648   3.028   5.448   0.796 -0.3810 -0.3324 -0.2203
 5078TIP3    H136649   3.121   5.426   0.799 -0.0490  1.0380  0.7768
 5078TIP3    H236650   3.026   5.539   0.768 -1.5046 -0.6612 -1.2813
 5079TIP3   OH236651   0.474   5.477  14.879  0.3546 -0.9097  0.2401
 5079TIP3    H136652   0.544   5.425  14.918  0.5747 -2.0704 -1.5605
 5079TIP3    H236653   0.399   5.417  14.874  0.6685 -1.2030 -2.0492
 5080TIP3   OH236654   0.654   5.773   3.271  0.1673  0.3119 -0.4119
 5080TIP3    H136655   0.602   5.844   3.310  0.7700 -0.6056  2.3212
 5080TIP3    H236656   0.709   5.741   3.343 -0.8741 -3.6643 -1.1105
 5081TIP3   OH236657   4.640   3.228   3.245  0.4283 -0.4571 -0.0375
 5081TIP3    H136658   4.575   3.158   3.246  0.4092 -0.4961 -1.5052
 5081TIP3    H236659   4.662   3.242   3.337 -1.4670 -0.6172  0.4736
 5082TIP3   OH236660   2.856   6.645   0.664 -0.0527 -0.3209 -0.1521
 5082TIP3    H136661   2.822   6.730   0.691  0.8838  0.1429 -0.4080
 5082TIP3    H236662   2.876   6.655   0.571 -2.4264 -1.6366 -0.8960
 5083TIP3   OH236663   1.600   2.218   2.324  0.4735  0.0746 -0.5555
 5083TIP3    H136664   1.676   2.205   2.266 -0.7615  1.4115 -2.6077
 5083TIP3    H236665   1.636   2.268   2.398  1.7005  0.2584 -1.2351
 5084TIP3   OH236666   0.119   4.320  10.593 -0.0414 -0.2079 -0.0180
 5084TIP3    H136667   0.056   4.308  10.522 -0.9453  0.8720  0.5602
 5084TIP3    H236668   0.162   4.404  10.572  3.0771 -2.0184 -1.7408
 5085TIP3   OH236669   2.575   3.015   4.011  0.4970  0.3589 -0.3509
 5085TIP3    H136670   2.616   3.101   4.022  1.8368 -0.2230 -0.5857
 5085TIP3    H236671   2.590   2.993   3.920  0.2731 -0.1845 -0.2591
 5086TIP3   OH236672   3.710   3.008   2.737  0.1612  0.1181 -0.1065
 5086TIP3    H136673   3.698   3.072   2.807  0.0882 -0.0810  0.0691
 5086TIP3    H236674   3.804   2.990   2.736  0.1459  0.0250  0.0311
 5087TIP3   OH236675   5.437   0.125   0.408 -0.2791  0.2781 -0.8143
 5087TIP3    H136676   5.412   0.215   0.425  0.4191  0.2079  0.8007
 5087TIP3    H236677   5.532   0.128   0.397 -0.1815 -0.3211 -0.1997
 5088TIP3   OH236678   4.215   1.652  16.120  0.3225  0.3812  0.1152
 5088TIP3    H136679   4.284   1.641  16.186 -0.6468  0.1844  1.1314
 5088TIP3    H236680   4.136   1.619  16.163 -0.2060 -0.4328 -1.4232
 5089TIP3   OH236681   0.730   3.855   4.801  0.2565 -0.0186 -0.2054
 5089TIP3    H136682   0.672   3.805   4.860  0.5491 -0.8037 -0.5755
 5089TIP3    H236683   0.678   3.867   4.722 -0.2483  1.2970  0.2944
 5090TIP3   OH236684   4.621   0.394  14.820 -0.0952  0.2652 -0.2713
 5090TIP3    H136685   4.655   0.482  14.834 -0.6911  0.9947 -2.9057
 5090TIP3    H236686   4.658   0.342  14.892  2.5021  2.0488 -0.1972
 5091TIP3   OH236687   4.496   0.941  15.983  0.3425  0.0791 -0.8645
 5091TIP3    H136688   4.586   0.936  15.951  0.2431  1.1890 -1.3444
 5091TIP3    H236689   4.448   0.877  15.931  0.9675 -1.0080 -0.1472
 5092TIP3   OH236690   4.383   4.946  11.674 -0.1411 -0.2518 -0.6712
 5092TIP3    H136691   4.451   4.912  11.733 -1.3716 -3.0503 -0.6794
 5092TIP3    H236692   4.427   4.954  11.589  0.8537  0.7813 -0.0922
 5093TIP3   OH236693   1.952   6.227   2.265 -0.6344  0.0323 -0.2087
 5093TIP3    H136694   2.023   6.212   2.328 -0.1427 -0.5717 -0.8812
 5093TIP3    H236695   1.989   6.200   2.181 -1.3840  0.5320 -0.7088
 5094TIP3   OH236696   5.496   4.513   3.112 -0.4721  0.2716  0.4016
 5094TIP3    H136697   5.496   4.475   3.200  1.3160  0.9756  0.7662
 5094TIP3    H236698   5.490   4.608   3.127  1.1626  0.4948 -0.1054
 5095TIP3   OH236699   1.775   0.687  10.578  0.1888 -0.4259 -0.4032
 5095TIP3    H136700   1.690   0.695  10.621  0.4704  0.6642 -0.0089
 5095TIP3    H236701   1.811   0.606  10.612  0.1189  0.0717  0.9503
 5096TIP3   OH236702   4.741   2.617  12.997 -0.1992  0.8324  0.4713
 5096TIP3    H136703   4.777   2.658  12.919  0.8939  1.5267  1.3142
 5096TIP3    H236704   4.732   2.525  12.974  0.4523  0.9648 -0.3491
 5097TIP3   OH236705   6.239   4.174   4.348 -0.0724 -0.7763 -0.1453
 5097TIP3    H136706   6.303   4.179   4.419  1.0585 -1.8289 -1.0351
 5097TIP3    H236707   6.155   4.192   4.389  0.8994  1.8872  0.8388
 5098TIP3   OH236708   6.499   4.897  17.138  0.1580  0.1141  0.6208
 5098TIP3    H136709   6.459   4.839  17.072 -0.7150  2.5713 -1.1577
 5098TIP3    H236710   6.575   4.849  17.169 -1.0350 -2.3780 -0.0128
 5099TIP3   OH236711   3.033   1.325  14.050  0.2077 -0.1886 -0.2224
 5099TIP3    H136712   2.983   1.244  14.062  1.2194 -0.5416  2.3631
 5099TIP3    H236713   3.088   1.330  14.129  0.3562  2.8857 -0.4293
 5100TIP3   OH236714   5.972   2.691  14.560  0.2186 -0.3894  0.6289
 5100TIP3    H136715   6.042   2.681  14.494  0.8094  0.4326  1.1112
 5100TIP3    H236716   6.005   2.645  14.637  0.4666  0.4397  1.0273
 5101TIP3   OH236717   0.684   5.996   1.869  0.1031  0.2130  0.0362
 5101TIP3    H136718   0.690   5.974   1.776 -0.7365  0.4322 -0.0718
 5101TIP3    H236719   0.757   6.057   1.884  0.0664  0.4008 -0.5392
 5102TIP3   OH236720   5.009   0.805  13.109  0.7208 -0.1256 -0.0118
 5102TIP3    H136721   5.063   0.858  13.168  0.1220  0.4583  0.0211
 5102TIP3    H236722   5.011   0.717  13.148  0.9477  0.0866  0.4668
 5103TIP3   OH236723   5.249   2.593  10.147 -0.0425 -0.2496  0.4757
 5103TIP3    H136724   5.296   2.639  10.217 -1.3477  0.3522  0.9736
 5103TIP3    H236725   5.222   2.662  10.087 -1.8207 -0.3563  1.1140
 5104TIP3   OH236726   6.023   4.903  15.299  0.5588  0.1059 -0.5271
 5104TIP3    H136727   6.091   4.859  15.249  0.8617  0.4277 -0.3997
 5104TIP3    H236728   6.023   4.993  15.266 -0.3247 -0.0772 -1.0611
 5105TIP3   OH236729   2.631   3.944   3.305  0.1477 -0.2332  0.1438
 5105TIP3    H136730   2.581   3.880   3.255 -1.6310  0.1034  1.3814
 5105TIP3    H236731   2.634   3.909   3.394  1.3949  0.1870  0.2954
 5106TIP3   OH236732   0.482   4.427   0.399  0.5832  0.4282 -0.5702
 5106TIP3    H136733   0.430   4.363   0.351  0.6200 -0.5343  0.6262
 5106TIP3    H236734   0.424   4.503   0.408 -0.8430 -0.7729  1.1135
 5107TIP3   OH236735   4.272   1.482  15.879 -0.1453 -0.3991 -0.2343
 5107TIP3    H136736   4.353   1.431  15.877 -0.5146 -0.9863 -0.6169
 5107TIP3    H236737   4.202   1.416  15.882 -0.5913  0.1072  0.9630
 5108TIP3   OH236738   2.357   2.080   2.666  0.0318  0.1067 -0.1105
 5108TIP3    H136739   2.363   2.088   2.761 -2.1313 -1.7451  0.2644
 5108TIP3    H236740   2.269   2.112   2.645 -0.7628 -2.4100 -1.0230
 5109TIP3   OH236741   0.302   1.065   3.110  0.1169 -0.1495  0.4887
 5109TIP3    H136742   0.293   1.008   3.033  0.8589 -0.5863  0.7218
 5109TIP3    H236743   0.327   1.150   3.073  1.9365 -0.7233  0.3185
 5110TIP3   OH236744   3.669   1.155  12.819 -0.1063 -0.2396  0.0221
 5110TIP3    H136745   3.752   1.180  12.778  0.6572 -1.7533  0.5409
 5110TIP3    H236746   3.651   1.224  12.882 -1.0456  1.8904 -2.4063
 5111TIP3   OH236747   1.938   2.861  14.265  0.5331 -0.1418 -0.1409
 5111TIP3    H136748   1.941   2.821  14.352  0.1783 -1.5356 -0.7508
 5111TIP3    H236749   1.847   2.889  14.255  0.3177 -0.9528 -0.4824
 5112TIP3   OH236750   0.040   5.840   4.625 -0.0807  0.1933 -0.0627
 5112TIP3    H136751   0.095   5.832   4.548  0.3125  1.7948  0.0106
 5112TIP3    H236752   0.031   5.934   4.638 -2.3708 -0.0178  0.2662
 5113TIP3   OH236753   5.413   0.581   5.169 -0.2823 -0.3384  0.2758
 5113TIP3    H136754   5.489   0.608   5.118 -0.9294 -1.0265 -1.1266
 5113TIP3    H236755   5.437   0.495   5.204  0.2099  0.1888  1.2516
 5114TIP3   OH236756   0.600   4.791   0.252 -0.0843 -0.4938  0.2384
 5114TIP3    H136757   0.679   4.837   0.280  0.9613 -0.9879 -1.7247
 5114TIP3    H236758   0.558   4.764   0.333  2.2882 -1.0770  1.3560
 5115TIP3   OH236759   3.332   4.222   5.206 -0.8281  0.1723  0.1549
 5115TIP3    H136760   3.329   4.153   5.273 -1.8037  1.1296  1.1416
 5115TIP3    H236761   3.332   4.304   5.256  0.4029  0.9113 -0.9896
 5116TIP3   OH236762   0.583   3.919  12.009 -0.0617 -0.2305  0.3988
 5116TIP3    H136763   0.629   3.947  11.930  2.2995 -0.4167  1.6168
 5116TIP3    H236764   0.494   3.953  11.999  1.1820  3.0636 -0.5934
 5117TIP3   OH236765   3.373   4.691  13.742 -0.1971  0.5587  0.2243
 5117TIP3    H136766   3.292   4.725  13.706 -1.2957 -1.1871  0.9167
 5117TIP3    H236767   3.416   4.766  13.783 -2.5451  1.1293  1.7973
 5118TIP3   OH236768   4.989   4.842  11.280 -0.1029 -0.6021  0.4790
 5118TIP3    H136769   5.003   4.934  11.257  0.0583  0.2234  3.4070
 5118TIP3    H236770   4.948   4.803  11.203  0.6735  1.6836 -1.1815
 5119TIP3   OH236771   4.327   6.565  14.117 -0.3441 -0.4397 -0.2291
 5119TIP3    H136772   4.314   6.511  14.195  2.2166 -1.1211 -0.1736
 5119TIP3    H236773   4.422   6.564  14.103 -0.5191  1.5294 -2.0531
 5120TIP3   OH236774   3.696   4.248  12.957  0.6879 -0.3751  0.1608
 5120TIP3    H136775   3.737   4.307  13.020 -0.0917  1.1915 -0.7245
 5120TIP3    H236776   3.767   4.223  12.898  0.6966  1.3178 -0.6254
 5121TIP3   OH236777   6.245   2.854  11.694  0.0994  0.7028  0.0485
 5121TIP3    H136778   6.268   2.824  11.606  1.0535  0.3900  0.3886
 5121TIP3    H236779   6.266   2.947  11.694 -1.1125  0.9927 -0.4371
 5122TIP3   OH236780   0.026   5.804  17.106  0.9489  0.1005 -0.3675
 5122TIP3    H136781   0.035   5.789  17.012  2.0780  0.1808 -0.2927
 5122TIP3    H236782   0.096   5.866  17.127 -0.4750  1.5779  0.2073
 5123TIP3   OH236783   5.595   2.945   3.431  0.2494 -0.1977 -0.2071
 5123TIP3    H136784   5.580   2.858   3.392 -0.8432  0.1163 -0.5032
 5123TIP3    H236785   5.508   2.981   3.445  0.6404  1.8349 -2.3018
 5124TIP3   OH236786   0.197   2.971  12.467 -0.7231 -0.5589 -0.1772
 5124TIP3    H136787   0.276   3.023  12.454 -1.6091  0.2996 -2.8945
 5124TIP3    H236788   0.131   3.034  12.495 -0.7548 -1.0653  0.9360
 5125TIP3   OH236789   4.517   4.197   3.011 -0.6623  0.1784  0.0498
 5125TIP3    H136790   4.565   4.114   3.006 -0.3895  0.2882  0.7783
 5125TIP3    H236791   4.536   4.231   3.098  0.3209  1.6643 -0.7020
 5126TIP3   OH236792   4.601   6.453   3.908  0.2223  0.1197 -0.2854
 5126TIP3    H136793   4.641   6.528   3.953  1.3015 -0.8554  0.4769
 5126TIP3    H236794   4.671   6.387   3.906 -1.7121 -2.3387  2.6139
 5127TIP3   OH236795   4.164   0.096   3.115  0.0911  0.1167  0.2219
 5127TIP3    H136796   4.079   0.133   3.093 -0.9638 -1.9488  0.6017
 5127TIP3    H236797   4.153   0.061   3.203  1.0890 -0.8685 -0.0241
 5128TIP3   OH236798   5.996   4.613  14.411  0.1736  0.2444 -0.1038
 5128TIP3    H136799   5.980   4.692  14.360 -0.4353  0.3385  0.2228
 5128TIP3    H236800   5.925   4.611  14.475  1.7494  0.9211  1.7216
 5129TIP3   OH236801   5.303   5.437  16.262 -0.0389 -0.1892 -0.3291
 5129TIP3    H136802   5.247   5.498  16.215  0.0021  0.7027  0.7232
 5129TIP3    H236803   5.308   5.360  16.206 -0.4247  0.6157 -1.5118
 5130TIP3   OH236804   0.691   5.289  14.111  0.4840  0.4428 -0.4692
 5130TIP3    H136805   0.713   5.267  14.202  0.2460 -0.5303 -0.6386
 5130TIP3    H236806   0.744   5.366  14.092  0.2737  0.8812  0.6148
 5131TIP3   OH236807   4.168   2.186  15.202  0.7056  0.4490 -0.4921
 5131TIP3    H136808   4.150   2.093  15.190  2.0504  0.1357 -0.2027
 5131TIP3    H236809   4.195   2.194  15.294  1.8672  0.8833 -0.8485
 5132TIP3   OH236810   1.172   1.652   2.627  0.2485  0.7522  0.4430
 5132TIP3    H136811   1.129   1.581   2.676 -0.6474  1.4881  0.7615
 5132TIP3    H236812   1.115   1.728   2.641  1.4706  1.6753  0.5548
 5133TIP3   OH236813   6.729   3.096  16.496 -0.2067  0.3144 -0.6401
 5133TIP3    H136814   6.792   3.077  16.425 -0.3022 -0.7287 -0.4733
 5133TIP3    H236815   6.647   3.058  16.465 -0.6523  1.2742 -0.6575
 5134TIP3   OH236816   1.898   0.060   3.096  0.1595 -0.8294 -0.2997
 5134TIP3    H136817   1.842   0.119   3.046 -0.2957 -0.7978  0.2350
 5134TIP3    H236818   1.870  -0.028   3.071  0.7097 -0.8312 -0.9527
 5135TIP3   OH236819   3.887   2.710  15.834 -0.2401  0.0546  0.6167
 5135TIP3    H136820   3.821   2.656  15.878 -1.5029 -0.0588 -1.2791
 5135TIP3    H236821   3.867   2.700  15.741 -0.0013  3.1453  0.1252
 5136TIP3   OH236822   1.005   5.321   6.681 -0.1452 -0.5553  0.0624
 5136TIP3    H136823   0.992   5.404   6.727 -2.1257  0.7035 -2.5624
 5136TIP3    H236824   0.968   5.255   6.741  1.7502  0.2790  2.3305
 5137TIP3   OH236825   4.520   0.708  13.713 -0.1247  0.0137 -0.6062
 5137TIP3    H136826   4.580   0.662  13.655 -0.8687  0.1311 -1.4849
 5137TIP3    H236827   4.434   0.694  13.675 -0.6990 -0.3015  0.7328
 5138TIP3   OH236828   5.835   3.574  12.705 -0.1422  0.5742  0.6269
 5138TIP3    H136829   5.929   3.570  12.717 -0.1902  1.4577  1.4841
 5138TIP3    H236830   5.804   3.485  12.720  0.4215  0.5427  1.6360
 5139TIP3   OH236831   3.351   2.465   2.601  0.0775 -0.2710  0.0404
 5139TIP3    H136832   3.407   2.406   2.551  0.0794 -0.9082  0.7715
 5139TIP3    H236833   3.306   2.517   2.535 -1.8045 -2.7783 -0.8060
 5140TIP3   OH236834   5.321   6.128   5.430  0.2044 -0.3951 -0.4695
 5140TIP3    H136835   5.317   6.057   5.494 -1.0549 -0.0670 -0.1650
 5140TIP3    H236836   5.412   6.128   5.400  0.2226 -2.1381 -0.4889
 5141TIP3   OH236837   3.172   3.858   0.575  0.1240  0.2261  0.3532
 5141TIP3    H136838   3.118   3.927   0.536 -0.0043 -0.0520  0.0369
 5141TIP3    H236839   3.130   3.776   0.549  0.9514 -0.0075 -0.2969
 5142TIP3   OH236840   6.268   6.577  12.185  0.2147  0.1401 -0.2247
 5142TIP3    H136841   6.212   6.510  12.145 -1.1998  0.9698  0.3121
 5142TIP3    H236842   6.277   6.549  12.276  0.9876 -0.1712 -0.3855
 5143TIP3   OH236843   6.238   2.903   4.059 -0.0370 -0.5205 -0.7492
 5143TIP3    H136844   6.193   2.881   3.977  0.6029 -0.2917 -1.1761
 5143TIP3    H236845   6.311   2.840   4.063 -1.2660 -1.9278  0.7286
 5144TIP3   OH236846   6.591   5.424  15.429 -0.7802 -0.1486 -1.2180
 5144TIP3    H136847   6.553   5.446  15.344  2.5499  2.7060 -2.1758
 5144TIP3    H236848   6.571   5.499  15.485  0.1010 -0.3684 -0.5847
 5145TIP3   OH236849   2.202   6.435   6.229 -0.5602 -0.6268 -0.2240
 5145TIP3    H136850   2.181   6.398   6.315  0.4541 -0.4639  0.1089
 5145TIP3    H236851   2.153   6.517   6.225 -2.1095 -1.5339 -0.5947
 5146TIP3   OH236852   5.819   3.624   6.256  0.0354  0.1217 -0.6745
 5146TIP3    H136853   5.812   3.545   6.309  1.1432  0.7309  0.4185
 5146TIP3    H236854   5.892   3.608   6.197  0.1678  0.2770 -0.5530
 5147TIP3   OH236855   1.083   1.510   4.843  0.0537 -0.4077 -0.0150
 5147TIP3    H136856   1.140   1.511   4.919 -0.8118 -0.9555  0.6620
 5147TIP3    H236857   0.994   1.511   4.879 -0.4390  2.4675 -1.0655
 5148TIP3   OH236858   2.930   1.093   3.399 -0.3349  0.1491 -0.4989
 5148TIP3    H136859   3.024   1.077   3.400 -0.1434  1.2131 -0.8410
 5148TIP3    H236860   2.892   1.012   3.435  0.7688  0.2403  0.9494
 5149TIP3   OH236861   1.904   6.651   1.421  0.0960  0.2960  0.3083
 5149TIP3    H136862   1.833   6.624   1.363 -1.2009  0.2053  1.8931
 5149TIP3    H236863   1.971   6.686   1.361 -1.6645  1.2964 -1.1794
 5150TIP3   OH236864   2.972   0.902   0.779 -0.1253 -0.4672 -0.4447
 5150TIP3    H136865   2.926   0.819   0.780  0.0875 -0.5994 -1.2788
 5150TIP3    H236866   2.943   0.947   0.859  0.9903 -1.9965  0.8901
 5151TIP3   OH236867   4.980   4.809   6.669  0.2003  0.1348  0.0436
 5151TIP3    H136868   5.037   4.732   6.661  0.7972  0.5992 -0.3437
 5151TIP3    H236869   4.892   4.776   6.657  0.4600 -0.4865 -0.1762
 5152TIP3   OH236870   6.254   3.148   2.675  0.6977 -0.1412  0.1351
 5152TIP3    H136871   6.290   3.083   2.735  1.8244  1.0517  0.7952
 5152TIP3    H236872   6.167   3.168   2.710 -1.1479 -3.5790 -1.8718
 5153TIP3   OH236873   2.006   4.068   0.594  0.0806 -0.9000 -0.8596
 5153TIP3    H136874   1.945   4.023   0.653  1.3666  0.1606  1.3603
 5153TIP3    H236875   2.037   3.999   0.535 -0.4568 -2.2338  0.3568
 5154TIP3   OH236876   3.308   4.447  12.201 -0.0801  0.2530  0.1469
 5154TIP3    H136877   3.310   4.477  12.110 -1.6132 -1.7273 -0.6125
 5154TIP3    H236878   3.258   4.366  12.198  0.6578 -0.3660  2.6442
 5155TIP3   OH236879   4.160   3.150   1.481 -0.2801 -0.0669  0.0072
 5155TIP3    H136880   4.187   3.059   1.489 -1.3175 -0.4522 -0.6531
 5155TIP3    H236881   4.175   3.171   1.388 -2.1137 -0.2867 -0.3864
 5156TIP3   OH236882   6.511   0.195  16.136  0.5106 -0.2087  0.1611
 5156TIP3    H136883   6.588   0.166  16.185  0.7712  1.2708  0.7026
 5156TIP3    H236884   6.448   0.124  16.146  0.9191 -0.3788  1.8488
 5157TIP3   OH236885   0.006   0.656  11.708 -0.7499  0.0716 -0.6826
 5157TIP3    H136886  -0.027   0.671  11.796  0.8426  2.7626 -0.4110
 5157TIP3    H236887  -0.059   0.698  11.651 -0.4843  0.6363 -0.5736
 5158TIP3   OH236888   0.488   5.017   5.032  0.1850 -0.1411 -0.3970
 5158TIP3    H136889   0.545   5.004   4.957  0.7997 -3.0375  0.4544
 5158TIP3    H236890   0.462   4.929   5.059 -1.5759  0.8840  1.6252
 5159TIP3   OH236891   0.581   1.586   4.046  1.1077  0.8380 -0.2646
 5159TIP3    H136892   0.655   1.538   4.084  0.7318 -0.6954 -1.3792
 5159TIP3    H236893   0.504   1.534   4.069  0.8292  0.0273 -2.7413
 5160TIP3   OH236894   5.686   6.341   5.495 -0.2633  0.1531 -0.0324
 5160TIP3    H136895   5.714   6.380   5.412  0.4790  2.4382  1.2043
 5160TIP3    H236896   5.715   6.250   5.490  1.3160  0.6872 -1.5779
 5161TIP3   OH236897   2.678   3.851   5.773  0.6586  0.1220  0.5840
 5161TIP3    H136898   2.599   3.875   5.725  1.3500  1.1161 -0.0953
 5161TIP3    H236899   2.647   3.795   5.844 -0.5292 -0.3598 -0.2864
 5162TIP3   OH236900   0.206   3.079  13.245 -0.2035  0.3576 -0.0669
 5162TIP3    H136901   0.135   3.021  13.217  1.0011 -1.8666  1.2467
 5162TIP3    H236902   0.262   3.086  13.167 -0.6886  0.2768 -0.4297
 5163TIP3   OH236903   4.076   5.766   6.444  0.1845 -0.1506  0.0944
 5163TIP3    H136904   4.139   5.724   6.502 -0.6828 -1.7496 -0.0692
 5163TIP3    H236905   4.059   5.851   6.485  2.5602  0.4294  0.0119
 5164TIP3   OH236906   1.805   1.093   2.869  0.3309 -0.5664  0.7951
 5164TIP3    H136907   1.770   1.114   2.782  0.8242 -2.3658  0.1188
 5164TIP3    H236908   1.836   1.177   2.903 -0.1105  0.2177 -0.6570
 5165TIP3   OH236909   1.491   2.307   3.572  0.1311  0.0879  0.3574
 5165TIP3    H136910   1.454   2.390   3.601 -1.2168 -0.8540  1.4918
 5165TIP3    H236911   1.487   2.310   3.477  1.6681  1.9641  0.2862
 5166TIP3   OH236912   1.967   3.663  12.823 -0.1433  0.2535 -0.0410
 5166TIP3    H136913   1.933   3.728  12.761  0.0763  0.2866 -0.1304
 5166TIP3    H236914   1.891   3.636  12.874 -0.2041  0.7326  0.1300
 5167TIP3   OH236915   2.757   0.564  12.540  0.1473  0.4288 -0.2208
 5167TIP3    H136916   2.665   0.583  12.561  0.6542  2.5266  0.3290
 5167TIP3    H236917   2.807   0.611  12.607  1.6630 -2.4490  0.8758
 5168TIP3   OH236918   1.007   5.155   3.052 -0.2377 -0.1992  0.5623
 5168TIP3    H136919   0.963   5.234   3.021  0.4023  0.3135  0.9449
 5168TIP3    H236920   1.076   5.139   2.988 -1.5180 -1.5480 -0.5689
 5169TIP3   OH236921   4.240   0.203  10.891 -0.8209  0.0769 -0.1194
 5169TIP3    H136922   4.247   0.244  10.804  0.5708 -0.7690 -0.4444
 5169TIP3    H236923   4.147   0.207  10.912 -1.3238 -0.3886 -2.0094
 5170TIP3   OH236924   5.449   0.793   3.126 -0.3756 -0.4119  0.2048
 5170TIP3    H136925   5.433   0.872   3.178 -0.0384  1.1179 -1.8695
 5170TIP3    H236926   5.365   0.771   3.088 -0.4961 -1.1683  0.8814
 5171TIP3   OH236927   2.096   6.526   6.645  0.2866  0.1786  0.7866
 5171TIP3    H136928   2.019   6.542   6.591  0.7076  1.3640  0.4965
 5171TIP3    H236929   2.153   6.472   6.590  1.0554  2.0344 -0.3200
 5172TIP3   OH236930   6.304   0.632   5.864  0.3999  0.1126 -0.5311
 5172TIP3    H136931   6.366   0.606   5.932 -0.0129  0.3289 -0.0643
 5172TIP3    H236932   6.238   0.684   5.910 -0.8237 -1.1438 -0.7705
 5173TIP3   OH236933   4.762   1.894  11.740  0.0539 -0.2814 -0.3181
 5173TIP3    H136934   4.810   1.955  11.797 -0.4292 -0.4836  0.3181
 5173TIP3    H236935   4.801   1.906  11.654 -0.0205  0.9348 -0.2063
 5174TIP3   OH236936   4.370   0.266   2.925  0.0787 -0.1073 -0.4362
 5174TIP3    H136937   4.421   0.195   2.886  0.8690  0.1464  0.0981
 5174TIP3    H236938   4.282   0.256   2.888  0.7926  0.1783 -2.3697
 5175TIP3   OH236939   4.163   2.241  12.783 -0.0105  0.7693  0.0553
 5175TIP3    H136940   4.166   2.150  12.813  1.0736  0.8192  0.1322
 5175TIP3    H236941   4.195   2.238  12.693 -0.2360  1.0414 -0.0360
 5176TIP3   OH236942   0.301   6.678   3.129 -0.2007  0.2076 -0.0453
 5176TIP3    H136943   0.388   6.685   3.091  0.2255 -1.2793  0.5859
 5176TIP3    H236944   0.251   6.625   3.067 -0.3290  0.1388  0.1153
 5177TIP3   OH236945   0.923   0.476   3.348 -0.0665 -0.3991 -0.4731
 5177TIP3    H136946   0.971   0.527   3.283 -0.7890  2.1515  0.8330
 5177TIP3    H236947   0.989   0.450   3.412  0.1482 -0.1877 -0.6071
 5178TIP3   OH236948   5.263   5.170   5.606 -0.5596  0.0991 -0.4853
 5178TIP3    H136949   5.191   5.109   5.620  0.0964 -0.4678  0.5516
 5178TIP3    H236950   5.259   5.190   5.512 -1.3638 -0.8081 -0.6642
 5179TIP3   OH236951   1.638   4.275   0.779  0.2147  0.8694 -0.1443
 5179TIP3    H136952   1.710   4.256   0.840  0.1473  0.5313 -0.1701
 5179TIP3    H236953   1.568   4.217   0.805  1.2914 -1.7910 -2.6112
 5180TIP3   OH236954   3.346   2.513  15.207 -0.1655 -0.4800 -0.5240
 5180TIP3    H136955   3.438   2.486  15.198 -0.0169  0.1906 -1.0888
 5180TIP3    H236956   3.351   2.596  15.256 -0.4462 -0.2700 -0.8501
 5181TIP3   OH236957   0.820   5.442   2.274 -0.0111 -0.0886 -0.1996
 5181TIP3    H136958   0.783   5.398   2.198  1.7886  0.1330 -1.2614
 5181TIP3    H236959   0.895   5.491   2.240  1.1052 -0.3063  1.7666
 5182TIP3   OH236960   0.341   0.077   5.089 -0.2926  0.3713  0.3867
 5182TIP3    H136961   0.356   0.066   4.995  0.6826 -1.5168  0.7155
 5182TIP3    H236962   0.246   0.085   5.099 -0.3499  1.5498 -0.8050
 5183TIP3   OH236963   0.432   2.594  16.671  0.0309 -0.1240  0.0181
 5183TIP3    H136964   0.390   2.513  16.700 -0.7917 -0.3442 -1.6141
 5183TIP3    H236965   0.512   2.600  16.722 -0.8177 -0.9657  1.5214
 5184TIP3   OH236966   6.093   5.423  16.317  0.6770 -0.0191  0.4066
 5184TIP3    H136967   6.165   5.368  16.286  0.7879 -0.7896  1.9130
 5184TIP3    H236968   6.129   5.512  16.316  1.2971 -0.2677  0.1384
 5185TIP3   OH236969   6.090   2.568   0.633 -0.5432 -0.1214  0.1308
 5185TIP3    H136970   6.121   2.658   0.644 -0.0137 -0.3836  0.9643
 5185TIP3    H236971   6.040   2.550   0.713 -0.6097 -0.5788 -0.0098
 5186TIP3   OH236972   1.696   4.881   1.312  0.0464  0.3974  0.4352
 5186TIP3    H136973   1.750   4.960   1.320 -2.4074  2.1410  0.7439
 5186TIP3    H236974   1.670   4.879   1.220  0.5178 -0.3847  0.3071
 5187TIP3   OH236975   4.179   3.339   4.164 -0.8092 -0.8113  0.1036
 5187TIP3    H136976   4.132   3.419   4.140 -0.3458 -0.5249  0.1558
 5187TIP3    H236977   4.143   3.273   4.104 -0.5101 -0.3552 -0.5949
 5188TIP3   OH236978   0.226   0.506  11.979 -0.0949  0.9487  0.2844
 5188TIP3    H136979   0.270   0.545  11.904 -3.4240  1.0653 -1.8399
 5188TIP3    H236980   0.135   0.533  11.970 -0.7815  0.5119  4.1592
 5189TIP3   OH236981   2.906   4.879  15.080 -0.1656  0.4101 -0.4546
 5189TIP3    H136982   2.852   4.954  15.105 -0.7517  0.6342 -2.2110
 5189TIP3    H236983   2.859   4.803  15.112 -1.4797  0.6161 -1.7732
 5190TIP3   OH236984   0.685   1.466   0.257 -0.4159 -0.5142  0.0080
 5190TIP3    H136985   0.697   1.512   0.174 -0.3558  1.6706  1.1407
 5190TIP3    H236986   0.774   1.448   0.287 -0.3577  0.4353  0.4598
 5191TIP3   OH236987   3.367   2.423   5.496  0.3224  0.1619 -0.2760
 5191TIP3    H136988   3.349   2.501   5.550 -1.0610 -0.8773  0.8369
 5191TIP3    H236989   3.320   2.439   5.415 -0.5065  0.2202  0.2048
 5192TIP3   OH236990   4.207   4.729  11.718  0.2716  0.3338 -0.4233
 5192TIP3    H136991   4.275   4.796  11.711  0.5308  0.1315  0.1642
 5192TIP3    H236992   4.161   4.750  11.800 -0.1899  0.2972 -0.6687
 5193TIP3   OH236993   5.583   6.473  14.501 -0.0494  0.4772 -0.4404
 5193TIP3    H136994   5.538   6.399  14.542  1.1152 -0.3427 -0.6108
 5193TIP3    H236995   5.565   6.464  14.408  1.0857 -0.3194 -0.6055
 5194TIP3   OH236996   3.112   2.169  16.701 -0.4994 -0.4122  0.0270
 5194TIP3    H136997   3.128   2.257  16.666  0.6852 -0.9166 -0.7634
 5194TIP3    H236998   3.191   2.148  16.750 -0.5361 -1.2412 -0.2465
 5195TIP3   OH236999   6.159   1.315  13.627 -0.2000 -0.1059 -0.0841
 5195TIP3    H137000   6.180   1.319  13.533 -1.3150  0.4260 -0.3253
 5195TIP3    H237001   6.224   1.372  13.668 -1.1002  1.5058 -0.8173
 5196TIP3   OH237002   4.078   4.183  12.906 -0.2929  0.2352 -0.3831
 5196TIP3    H137003   3.986   4.209  12.919 -0.6879 -0.9301 -0.7455
 5196TIP3    H237004   4.080   4.146  12.818  0.3690 -0.4476 -0.0870
 5197TIP3   OH237005   3.454   4.944   5.740 -0.5239  0.1236  0.1793
 5197TIP3    H137006   3.371   4.956   5.786 -1.5241 -1.2474 -1.1746
 5197TIP3    H237007   3.433   4.960   5.648  0.4953 -1.1310 -0.2986
 5198TIP3   OH237008   0.469   3.826   1.301  0.2553  0.1873  0.7055
 5198TIP3    H137009   0.512   3.778   1.231  2.0323 -0.4648  2.1543
 5198TIP3    H237010   0.501   3.916   1.293 -0.9745  0.5499 -0.3846
 5199TIP3   OH237011   1.934   0.612   4.614  0.0698 -0.3768  0.3667
 5199TIP3    H137012   1.987   0.636   4.539  2.0518  0.7718  2.0238
 5199TIP3    H237013   1.851   0.583   4.577  0.3878  1.6269 -2.1853
 5200TIP3   OH237014   4.202   4.633  11.391  0.9335 -0.4124  0.1960
 5200TIP3    H137015   4.191   4.572  11.318 -1.8044 -0.3338  0.4523
 5200TIP3    H237016   4.156   4.591  11.464  1.0256  0.8951  1.0210
 5201TIP3   OH237017   6.168   2.101   2.103  0.0216  0.4870  0.3014
 5201TIP3    H137018   6.164   2.074   2.195 -0.1192 -0.7035 -0.0347
 5201TIP3    H237019   6.187   2.020   2.055 -0.1174  1.0527 -0.7373
 5202TIP3   OH237020   3.218   0.967  17.015 -0.3691 -0.0891  0.1537
 5202TIP3    H137021   3.281   0.927  17.076  0.0663  0.6745  0.2249
 5202TIP3    H237022   3.137   0.918  17.028  0.0515 -0.7127  0.4866
 5203TIP3   OH237023   3.016   2.991   2.948 -0.2797  0.1024  0.0450
 5203TIP3    H137024   3.004   2.955   2.860  0.8530  0.4774 -0.2712
 5203TIP3    H237025   3.106   3.022   2.950 -0.5557  0.8991  1.0582
 5204TIP3   OH237026   0.482   1.832   3.548 -0.4477  0.7075  0.2665
 5204TIP3    H137027   0.554   1.807   3.490 -1.2330 -1.4697  0.1715
 5204TIP3    H237028   0.416   1.868   3.489 -0.3766  0.5381  0.0815
 5205TIP3   OH237029   4.417   4.883  13.839 -0.4322  0.2909 -0.6136
 5205TIP3    H137030   4.392   4.950  13.776 -2.0204  0.4370  0.1506
 5205TIP3    H237031   4.498   4.916  13.879 -0.8459  1.4264 -0.7071
 5206TIP3   OH237032   5.090   4.726  15.207 -0.2438  0.3561 -0.1587
 5206TIP3    H137033   5.066   4.818  15.219  0.0205  0.2263  1.7206
 5206TIP3    H237034   5.136   4.724  15.123  2.9368  2.6696  1.3056
 5207TIP3   OH237035   2.633   4.376  14.657 -0.0497  0.3989 -0.8035
 5207TIP3    H137036   2.676   4.381  14.742 -0.3777 -1.6010 -0.4706
 5207TIP3    H237037   2.640   4.465  14.621  0.2262  1.2494  1.2268
 5208TIP3   OH237038   5.666   1.993   0.663 -0.1236 -0.2412 -0.0932
 5208TIP3    H137039   5.714   1.963   0.585  0.9441  0.8698  0.1094
 5208TIP3    H237040   5.576   2.003   0.633 -0.0523 -1.3857 -0.7580
 5209TIP3   OH237041   6.072   1.011  12.705 -0.6053 -0.0235 -0.4889
 5209TIP3    H137042   6.128   0.948  12.660 -1.2962  0.1010 -1.5842
 5209TIP3    H237043   6.129   1.054  12.768  0.1334 -0.9875 -0.4863
 5210TIP3   OH237044   5.369   1.316  12.919 -0.3736 -0.1986  0.2917
 5210TIP3    H137045   5.423   1.380  12.872 -1.7796 -0.0972 -1.2542
 5210TIP3    H237046   5.396   1.326  13.011  1.4725  0.5627 -0.2875
 5211TIP3   OH237047   0.737   0.151   4.882  0.3630 -0.4673  0.1947
 5211TIP3    H137048   0.785   0.217   4.832 -0.3979  0.0572  0.1441
 5211TIP3    H237049   0.735   0.186   4.972  0.0077 -0.4471  0.1794
 5212TIP3   OH237050   4.546   3.330   4.653  0.7527 -0.5743  0.0595
 5212TIP3    H137051   4.513   3.258   4.706  0.3638 -0.4463 -0.0013
 5212TIP3    H237052   4.525   3.305   4.563 -0.8414  0.3256  0.1437
 5213TIP3   OH237053   0.087   5.956  13.570 -0.4604 -0.4007  0.1977
 5213TIP3    H137054   0.129   5.885  13.520  1.0790  0.8200 -0.3099
 5213TIP3    H237055   0.159   6.013  13.597 -1.6051  0.6955  1.0795
 5214TIP3   OH237056   2.246   4.920   1.023  0.0709  0.0729 -0.2109
 5214TIP3    H137057   2.312   4.939   1.089 -0.4676  0.2643  0.2858
 5214TIP3    H237058   2.164   4.915   1.072 -0.3346  0.1896 -0.8631
 5215TIP3   OH237059   6.722   4.465  13.573  0.2022  0.0231  0.3402
 5215TIP3    H137060   6.795   4.523  13.593 -1.0910  1.2614  1.6661
 5215TIP3    H237061   6.659   4.520  13.526  0.7765 -1.4520 -2.3556
 5216TIP3   OH237062   5.313   3.414   0.700 -0.6259  0.1577  0.0791
 5216TIP3    H137063   5.264   3.395   0.780  0.1845 -1.7158  0.1826
 5216TIP3    H237064   5.246   3.414   0.631 -1.3187  1.7148  0.6978
 5217TIP3   OH237065   6.306   4.416  16.911  0.1091  0.5406  0.6981
 5217TIP3    H137066   6.259   4.333  16.908  0.2629  0.4470  0.8489
 5217TIP3    H237067   6.368   4.406  16.984  0.7515  0.4539  0.1444
 5218TIP3   OH237068   0.741   0.354  14.508 -0.1861 -0.1922  0.1140
 5218TIP3    H137069   0.664   0.343  14.564  0.1582 -0.6976  0.4965
 5218TIP3    H237070   0.809   0.301  14.550  0.6441  0.9715  0.2872
 5219TIP3   OH237071   1.765   3.379  12.879  0.3999 -0.3989 -0.5541
 5219TIP3    H137072   1.677   3.395  12.914 -0.4204 -4.4753 -0.3037
 5219TIP3    H237073   1.751   3.324  12.802  2.7075 -1.2863 -0.4199
 5220TIP3   OH237074   4.854   3.639   4.181  0.8864  0.1533 -0.1639
 5220TIP3    H137075   4.939   3.597   4.185  0.8544  0.1835  0.9248
 5220TIP3    H237076   4.807   3.591   4.112  1.1893 -0.9632  0.3886
 5221TIP3   OH237077   0.436   4.891   1.712 -0.0984 -0.7956  0.2054
 5221TIP3    H137078   0.345   4.862   1.712  0.0292 -1.2073 -0.1220
 5221TIP3    H237079   0.434   4.976   1.757 -0.3443 -1.7030  2.0235
 5222TIP3   OH237080   5.181   0.519  15.864  0.2888 -0.4186 -0.3449
 5222TIP3    H137081   5.230   0.537  15.783  0.0017  0.8805 -0.2575
 5222TIP3    H237082   5.165   0.606  15.902  1.5372 -1.0681  1.8053
 5223TIP3   OH237083   6.408   5.016  13.934 -0.2057  0.4034 -0.1773
 5223TIP3    H137084   6.484   5.048  13.884  0.3904  0.7720  0.9187
 5223TIP3    H237085   6.446   4.962  14.003 -0.9042  0.9582  0.6589
 5224TIP3   OH237086   4.582   6.358   3.169 -0.3573 -0.2332  0.3565
 5224TIP3    H137087   4.547   6.344   3.257 -1.2573 -0.3364 -0.0109
 5224TIP3    H237088   4.606   6.451   3.167 -0.5392 -0.1815  0.6383
 5225TIP3   OH237089   4.769   4.256   2.791  0.2907  0.2092 -0.0072
 5225TIP3    H137090   4.759   4.162   2.810 -0.1827  0.1665 -0.4544
 5225TIP3    H237091   4.766   4.297   2.877  0.6196 -0.1981  0.2028
 5226TIP3   OH237092   0.632   6.557   3.860 -0.7418 -0.7579 -0.3736
 5226TIP3    H137093   0.699   6.624   3.850 -0.8197 -0.7700 -1.0655
 5226TIP3    H237094   0.562   6.599   3.910  0.4755 -1.2672  1.9001
 5227TIP3   OH237095   3.624   2.536  11.802 -0.5509 -0.0188  0.1478
 5227TIP3    H137096   3.653   2.500  11.718 -0.1637  0.2353  0.1702
 5227TIP3    H237097   3.554   2.477  11.830 -1.2605  0.3593 -0.7528
 5228TIP3   OH237098   0.996   0.099   2.104 -0.2833  0.1061  0.2632
 5228TIP3    H137099   0.936   0.055   2.044  0.3332 -1.1469  0.5360
 5228TIP3    H237100   1.083   0.071   2.076 -0.0059 -1.3883  2.3359
 5229TIP3   OH237101   6.738   1.729  15.998 -0.0257  0.3705 -0.0913
 5229TIP3    H137102   6.748   1.697  15.908  0.9847  0.0775  0.1118
 5229TIP3    H237103   6.741   1.824  15.989  0.5542  0.3354 -0.3222
 5230TIP3   OH237104   2.873   2.237   6.439 -0.2852  0.0972 -0.6173
 5230TIP3    H137105   2.962   2.206   6.419  0.2210  0.6014  0.7550
 5230TIP3    H237106   2.857   2.305   6.374 -0.0533 -0.6352 -1.4714
 5231TIP3   OH237107   1.540   6.107   5.318 -0.1923 -0.4960  0.1396
 5231TIP3    H137108   1.615   6.143   5.272  0.3130  0.5664  1.7037
 5231TIP3    H237109   1.465   6.157   5.285 -0.0268 -0.6207 -0.4328
 5232TIP3   OH237110   4.544   1.446  16.701  0.5188 -0.0552  0.1724
 5232TIP3    H137111   4.568   1.523  16.649  2.6930 -2.6897 -3.2024
 5232TIP3    H237112   4.600   1.451  16.778 -0.4836  2.4009  0.8359
 5233TIP3   OH237113   3.675   2.751   6.418 -0.1566 -0.0602 -0.0039
 5233TIP3    H137114   3.696   2.668   6.462 -2.3554 -0.6675  0.0055
 5233TIP3    H237115   3.580   2.755   6.419 -0.1113  2.4880 -0.0428
 5234TIP3   OH237116   6.677   5.037   2.727 -0.1570  0.0759  0.4671
 5234TIP3    H137117   6.591   4.997   2.717 -1.5052  2.2256  2.6500
 5234TIP3    H237118   6.726   4.975   2.782 -0.6951 -0.6043  0.1961
 5235TIP3   OH237119   2.007   3.882   2.851  0.0395  0.3196  0.5032
 5235TIP3    H137120   2.088   3.833   2.836  0.3509  1.1667 -0.7509
 5235TIP3    H237121   2.036   3.966   2.888 -0.4060 -0.0072  1.6287
 5236TIP3   OH237122   2.779   2.240   0.270  0.3152  0.0017 -0.3686
 5236TIP3    H137123   2.874   2.251   0.272  0.5593 -1.0696 -2.5174
 5236TIP3    H237124   2.766   2.146   0.284 -0.5534  0.3347  1.2914
 5237TIP3   OH237125   1.697   1.570  13.110  0.1991 -0.5638  0.4621
 5237TIP3    H137126   1.610   1.605  13.091 -0.4758 -3.1404 -1.8282
 5237TIP3    H237127   1.688   1.476  13.100  3.0488 -1.0142  1.1900
 5238TIP3   OH237128   3.726   4.480   0.666 -0.4409  0.6808 -0.4083
 5238TIP3    H137129   3.746   4.503   0.757 -0.3237 -1.7394  0.2657
 5238TIP3    H237130   3.632   4.495   0.658 -0.7343 -0.3915  0.6071
 5239TIP3   OH237131   2.286   5.931   2.451 -0.1024 -0.1523 -0.2201
 5239TIP3    H137132   2.206   5.897   2.412 -0.2528  1.2803 -1.2367
 5239TIP3    H237133   2.283   6.025   2.433  2.1794 -0.1705 -1.0195
 5240TIP3   OH237134   0.593   3.351   5.093 -0.5137 -0.1635 -0.3520
 5240TIP3    H137135   0.629   3.318   5.011  2.0536  0.9337  0.2272
 5240TIP3    H237136   0.522   3.409   5.067 -0.2998 -0.4899 -1.7362
 5241TIP3   OH237137   2.940   2.403  13.419 -0.3895 -0.2719  0.6539
 5241TIP3    H137138   2.884   2.470  13.380 -0.4634  0.0023  1.2239
 5241TIP3    H237139   2.884   2.326  13.425  0.3095 -1.1339 -2.0812
 5242TIP3   OH237140   1.351   0.040   6.031 -0.2424  0.6210  1.0516
 5242TIP3    H137141   1.283  -0.000   6.084 -1.4768  0.1138 -0.8089
 5242TIP3    H237142   1.421  -0.024   6.028 -0.4439  0.3778  1.4937
 5243TIP3   OH237143   4.708   1.232  16.094 -0.1559 -0.2575 -0.0274
 5243TIP3    H137144   4.664   1.218  16.178  0.5995  0.6258  0.5285
 5243TIP3    H237145   4.711   1.327  16.083  0.8567 -0.3316 -0.4642
 5244TIP3   OH237146   0.121   1.220   1.693  0.2516 -0.7489  0.4509
 5244TIP3    H137147   0.150   1.197   1.781  0.7856 -2.0020 -0.0260
 5244TIP3    H237148   0.141   1.142   1.640 -0.1176 -0.0474 -0.7595
 5245TIP3   OH237149   6.465   2.801   3.001 -0.0896  0.1447 -0.1607
 5245TIP3    H137150   6.475   2.824   3.094  1.4060 -2.3264  0.4210
 5245TIP3    H237151   6.391   2.739   3.000 -0.4361  0.5650 -0.7109
 5246TIP3   OH237152   1.446   1.583   1.011 -0.2217  0.4892  0.0224
 5246TIP3    H137153   1.468   1.677   1.013  0.4912  0.3226  1.5036
 5246TIP3    H237154   1.513   1.544   0.955 -1.5881  1.0737 -2.1213
 5247TIP3   OH237155   6.448   0.884  16.918 -0.5350 -0.2392  0.5059
 5247TIP3    H137156   6.539   0.914  16.921  0.6399 -2.9327 -2.2415
 5247TIP3    H237157   6.410   0.929  16.843 -1.1054 -0.1020  0.8676
 5248TIP3   OH237158   6.401   2.465  13.724 -0.0138  0.3794 -0.1090
 5248TIP3    H137159   6.355   2.471  13.808  0.8765 -0.0255  0.4245
 5248TIP3    H237160   6.449   2.382  13.729 -1.6768 -0.7600 -1.9383
 5249TIP3   OH237161   2.266   1.082  16.413 -0.1123  0.1957  0.7682
 5249TIP3    H137162   2.315   1.012  16.370 -1.9992 -0.5455 -0.3275
 5249TIP3    H237163   2.326   1.156  16.416  0.6518 -0.2087 -1.7955
 5250TIP3   OH237164   1.347   6.664  10.689  0.2046 -0.6413  1.0349
 5250TIP3    H137165   1.343   6.737  10.751  1.2799 -0.3861  0.8220
 5250TIP3    H237166   1.407   6.694  10.621 -1.7378 -0.4809 -0.7089
 5251TIP3   OH237167   6.247   5.135  15.884 -0.4199 -0.1134 -0.5158
 5251TIP3    H137168   6.339   5.162  15.881  0.1380 -1.5888  1.1496
 5251TIP3    H237169   6.219   5.133  15.793  1.6115 -0.8696 -1.1850
 5252TIP3   OH237170   5.308   5.035  11.701  0.3426 -0.6569 -0.4235
 5252TIP3    H137171   5.353   5.036  11.617  1.1558  0.4721  0.0039
 5252TIP3    H237172   5.343   5.111  11.748 -1.4407 -0.1733  0.2201
 5253TIP3   OH237173   3.811   4.349   2.751  0.2064 -0.2817  0.0502
 5253TIP3    H137174   3.734   4.347   2.695  1.6086 -2.4258 -1.9925
 5253TIP3    H237175   3.815   4.262   2.790  2.2560 -0.7279 -0.9791
 5254TIP3   OH237176   1.672   1.430   1.482 -0.3965  0.0307  0.3380
 5254TIP3    H137177   1.725   1.352   1.468 -0.3385  0.2841 -0.9405
 5254TIP3    H237178   1.627   1.445   1.399 -0.5778  1.2351  0.6228
 5255TIP3   OH237179   1.833   0.100   0.960  0.4877  0.1857  0.1049
 5255TIP3    H137180   1.801   0.013   0.982  1.1506  0.4973  2.6945
 5255TIP3    H237181   1.856   0.095   0.868 -0.8365 -1.9336 -0.1723
 5256TIP3   OH237182   3.148   5.142  12.179 -0.0887  0.0219  0.0368
 5256TIP3    H137183   3.098   5.127  12.099 -0.3985  0.8570  0.0717
 5256TIP3    H237184   3.236   5.165  12.149 -0.0474 -0.2326 -0.0441
 5257TIP3   OH237185   5.756   5.174  12.271  0.5018 -0.4862  0.0197
 5257TIP3    H137186   5.747   5.107  12.203  0.7123 -1.3411  0.8082
 5257TIP3    H237187   5.737   5.257  12.226 -0.1975 -1.1097 -0.8835
 5258TIP3   OH237188   5.405   5.363   0.496  0.0483 -0.1295  0.4728
 5258TIP3    H137189   5.405   5.296   0.427 -1.0724 -0.9999  1.2939
 5258TIP3    H237190   5.492   5.403   0.490 -0.8333  1.7392 -3.2391
 5259TIP3   OH237191   1.860   6.263   0.566  0.5947 -0.0540  0.8629
 5259TIP3    H137192   1.786   6.266   0.506  0.9102  0.6005  0.4887
 5259TIP3    H237193   1.821   6.267   0.653  0.0912 -1.7627  0.7434
 5260TIP3   OH237194   0.541   4.000   6.773 -0.3161 -0.4756  0.2587
 5260TIP3    H137195   0.509   3.965   6.690  0.5400 -0.4613 -0.0900
 5260TIP3    H237196   0.489   3.957   6.839 -1.2222 -0.2624 -0.3000
 5261TIP3   OH237197   0.101   0.114   5.223  0.7434 -0.5075  0.3509
 5261TIP3    H137198   0.025   0.056   5.226 -0.6013  1.0949 -0.6475
 5261TIP3    H237199   0.067   0.200   5.249  2.4106  0.0855  0.7219
 5262TIP3   OH237200   2.431   2.702   1.286 -0.1287 -0.4931 -0.1550
 5262TIP3    H137201   2.355   2.654   1.320 -0.4932  0.1399 -0.0609
 5262TIP3    H237202   2.414   2.710   1.192 -0.4091  0.0439 -0.0640
 5263TIP3   OH237203   1.057   5.721  14.771  0.6922  0.0485  0.3014
 5263TIP3    H137204   0.989   5.658  14.749  1.0980 -0.8737  1.6093
 5263TIP3    H237205   1.040   5.796  14.713 -1.0498 -0.4103  0.1809
 5264TIP3   OH237206   2.875   5.744   4.512  0.3074 -0.1746  0.3276
 5264TIP3    H137207   2.955   5.733   4.564  1.7169 -1.6350 -1.9495
 5264TIP3    H237208   2.875   5.670   4.452 -1.4760  1.1055 -1.3971
 5265TIP3   OH237209   6.005   2.916  12.483  0.6158 -0.0499 -0.3955
 5265TIP3    H137210   6.091   2.938  12.520 -0.0341  1.8773  0.0847
 5265TIP3    H237211   5.943   2.962  12.539 -0.7722 -1.5882 -0.6031
 5266TIP3   OH237212   3.217   4.385   0.734 -0.9189  0.3973  0.6581
 5266TIP3    H137213   3.193   4.443   0.806 -1.9325  3.0616 -1.6155
 5266TIP3    H237214   3.135   4.340   0.711 -0.6975 -0.1384  0.9115
 5267TIP3   OH237215   1.351   4.244  12.816  0.6584 -0.2761 -0.9240
 5267TIP3    H137216   1.387   4.228  12.728 -1.0564 -3.4185 -1.1849
 5267TIP3    H237217   1.412   4.200  12.875  0.5901 -0.1182 -0.7347
 5268TIP3   OH237218   1.885   3.642  15.675 -0.2518 -0.0040 -0.2269
 5268TIP3    H137219   1.956   3.638  15.739 -1.1448 -0.3675  0.7661
 5268TIP3    H237220   1.865   3.735  15.667 -0.9642 -0.0483  0.9674
 5269TIP3   OH237221   1.314   6.641  14.697  0.3457  0.4719 -0.9769
 5269TIP3    H137222   1.401   6.672  14.723 -0.9473  2.2880  1.4985
 5269TIP3    H237223   1.319   6.546  14.709  1.0229  0.8211  2.6367
 5270TIP3   OH237224   0.813   0.146  14.984  0.3733 -0.0333 -0.0287
 5270TIP3    H137225   0.850   0.136  14.896  2.6368  1.3325  0.6796
 5270TIP3    H237226   0.888   0.135  15.043 -0.3510  2.4976  1.5291
 5271TIP3   OH237227   4.176   6.641   4.105 -0.4847 -0.3675  0.3521
 5271TIP3    H137228   4.236   6.623   4.033 -0.0339  0.0729  0.6083
 5271TIP3    H237229   4.221   6.707   4.158 -0.6039 -1.0158  1.2915
 5272TIP3   OH237230   6.151   5.828  15.171  0.5878 -0.2764  0.1102
 5272TIP3    H137231   6.067   5.822  15.126  0.7333 -0.1481 -0.1839
 5272TIP3    H237232   6.176   5.737  15.188  0.0994 -0.3012  0.7568
 5273TIP3   OH237233   4.932   4.662  13.636 -0.0947  0.1172  0.0716
 5273TIP3    H137234   4.853   4.670  13.689 -0.7178 -1.2695 -0.5844
 5273TIP3    H237235   4.926   4.735  13.574  0.3498  1.4006  1.4930
 5274TIP3   OH237236   4.229   6.355   2.671 -0.5129 -0.1816  0.5741
 5274TIP3    H137237   4.284   6.318   2.739 -0.2473  0.9060  0.9699
 5274TIP3    H237238   4.188   6.431   2.712 -1.4475 -0.3234 -0.0552
 5275TIP3   OH237239   1.724   0.627  12.036 -0.0599  0.6933  0.0777
 5275TIP3    H137240   1.634   0.619  12.068 -0.1560  1.1677 -0.0719
 5275TIP3    H237241   1.722   0.586  11.949  0.0015  0.1929  0.3094
 5276TIP3   OH237242   6.291   0.287  12.277  0.5830 -0.2732 -0.2641
 5276TIP3    H137243   6.324   0.203  12.307  0.4609 -0.5569 -0.8964
 5276TIP3    H237244   6.223   0.311  12.340  1.5081 -0.0126  0.6628
 5277TIP3   OH237245   1.186   4.185   1.694 -0.1845  0.3935  0.3587
 5277TIP3    H137246   1.098   4.203   1.728 -0.3097 -0.4891  0.5378
 5277TIP3    H237247   1.239   4.173   1.773  0.1893  1.3147  0.2538
 5278TIP3   OH237248   0.040   1.231  15.100 -0.5376 -0.3314 -0.6187
 5278TIP3    H137249   0.134   1.245  15.098 -0.5177 -0.5347 -1.5514
 5278TIP3    H237250   0.004   1.317  15.125 -0.0213 -0.8829  2.3432
 5279TIP3   OH237251   4.171   2.278   0.926  0.3983 -0.1377 -0.1642
 5279TIP3    H137252   4.083   2.241   0.920  1.0498 -1.6493 -0.9294
 5279TIP3    H237253   4.157   2.373   0.932 -1.2570 -0.3242 -0.6187
 5280TIP3   OH237254   6.436   2.181  14.472 -0.1477 -0.6069  0.0229
 5280TIP3    H137255   6.357   2.144  14.433  1.5720 -2.8918 -1.5748
 5280TIP3    H237256   6.427   2.163  14.566 -1.5160 -0.8178 -0.1319
 5281TIP3   OH237257   1.882   5.389  11.784 -0.2889 -0.3834 -0.1465
 5281TIP3    H137258   1.909   5.452  11.717 -0.1882 -1.0117 -0.7039
 5281TIP3    H237259   1.959   5.333  11.796 -0.0916  0.1055  0.9521
 5282TIP3   OH237260   6.192   4.059   1.655  0.2016  0.0712 -0.1924
 5282TIP3    H137261   6.130   3.989   1.678  0.8823 -0.5283 -0.1651
 5282TIP3    H237262   6.270   4.014   1.624  1.3047  0.7523  1.4392
 5283TIP3   OH237263   4.133   6.540   2.835 -0.1794 -0.2466  0.2049
 5283TIP3    H137264   4.185   6.616   2.861 -0.2319 -0.3168  0.5144
 5283TIP3    H237265   4.111   6.497   2.917  0.7679 -1.2125 -0.0254
 5284TIP3   OH237266   2.460   2.158   5.176  0.1466 -0.0213  0.7470
 5284TIP3    H137267   2.512   2.214   5.118  0.5253 -0.3030  0.8106
 5284TIP3    H237268   2.511   2.153   5.256  0.1311 -0.4837  0.7300
 5285TIP3   OH237269   0.537   6.632   6.165  0.0329  0.2497  0.3408
 5285TIP3    H137270   0.523   6.700   6.231 -0.1970  1.4982 -0.9433
 5285TIP3    H237271   0.552   6.552   6.215  0.0820  1.2002  1.8959
 5286TIP3   OH237272   2.091   6.129  16.574  0.1820 -0.3121  0.5781
 5286TIP3    H137273   2.007   6.167  16.550  0.3040  0.0554  0.7258
 5286TIP3    H237274   2.108   6.163  16.662  1.1480  0.7440  0.0036
 5287TIP3   OH237275   4.195   4.675  15.690 -0.1131 -0.1769  0.3454
 5287TIP3    H137276   4.146   4.746  15.648 -1.6212 -1.1327  0.4071
 5287TIP3    H237277   4.217   4.616  15.619  1.1403  0.3067  0.2961
 5288TIP3   OH237278   4.953   4.008   5.346  0.1133  0.0121 -0.1676
 5288TIP3    H137279   4.986   3.962   5.424  0.8979 -1.6291 -1.4035
 5288TIP3    H237280   4.905   4.083   5.381 -0.4016 -1.2120  1.9363
 5289TIP3   OH237281   6.173   6.200   4.862  0.7301  0.4444  0.1015
 5289TIP3    H137282   6.224   6.155   4.930 -0.7093 -0.6661  0.4881
 5289TIP3    H237283   6.239   6.240   4.806  2.0921 -1.7033  0.0542
 5290TIP3   OH237284   2.444   1.676   1.400 -0.1728 -1.1693  0.0325
 5290TIP3    H137285   2.414   1.760   1.365  0.5606 -0.9677 -0.1113
 5290TIP3    H237286   2.363   1.629   1.422 -0.6193 -0.9475 -1.0933
 5291TIP3   OH237287   4.209   3.242  13.339 -0.2647  0.1502  0.9419
 5291TIP3    H137288   4.252   3.304  13.399  0.2959  1.4885 -0.7290
 5291TIP3    H237289   4.220   3.282  13.253  0.5056 -2.5172 -0.3097
 5292TIP3   OH237290   1.491   3.239  16.420 -0.3346 -0.3955  0.3671
 5292TIP3    H137291   1.504   3.332  16.401 -1.2680 -0.1473  0.8305
 5292TIP3    H237292   1.547   3.193  16.358 -1.2926  0.4318 -1.1748
 5293TIP3   OH237293   5.798   3.200  15.467  0.0471 -0.0687  0.4182
 5293TIP3    H137294   5.766   3.141  15.399 -0.3096  1.5543 -0.8687
 5293TIP3    H237295   5.826   3.141  15.537  1.0471 -1.8384 -1.3603
 5294TIP3   OH237296   0.781   3.957  11.412 -0.0560  0.8963  0.2453
 5294TIP3    H137297   0.821   3.927  11.330 -0.2627  0.3075  0.3605
 5294TIP3    H237298   0.689   3.968  11.391 -0.5072 -1.2041  0.9017
 5295TIP3   OH237299   2.021   0.625  11.654 -0.1314  0.0468 -0.3138
 5295TIP3    H137300   2.058   0.579  11.729 -0.6786  0.2890  0.1115
 5295TIP3    H237301   2.085   0.612  11.584  0.8822  0.6513  0.4604
 5296TIP3   OH237302   3.779   4.453  15.464  0.9792  0.8189 -0.2348
 5296TIP3    H137303   3.757   4.546  15.463  1.3202  0.8990 -0.1679
 5296TIP3    H237304   3.847   4.443  15.397  0.6405  0.5423 -0.5490
 5297TIP3   OH237305   3.900   5.159   3.253 -0.5441  0.4981 -0.0824
 5297TIP3    H137306   3.871   5.090   3.312  1.0077 -0.1380 -0.0014
 5297TIP3    H237307   3.912   5.236   3.309  0.6500 -0.0278  0.4190
 5298TIP3   OH237308   4.457   1.772  16.833 -0.1919 -0.2079  0.0926
 5298TIP3    H137309   4.539   1.731  16.859 -0.6428  0.1854  2.3027
 5298TIP3    H237310   4.445   1.745  16.742  1.6895 -1.3761  0.1359
 5299TIP3   OH237311   5.469   3.551   6.785  0.4523 -0.2897 -1.1930
 5299TIP3    H137312   5.498   3.500   6.861  0.1573  0.2931 -0.6800
 5299TIP3    H237313   5.521   3.518   6.713 -0.3614 -1.9569 -1.0665
 5300TIP3   OH237314   2.098   5.918   4.493  0.5116 -0.0969  0.7351
 5300TIP3    H137315   2.004   5.904   4.505  0.2368  0.5935 -0.4817
 5300TIP3    H237316   2.107   6.013   4.479  0.9002 -0.5278 -2.9086
 5301TIP3   OH237317   1.986   3.488   0.177  0.1516  0.5374  0.2840
 5301TIP3    H137318   2.071   3.454   0.151 -0.1877 -1.3364  1.4455
 5301TIP3    H237319   1.925   3.453   0.112  0.1887  1.5641 -0.3266
 5302TIP3   OH237320   6.696   0.431  16.109 -0.0276  0.4197  0.1068
 5302TIP3    H137321   6.659   0.343  16.096  1.7309 -0.4469  0.5839
 5302TIP3    H237322   6.632   0.476  16.164 -2.3816  0.5112 -2.5155
 5303TIP3   OH237323   0.501   0.010  17.151  0.0072  0.1713  0.4946
 5303TIP3    H137324   0.456   0.046  17.074  1.4137  0.4983 -0.2170
 5303TIP3    H237325   0.560  -0.056  17.116  0.2940 -0.0443  1.3578
 5304TIP3   OH237326   4.186   6.708   5.500  0.0900  0.0433  0.5466
 5304TIP3    H137327   4.178   6.615   5.519 -0.3965 -0.1194 -0.3960
 5304TIP3    H237328   4.097   6.742   5.511  0.2129  0.3488  0.6156
 5305TIP3   OH237329   3.967   4.784   1.579  0.2806  0.6503  0.0501
 5305TIP3    H137330   4.019   4.851   1.623  0.2652 -0.0291  1.1555
 5305TIP3    H237331   3.891   4.830   1.545 -0.1457  1.0904  1.5041
 5306TIP3   OH237332   0.688   6.243   2.093 -0.1506  0.1508  0.0505
 5306TIP3    H137333   0.769   6.228   2.045  0.4003 -1.1742  1.3320
 5306TIP3    H237334   0.676   6.338   2.092  1.3078  0.3456 -0.3017
 5307TIP3   OH237335   5.776   4.072  10.976  0.0184 -0.1580  0.3909
 5307TIP3    H137336   5.754   4.090  10.885  0.1683 -0.2114  0.3443
 5307TIP3    H237337   5.837   3.999  10.972  0.0804 -0.1146  0.5314
 5308TIP3   OH237338   1.501   0.106  16.793 -0.1375 -0.1942  0.4232
 5308TIP3    H137339   1.432   0.152  16.841  0.9763  0.3939  1.5138
 5308TIP3    H237340   1.583   0.136  16.832  0.9824  1.5416 -2.8680
 5309TIP3   OH237341   0.246   0.231  11.410  0.5344  0.2119  0.2821
 5309TIP3    H137342   0.308   0.287  11.365  1.7425 -1.0996  0.2411
 5309TIP3    H237343   0.195   0.190  11.340  0.5738  0.2419  0.2359
 5310TIP3   OH237344   2.402   3.626  15.641  0.0396  0.0253 -0.3882
 5310TIP3    H137345   2.460   3.563  15.685 -0.0292  0.5149  0.4170
 5310TIP3    H237346   2.450   3.709  15.644 -0.1062  0.1362 -0.9663
 5311TIP3   OH237347   5.381   2.305   5.202  0.2559  0.2327 -0.2985
 5311TIP3    H137348   5.463   2.259   5.184  1.0705  1.0788  1.0108
 5311TIP3    H237349   5.400   2.357   5.280 -1.2277  1.2474 -0.5712
 5312TIP3   OH237350   2.588   3.424   1.506 -0.6280  0.0228 -0.0584
 5312TIP3    H137351   2.651   3.360   1.474 -0.4303  0.7477 -1.1529
 5312TIP3    H237352   2.630   3.464   1.582 -0.2838 -0.3544 -0.0504
 5313TIP3   OH237353   0.532   1.009  13.833  0.4979  0.2085  0.4496
 5313TIP3    H137354   0.570   0.991  13.919 -1.8596 -0.9902  1.3446
 5313TIP3    H237355   0.588   1.076  13.795  1.3708  1.1141  3.1111
 5314TIP3   OH237356   0.458   2.400   1.077 -0.3311 -0.6423  0.4536
 5314TIP3    H137357   0.412   2.465   1.131 -0.6999 -0.6399  0.1365
 5314TIP3    H237358   0.506   2.346   1.141  1.6209  1.1624  0.6383
 5315TIP3   OH237359   2.776   6.570  14.605  0.1583 -0.5838  0.3497
 5315TIP3    H137360   2.721   6.607  14.674  0.1911 -1.0936  0.6508
 5315TIP3    H237361   2.750   6.479  14.598 -0.1929 -0.4215 -0.6704
 5316TIP3   OH237362   1.623   2.894   5.759  0.4031 -0.1818 -0.2383
 5316TIP3    H137363   1.632   2.944   5.840 -1.4871 -0.3339  0.1014
 5316TIP3    H237364   1.589   2.957   5.695  2.1692  0.0172 -1.0431
 5317TIP3   OH237365   1.809   0.585   1.705  0.2137  0.2012  0.1584
 5317TIP3    H137366   1.819   0.553   1.616  1.7624 -1.3740  0.8332
 5317TIP3    H237367   1.886   0.639   1.721 -1.5694  3.1233 -0.4014
 5318TIP3   OH237368   3.806   5.999  16.536  0.0026 -0.0258  0.4004
 5318TIP3    H137369   3.740   5.931  16.525 -1.2890  1.4292 -1.3078
 5318TIP3    H237370   3.816   6.007  16.631 -0.3842 -2.0185  0.6455
 5319TIP3   OH237371   2.533   1.197   0.238  0.5032  0.2487 -0.0242
 5319TIP3    H137372   2.562   1.146   0.314 -3.2252 -0.4985  1.1030
 5319TIP3    H237373   2.533   1.288   0.268  0.7099  0.1612  0.2461
 5320TIP3   OH237374   6.123   1.389   3.117 -0.3406  0.1849  0.7000
 5320TIP3    H137375   6.202   1.337   3.128  0.4713  0.4724 -2.6499
 5320TIP3    H237376   6.154   1.480   3.115 -0.7259  0.3147 -0.3769
 5321TIP3   OH237377   1.188   1.971  17.150  0.1007 -0.3094  0.4015
 5321TIP3    H137378   1.176   1.944  17.241 -1.9764  2.5312  1.0988
 5321TIP3    H237379   1.203   2.065  17.154  0.7224 -0.2125 -2.2000
 5322TIP3   OH237380   6.230   2.292   5.167  0.1184 -0.1839  0.2286
 5322TIP3    H137381   6.293   2.323   5.102 -0.0878  0.1136  0.1686
 5322TIP3    H237382   6.148   2.336   5.144  0.4004  1.1640  1.6202
 5323TIP3   OH237383   6.657   6.313   1.519  0.5859 -0.0232  0.4339
 5323TIP3    H137384   6.582   6.257   1.535  0.6936  0.0311  1.1388
 5323TIP3    H237385   6.620   6.400   1.504  0.3511 -0.4105 -1.5396
 5324TIP3   OH237386   3.413   0.041   1.602  0.0831 -0.3059 -0.1050
 5324TIP3    H137387   3.323   0.047   1.572 -0.1999 -0.6468  0.6509
 5324TIP3    H237388   3.432  -0.053   1.602  0.3357 -0.2566  0.0349
 5325TIP3   OH237389   5.066   4.439   1.429 -0.0848 -0.1357  0.4385
 5325TIP3    H137390   4.974   4.416   1.444 -0.1887  0.2474  0.3981
 5325TIP3    H237391   5.088   4.397   1.346 -1.1686  2.3739 -1.2390
 5326TIP3   OH237392   1.858   2.713   3.089  0.5122  0.3138  0.3181
 5326TIP3    H137393   1.781   2.740   3.139 -0.3382  1.0077 -1.2760
 5326TIP3    H237394   1.861   2.775   3.016  0.9099 -1.4439 -1.2230
 5327TIP3   OH237395   5.696   1.970  12.032  0.7296  0.2991 -0.6782
 5327TIP3    H137396   5.752   1.893  12.027  0.4955  0.1606 -1.2243
 5327TIP3    H237397   5.617   1.940  12.077  0.5289  0.1412 -1.1185
 5328TIP3   OH237398   3.169   0.538   2.400  0.1873  0.0608 -0.0541
 5328TIP3    H137399   3.240   0.588   2.360  0.4440 -0.9691 -0.9619
 5328TIP3    H237400   3.089   0.583   2.373  0.4654  0.8579  0.4379
 5329TIP3   OH237401   6.688   3.076   1.493 -0.3356 -0.1215  0.2719
 5329TIP3    H137402   6.691   2.984   1.469  0.2133 -0.1462  0.4261
 5329TIP3    H237403   6.669   3.077   1.587  0.1653 -0.0930  0.3752
 5330TIP3   OH237404   6.560   3.266   2.908 -0.0814 -0.1505 -0.1626
 5330TIP3    H137405   6.541   3.203   2.978  2.0919 -0.6150  0.0870
 5330TIP3    H237406   6.479   3.268   2.856 -1.1130 -1.1835  1.2880
 5331TIP3   OH237407   3.318   6.136   1.551  0.8253  0.3640 -0.0853
 5331TIP3    H137408   3.397   6.093   1.584  0.3704  0.6194  1.4186
 5331TIP3    H237409   3.250   6.110   1.613 -0.3869 -0.2249 -1.6233
 5332TIP3   OH237410   2.365   1.177   4.927 -0.3729 -1.3419  0.6439
 5332TIP3    H137411   2.400   1.259   4.961 -1.3413  0.3171 -2.0536
 5332TIP3    H237412   2.292   1.156   4.984 -0.5948  0.1269  0.9375
 5333TIP3   OH237413   0.622   6.522   0.512 -0.5223 -0.0986  0.2039
 5333TIP3    H137414   0.636   6.427   0.509  2.6851  0.2447  1.0755
 5333TIP3    H237415   0.550   6.537   0.451 -0.8076 -3.0224 -0.3378
 5334TIP3   OH237416   4.781   1.000  12.170 -0.2701  0.1421 -0.4939
 5334TIP3    H137417   4.788   1.069  12.104 -0.8027  1.1309  0.4568
 5334TIP3    H237418   4.698   1.016  12.214 -0.0160 -0.6120  0.3000
 5335TIP3   OH237419   1.362   1.305  16.286 -0.5573  0.5757  0.2906
 5335TIP3    H137420   1.281   1.291  16.237  1.0917  0.1624 -2.5232
 5335TIP3    H237421   1.339   1.282  16.376 -3.8549  1.6611 -0.1229
 5336TIP3   OH237422   1.312   2.391   0.998  0.2034  0.6447 -0.1665
 5336TIP3    H137423   1.317   2.296   1.010  0.9906  0.7378  0.2626
 5336TIP3    H237424   1.249   2.402   0.927  0.1676 -0.2034 -0.2813
 5337TIP3   OH237425   3.330   4.039  16.276 -0.0080 -0.0066 -0.3423
 5337TIP3    H137426   3.319   3.948  16.302 -1.9252  0.9991  2.9834
 5337TIP3    H237427   3.251   4.059  16.225 -0.7257  0.3222  0.8600
 5338TIP3   OH237428   4.045   2.546  17.179 -0.3675 -0.1570 -0.4649
 5338TIP3    H137429   4.119   2.567  17.236  0.7582  0.6235 -2.1188
 5338TIP3    H237430   3.982   2.617  17.192 -0.5825 -0.5081  0.5055
 5339TIP3   OH237431   2.468   5.568   0.659 -0.2778  0.7963  0.5438
 5339TIP3    H137432   2.531   5.593   0.592 -1.0830 -2.2980 -1.6117
 5339TIP3    H237433   2.383   5.595   0.622 -0.7191 -0.8612  0.2476
 5340TIP3   OH237434   4.597   3.869  13.573 -0.2054 -0.3473 -0.3639
 5340TIP3    H137435   4.595   3.914  13.488 -0.7465  0.5292  0.0895
 5340TIP3    H237436   4.531   3.800  13.565  1.0811 -1.5067 -1.2875
 5341TIP3   OH237437   3.592   1.418   4.341  0.1278 -0.0002  0.7587
 5341TIP3    H137438   3.632   1.427   4.254 -0.5509  0.1737  0.4478
 5341TIP3    H237439   3.499   1.405   4.322  0.0743 -0.6717  1.4473
 5342TIP3   OH237440   3.816   0.432  12.675  0.0392  0.5086  0.4970
 5342TIP3    H137441   3.801   0.421  12.769  1.9437 -0.4569  0.7317
 5342TIP3    H237442   3.768   0.360  12.634 -0.5858  0.7801  0.7537
 5343TIP3   OH237443   4.808   4.436   1.895 -0.4433  0.5612  0.6150
 5343TIP3    H137444   4.895   4.396   1.897 -2.1375 -3.5799  3.0265
 5343TIP3    H237445   4.804   4.487   1.976 -0.4222  0.3033  0.7813
 5344TIP3   OH237446   6.356   3.393   0.596  0.3176 -0.1144  0.7958
 5344TIP3    H137447   6.373   3.299   0.589  1.2266  0.1639 -1.5652
 5344TIP3    H237448   6.439   3.431   0.622  1.1090  0.3441 -2.0362
 5345TIP3   OH237449   1.068   4.547  11.823 -0.1608 -0.6620  0.0843
 5345TIP3    H137450   1.108   4.533  11.909  0.0926 -1.3243 -0.1423
 5345TIP3    H237451   1.134   4.595  11.773 -0.4696  0.0957  0.3876
 5346TIP3   OH237452   6.326   0.849  16.154 -0.0495 -0.5645  0.2270
 5346TIP3    H137453   6.392   0.849  16.224  1.3382 -0.2540 -1.0325
 5346TIP3    H237454   6.276   0.769  16.169  0.4045 -0.6492  1.4029
 5347TIP3   OH237455   3.347   0.453  15.006  0.3827 -0.0285 -0.9402
 5347TIP3    H137456   3.310   0.391  14.942 -0.8712  0.6370 -0.8827
 5347TIP3    H237457   3.311   0.538  14.980 -1.0056  0.1144  1.2719
 5348TIP3   OH237458   4.002   2.905   5.281 -0.7924 -0.2527  0.1229
 5348TIP3    H137459   3.983   2.828   5.335 -1.5658 -0.8086 -0.9199
 5348TIP3    H237460   4.026   2.973   5.345  1.2394 -1.6891  1.0052
 5349TIP3   OH237461   2.724   5.277  11.351  0.0453 -0.0465 -0.2468
 5349TIP3    H137462   2.668   5.291  11.274 -0.6155  0.9762  0.3965
 5349TIP3    H237463   2.813   5.277  11.316 -0.1610  1.7063 -0.8889
 5350TIP3   OH237464   6.000   4.428  12.680 -0.4339  0.1852  0.0886
 5350TIP3    H137465   6.048   4.360  12.633  0.9259  0.9626  0.3182
 5350TIP3    H237466   5.945   4.379  12.742  0.0330 -0.7274 -0.1919
 5351TIP3   OH237467   3.240   0.020  10.820 -0.0263 -0.1134  0.4532
 5351TIP3    H137468   3.210  -0.005  10.733 -0.0855 -1.0798  0.7390
 5351TIP3    H237469   3.284   0.104  10.807 -0.1447 -0.1842 -0.4817
 5352TIP3   OH237470   1.791   0.319   5.937  0.1962 -0.3012  0.6263
 5352TIP3    H137471   1.815   0.268   5.859  0.3888 -0.2141  0.6295
 5352TIP3    H237472   1.819   0.408   5.917  2.4240 -0.6776  1.7297
 5353TIP3   OH237473   2.024   4.996   6.132  0.1002  0.6674  0.1056
 5353TIP3    H137474   1.932   4.988   6.109  0.0056  0.6754  0.4837
 5353TIP3    H237475   2.034   5.087   6.162  0.1631  0.5718  0.3731
 5354TIP3   OH237476   5.660   5.080   3.924  0.7771  0.1530 -0.2588
 5354TIP3    H137477   5.713   5.000   3.929 -0.8394 -0.8969  0.9963
 5354TIP3    H237478   5.681   5.129   4.004 -1.4683 -1.2171  1.2909
 5355TIP3   OH237479   3.899   6.227  15.620  0.3066 -0.0105  0.2924
 5355TIP3    H137480   3.955   6.151  15.635  0.7998 -0.0888 -1.6115
 5355TIP3    H237481   3.847   6.202  15.543 -2.3770  0.0700  1.9587
 5356TIP3   OH237482   2.908   6.633  14.970 -0.1805 -0.1922  0.3194
 5356TIP3    H137483   2.839   6.589  15.019  0.2609 -1.9236 -0.5596
 5356TIP3    H237484   2.871   6.719  14.950 -1.8444 -0.8619  0.3875
 5357TIP3   OH237485   3.546   5.129  14.594 -0.1352 -0.1141  0.0690
 5357TIP3    H137486   3.579   5.193  14.658  0.8578 -0.7337  0.2024
 5357TIP3    H237487   3.524   5.052  14.645  0.7501 -0.6462 -0.3205
 5358TIP3   OH237488   3.875   1.532  16.640  0.7013  0.6555 -0.0384
 5358TIP3    H137489   3.844   1.555  16.727  0.5263 -1.1065  0.3871
 5358TIP3    H237490   3.966   1.562  16.639  0.6687  0.8033  0.7107
 5359TIP3   OH237491   3.228   5.222   2.005 -0.0452  0.1666  0.0669
 5359TIP3    H137492   3.199   5.223   1.913 -0.9377  1.1232  0.3485
 5359TIP3    H237493   3.258   5.311   2.021 -2.1112  0.6806  1.3770
 5360TIP3   OH237494   5.891   2.886  13.686  0.0783 -0.5665  0.0491
 5360TIP3    H137495   5.926   2.850  13.767 -0.7818  0.4286  0.8925
 5360TIP3    H237496   5.964   2.936  13.649  0.3416 -0.6669  0.4224
 5361TIP3   OH237497   2.754   6.198  13.949  0.2124 -0.2915 -0.1889
 5361TIP3    H137498   2.827   6.136  13.948  1.4422  1.0739  0.4993
 5361TIP3    H237499   2.792   6.279  13.913 -1.1733  0.2443 -0.4962
 5362TIP3   OH237500   2.618   1.915  14.221  0.1238  0.6859  0.1773
 5362TIP3    H137501   2.541   1.951  14.265 -0.3866 -1.5792  1.2700
 5362TIP3    H237502   2.662   1.862  14.287  0.0637 -1.7799 -1.6103
 5363TIP3   OH237503   5.093   5.717   3.285 -0.0557  0.5706 -0.3508
 5363TIP3    H137504   5.015   5.771   3.301 -0.4604  0.6045 -2.2342
 5363TIP3    H237505   5.063   5.648   3.226  1.3207  0.5396 -1.0567
 5364TIP3   OH237506   0.749   0.222   5.553 -0.0563 -0.5059 -0.2846
 5364TIP3    H137507   0.661   0.242   5.584  0.6406  0.1205  1.3794
 5364TIP3    H237508   0.772   0.141   5.598  0.2786 -0.5887 -0.6031
 5365TIP3   OH237509   0.956   5.673  13.858 -0.3513  0.2944  0.4077
 5365TIP3    H137510   0.958   5.726  13.938 -1.3874 -0.7519  1.1663
 5365TIP3    H237511   1.048   5.649  13.844 -0.0900  0.8749  1.0048
 5366TIP3   OH237512   6.196   0.871  15.554 -0.6532 -0.4960 -0.1224
 5366TIP3    H137513   6.198   0.787  15.507 -1.6597 -0.3056 -0.5214
 5366TIP3    H237514   6.143   0.928  15.499 -1.1652 -0.0175  0.8454
 5367TIP3   OH237515   2.884   3.842  14.626  0.3412 -0.1780 -0.1763
 5367TIP3    H137516   2.826   3.776  14.588 -1.5108 -0.0943  2.2518
 5367TIP3    H237517   2.949   3.791  14.675 -0.6622 -0.2937  1.1047
 5368TIP3   OH237518   4.081   4.454  13.256 -0.3747  0.4551 -0.0987
 5368TIP3    H137519   4.112   4.431  13.169 -1.6324  0.7703 -0.6539
 5368TIP3    H237520   4.141   4.522  13.287 -0.8397  1.5103 -1.4048
 5369TIP3   OH237521   0.336   4.510  12.388  0.4575 -0.2255  0.3495
 5369TIP3    H137522   0.425   4.516  12.354  0.8175 -1.8385  0.9057
 5369TIP3    H237523   0.280   4.529  12.313  1.2566 -1.7621 -0.6916
 5370TIP3   OH237524   3.076   2.101  11.114 -0.8113  0.2398 -0.2445
 5370TIP3    H137525   3.148   2.038  11.107 -2.1703 -2.0696  3.6196
 5370TIP3    H237526   3.006   2.064  11.059  0.1411  1.4539 -2.4075
 5371TIP3   OH237527   1.568   0.239   5.494 -0.1665  0.1312  0.0835
 5371TIP3    H137528   1.474   0.226   5.508  0.0042  0.6114  1.9478
 5371TIP3    H237529   1.580   0.333   5.506  0.6555 -0.0238  0.4733
 5372TIP3   OH237530   3.355   0.707   1.051 -0.1435  0.1256 -0.0213
 5372TIP3    H137531   3.291   0.761   1.098  2.4374  2.6654  0.8825
 5372TIP3    H237532   3.340   0.728   0.958  1.4571  3.5244  0.3149
 5373TIP3   OH237533   0.888   6.508   5.543 -0.4917 -0.0288 -0.1450
 5373TIP3    H137534   0.857   6.595   5.566  2.7185  1.6853 -1.6662
 5373TIP3    H237535   0.981   6.510   5.561  0.0872 -2.4079 -2.2292
 5374TIP3   OH237536   5.328   0.274   1.588 -0.5209 -0.1679 -0.5725
 5374TIP3    H137537   5.254   0.219   1.613 -0.8605  1.2063  1.7483
 5374TIP3    H237538   5.298   0.364   1.605  1.0030  0.5462 -1.4543
 5375TIP3   OH237539   5.959   1.086   2.239  0.0069 -0.6850 -0.7464
 5375TIP3    H137540   5.916   1.170   2.221 -2.0759 -1.4272  0.4154
 5375TIP3    H237541   6.033   1.109   2.295 -0.7610  0.3798 -0.1189
 5376TIP3   OH237542   4.155   4.299   0.464  0.1693 -0.4654 -0.0287
 5376TIP3    H137543   4.108   4.217   0.476  1.4466 -1.3600 -0.8403
 5376TIP3    H237544   4.141   4.321   0.371  1.2978 -0.7413 -0.2820
 5377TIP3   OH237545   4.880   4.105  15.335  0.7312  0.4107  0.3237
 5377TIP3    H137546   4.942   4.104  15.407  1.8998  0.6217 -0.6474
 5377TIP3    H237547   4.921   4.162  15.269 -0.3828  0.3627 -0.4352
 5378TIP3   OH237548   6.608   3.503  15.979 -0.1186 -0.6789  0.2130
 5378TIP3    H137549   6.627   3.493  16.072  1.0705 -2.9234 -0.1999
 5378TIP3    H237550   6.532   3.562  15.976 -0.8284 -1.3587  2.6440
 5379TIP3   OH237551   1.426   4.393  11.317 -0.2027  0.3163  0.5247
 5379TIP3    H137552   1.377   4.386  11.236  1.4827 -2.6296 -0.3929
 5379TIP3    H237553   1.451   4.486  11.322  0.0220  0.5262 -2.5677
 5380TIP3   OH237554   6.338   1.381  15.342  0.1935 -0.0911  0.3139
 5380TIP3    H137555   6.413   1.360  15.397  0.1427  0.7541  0.7223
 5380TIP3    H237556   6.266   1.397  15.404  0.0102  0.3639 -0.0058
 5381TIP3   OH237557   2.117   2.448  14.533  0.2736 -0.5759  0.3338
 5381TIP3    H137558   2.172   2.384  14.578 -0.8771 -1.4219  0.5666
 5381TIP3    H237559   2.085   2.402  14.456 -0.4109 -0.2156  0.3985
 5382TIP3   OH237560   1.289   4.206  12.061 -0.1632 -0.1294 -0.0281
 5382TIP3    H137561   1.238   4.181  11.984 -0.7959 -2.4775  1.0681
 5382TIP3    H237562   1.377   4.220  12.027 -0.6340 -0.1189 -1.3289
 5383TIP3   OH237563   1.047   2.561  15.632 -0.0766  0.0267 -0.4215
 5383TIP3    H137564   1.002   2.587  15.552  0.7528  0.7895 -0.6519
 5383TIP3    H237565   1.139   2.554  15.607  0.1905  0.2810  0.4685
 5384TIP3   OH237566   4.835   3.859   4.535  0.1389 -0.4812  0.3929
 5384TIP3    H137567   4.750   3.816   4.524 -0.1552  0.1362  0.1874
 5384TIP3    H237568   4.815   3.953   4.528  0.7267 -0.2936  1.0497
 5385TIP3   OH237569   3.424   2.575  12.174 -0.2596 -0.4313 -0.1478
 5385TIP3    H137570   3.377   2.532  12.102 -0.9631 -0.2190  0.1732
 5385TIP3    H237571   3.378   2.658  12.186 -0.1259 -0.4474  0.5118
 5386TIP3   OH237572   4.338   4.870  10.868  0.2689  0.3191  0.9029
 5386TIP3    H137573   4.335   4.789  10.818  1.2132  0.3942  0.7091
 5386TIP3    H237574   4.369   4.936  10.806  1.9088  0.3205  1.6679
 5387TIP3   OH237575   3.908   3.586  12.584 -0.0657 -0.1698  0.1867
 5387TIP3    H137576   3.816   3.579  12.561  0.1338  1.1598 -1.1366
 5387TIP3    H237577   3.909   3.584  12.680 -1.2566 -2.2355  0.2211
 5388TIP3   OH237578   2.377   3.771  10.906 -0.2533  0.5678  0.0859
 5388TIP3    H137579   2.403   3.772  10.814 -3.0338  0.6630 -0.7727
 5388TIP3    H237580   2.282   3.762  10.905 -0.5088  1.7106  2.9414
 5389TIP3   OH237581   3.240   0.537   4.320 -0.6433  0.2199 -0.4930
 5389TIP3    H137582   3.324   0.494   4.300 -0.5631 -0.9829  2.0064
 5389TIP3    H237583   3.174   0.477   4.285 -0.4770 -0.1555 -0.1742
 5390TIP3   OH237584   3.552   3.944   0.720 -0.6712 -0.0829 -0.0201
 5390TIP3    H137585   3.550   3.879   0.791 -0.2739 -1.4135 -1.1978
 5390TIP3    H237586   3.535   4.027   0.764  0.2502 -0.7777  1.7465
 5391TIP3   OH237587   5.886   1.188   1.260 -0.6832  0.6056 -0.3582
 5391TIP3    H137588   5.899   1.095   1.237 -1.8138  0.1840  0.6458
 5391TIP3    H237589   5.793   1.204   1.245 -0.7248  1.2755  0.5384
 5392TIP3   OH237590   5.520   2.521  12.342 -0.2600 -0.5643  0.5003
 5392TIP3    H137591   5.551   2.448  12.288  0.4157  0.0485  0.0479
 5392TIP3    H237592   5.508   2.593  12.280  0.6774  0.1977  1.1742
 5393TIP3   OH237593   0.890   2.306  12.063 -0.2888 -0.0353  0.5230
 5393TIP3    H137594   0.841   2.233  12.099 -1.4393  0.4778  0.0265
 5393TIP3    H237595   0.824   2.369  12.036  0.6935  1.3129  1.1797
 5394TIP3   OH237596   3.654   3.255   2.890 -0.3384 -0.4056  0.1122
 5394TIP3    H137597   3.611   3.275   2.974 -1.6558 -0.9541 -0.4037
 5394TIP3    H237598   3.648   3.337   2.841 -1.5838 -0.7131 -0.2721
 5395TIP3   OH237599   6.477   4.509  10.841 -0.3320 -0.3518  0.0446
 5395TIP3    H137600   6.387   4.531  10.818  0.4590  1.4787 -1.6062
 5395TIP3    H237601   6.519   4.488  10.758  1.2040  0.6788  0.5211
 5396TIP3   OH237602   5.535   1.709   2.166  0.1193  0.7562  0.3059
 5396TIP3    H137603   5.460   1.733   2.112  0.4948 -0.4710 -0.8066
 5396TIP3    H237604   5.518   1.751   2.251 -1.1299  1.6302 -0.3513
 5397TIP3   OH237605   0.216   4.323  12.908 -0.1040  0.4136  0.3493
 5397TIP3    H137606   0.224   4.419  12.912  0.7726  0.3157  1.2831
 5397TIP3    H237607   0.246   4.301  12.820 -1.2440  1.0669 -0.2263
 5398TIP3   OH237608   3.976   0.891  12.299  0.4994  0.1921  0.5235
 5398TIP3    H137609   3.932   0.975  12.287  0.9817  0.6071  1.5536
 5398TIP3    H237610   3.982   0.855  12.210 -0.6713  0.7375  0.2003
 5399TIP3   OH237611   6.735   5.655   0.310  0.9412  0.5854 -0.5722
 5399TIP3    H137612   6.649   5.633   0.345  1.1579  0.6445  0.0230
 5399TIP3    H237613   6.749   5.594   0.238  0.4845  0.4467 -0.5428
 5400TIP3   OH237614   2.919   6.628   3.418  0.8517  0.0311 -0.2235
 5400TIP3    H137615   2.993   6.641   3.476 -0.1076  0.1197  1.0268
 5400TIP3    H237616   2.900   6.534   3.422 -0.2953  0.2830  1.0283
 5401TIP3   OH237617   0.724   1.167  15.793 -0.1141  0.1617 -0.5794
 5401TIP3    H137618   0.792   1.122  15.844  0.4165  1.2304 -0.3121
 5401TIP3    H237619   0.654   1.103  15.784  1.4003 -1.4341 -1.8969
 5402TIP3   OH237620   2.567   4.246  15.514 -0.0251 -0.0435  0.2697
 5402TIP3    H137621   2.493   4.255  15.454  0.6549 -1.4423 -0.8187
 5402TIP3    H237622   2.595   4.155  15.505  0.6741 -0.0416  2.0501
 5403TIP3   OH237623   5.345   3.073   3.895  0.0991  0.1617 -0.1589
 5403TIP3    H137624   5.348   3.168   3.909  1.4278  0.3698 -1.6544
 5403TIP3    H237625   5.402   3.037   3.963  0.2653  0.4971 -0.1183
 5404TIP3   OH237626   4.383   4.358   0.086 -0.2628 -0.4030 -0.0375
 5404TIP3    H137627   4.447   4.296   0.050 -0.8813 -1.6973  0.9930
 5404TIP3    H237628   4.337   4.308   0.154 -1.7898  0.7488 -0.1675
 5405TIP3   OH237629   2.983   4.509   2.662  0.2161 -0.1087  0.4235
 5405TIP3    H137630   2.989   4.557   2.580 -1.1095 -1.5824 -0.5819
 5405TIP3    H237631   2.951   4.574   2.725 -2.2155  0.2424 -1.0518
 5406TIP3   OH237632   2.226   6.201   1.262 -0.5768 -0.8116  0.0071
 5406TIP3    H137633   2.209   6.290   1.233  1.7820 -0.3540 -0.1274
 5406TIP3    H237634   2.297   6.170   1.206 -2.8614 -3.6905 -1.5742
 5407TIP3   OH237635   0.359   0.040  15.702 -0.6482 -0.6478  0.1866
 5407TIP3    H137636   0.345   0.024  15.609 -2.2572  1.1816  0.0609
 5407TIP3    H237637   0.454   0.044  15.712 -0.4499 -1.0471 -1.3148
 5408TIP3   OH237638   3.963   2.081  17.091  0.0045  0.0063 -0.3742
 5408TIP3    H137639   3.910   2.066  17.013  0.2457 -0.5786 -0.4316
 5408TIP3    H237640   3.946   2.172  17.115 -0.5723 -0.0051 -0.7280
 5409TIP3   OH237641   0.947   1.458  14.108 -0.1121  0.2375 -0.7082
 5409TIP3    H137642   0.973   1.460  14.200 -0.0001  1.8227 -0.7447
 5409TIP3    H237643   1.025   1.487  14.061 -0.0922 -0.8035 -1.3333
 5410TIP3   OH237644   5.564   2.254   5.621  0.0502 -0.0121  0.2907
 5410TIP3    H137645   5.572   2.166   5.657 -0.4254 -0.1385  0.0788
 5410TIP3    H237646   5.597   2.247   5.531 -0.8356 -0.1734 -0.0292
 5411TIP3   OH237647   3.002   5.824  14.546  0.4973 -0.6532 -0.2605
 5411TIP3    H137648   2.953   5.757  14.498 -0.4006 -0.2768  0.1001
 5411TIP3    H237649   3.091   5.789  14.552  0.4185 -1.1022 -1.4125
 5412TIP3   OH237650   0.106   6.541  14.770  0.4289  0.1962  0.3738
 5412TIP3    H137651   0.118   6.534  14.675  1.1828  2.1908  0.2747
 5412TIP3    H237652   0.062   6.625  14.782  0.2941 -0.0565  1.7963
 5413TIP3   OH237653   0.826   4.269  14.411 -0.4383 -0.2005 -0.3667
 5413TIP3    H137654   0.800   4.358  14.436  0.6682  0.1053 -0.2468
 5413TIP3    H237655   0.840   4.225  14.495 -1.5179 -0.6755 -0.4143
 5414TIP3   OH237656   6.493   1.565   5.669 -0.6523 -0.1615  0.1605
 5414TIP3    H137657   6.422   1.629   5.661 -0.7847 -0.4547 -1.5861
 5414TIP3    H237658   6.480   1.525   5.754 -2.1272  0.3457  0.2088
 5415TIP3   OH237659   3.857   2.560  12.745 -0.1723  0.3104  1.1714
 5415TIP3    H137660   3.821   2.502  12.812 -0.2586  1.0707  1.7891
 5415TIP3    H237661   3.950   2.539  12.744 -0.1207  0.4832  1.7340
 5416TIP3   OH237662   4.508   4.947   3.701  0.5153  0.3917 -0.0697
 5416TIP3    H137663   4.423   4.959   3.743  0.6566  0.0615  0.3173
 5416TIP3    H237664   4.503   4.860   3.662  0.0847  1.0220 -1.4638
 5417TIP3   OH237665   0.149   2.133   3.459  0.1763 -0.5435 -0.9127
 5417TIP3    H137666   0.083   2.086   3.409  0.4900 -0.5572 -1.3179
 5417TIP3    H237667   0.112   2.220   3.472  0.1739 -0.4769 -1.3427
 5418TIP3   OH237668   6.108   3.078   0.502 -0.0279 -0.0681 -0.0824
 5418TIP3    H137669   6.048   3.065   0.576  0.3040  2.4251  0.7200
 5418TIP3    H237670   6.090   3.167   0.473  0.8683 -0.5111 -2.1143
 5419TIP3   OH237671   0.423   6.356   6.212 -0.3514 -0.9023  0.4260
 5419TIP3    H137672   0.518   6.350   6.226 -0.1024 -1.2461 -1.2250
 5419TIP3    H237673   0.410   6.442   6.174 -0.8110 -0.6048  1.2180
 5420TIP3   OH237674   6.732   1.553   5.559 -0.1249  0.0571 -0.0427
 5420TIP3    H137675   6.764   1.601   5.482  0.9470  2.5397  1.8201
 5420TIP3    H237676   6.637   1.563   5.555  0.0512  2.1960  0.1305
 5421TIP3   OH237677   0.586   3.128  14.038 -0.8758 -0.0352 -0.4765
 5421TIP3    H137678   0.556   3.114  14.128  1.4428  1.6777  0.6873
 5421TIP3    H237679   0.528   3.197  14.004  0.5520  2.1519  1.1909
 5422TIP3   OH237680   4.594   5.380  16.637 -0.5377  0.3029  0.5663
 5422TIP3    H137681   4.570   5.328  16.714  0.6623 -2.0424 -0.5486
 5422TIP3    H237682   4.681   5.414  16.657  0.5113 -1.7084 -0.3443
 5423TIP3   OH237683   0.285   5.117   5.231  0.1167  0.4086 -0.2540
 5423TIP3    H137684   0.355   5.103   5.168 -1.9549 -0.3890 -2.5518
 5423TIP3    H237685   0.255   5.206   5.214  0.6558  0.8174  0.8524
 5424TIP3   OH237686   0.034   3.660  13.901  0.1942  0.1298  0.2388
 5424TIP3    H137687  -0.001   3.700  13.821  1.6437  0.5541 -0.2236
 5424TIP3    H237688   0.025   3.566  13.887  2.1183  0.1119 -1.2926
 5425TIP3   OH237689   2.658   0.366   3.295  0.5554  0.1184  0.8430
 5425TIP3    H137690   2.607   0.440   3.328  1.8429  2.2796 -1.6168
 5425TIP3    H237691   2.593   0.300   3.272 -0.7092  0.8061  2.2700
 5426TIP3   OH237692   6.448   4.286   0.392  0.0340  0.0896  0.5981
 5426TIP3    H137693   6.450   4.287   0.296 -0.0231  1.5805  0.5880
 5426TIP3    H237694   6.540   4.287   0.418  0.0945 -1.6788  0.6019
 5427TIP3   OH237695   0.592   0.193  12.168 -0.3232 -0.4154  0.2990
 5427TIP3    H137696   0.544   0.218  12.090 -0.2157 -1.2542 -0.0486
 5427TIP3    H237697   0.525   0.168  12.231 -0.3774 -1.2582 -0.0714
 5428TIP3   OH237698   3.602   2.220   6.641 -0.1280  0.0917  0.0207
 5428TIP3    H137699   3.673   2.178   6.592  0.4936 -0.3448  1.2641
 5428TIP3    H237700   3.629   2.312   6.647  0.5860 -0.1622  0.8982
 5429TIP3   OH237701   4.914   6.660   0.640  0.3715 -0.3759 -0.1140
 5429TIP3    H137702   4.970   6.737   0.634  2.0465 -1.2825  2.0896
 5429TIP3    H237703   4.961   6.592   0.592  1.4261 -1.2025  1.9377
 5430TIP3   OH237704   3.839   0.477  15.693  0.4473  0.0583  0.1926
 5430TIP3    H137705   3.799   0.413  15.751 -1.1255  0.6807 -0.1364
 5430TIP3    H237706   3.864   0.549  15.750  1.2878 -0.4090  0.4249
 5431TIP3   OH237707   1.081   3.213  11.668  0.5847  0.8089  0.0532
 5431TIP3    H137708   1.142   3.143  11.643 -0.1771  0.9908 -2.6182
 5431TIP3    H237709   1.077   3.269  11.591 -3.0594  0.7159  0.0061
 5432TIP3   OH237710   5.152   6.156  13.768 -0.4371  0.4439  0.0213
 5432TIP3    H137711   5.152   6.060  13.770 -0.1461  0.4349  2.1427
 5432TIP3    H237712   5.240   6.180  13.796 -1.3153  1.2729  2.3236
 5433TIP3   OH237713   3.506   2.350   4.128  0.1277  0.4999 -0.3604
 5433TIP3    H137714   3.537   2.265   4.095  1.3421  1.0613 -0.7113
 5433TIP3    H237715   3.543   2.414   4.068  0.9158  1.4358  1.0774
 5434TIP3   OH237716   3.783   5.791  15.562 -0.6211 -0.1071  0.2051
 5434TIP3    H137717   3.741   5.866  15.605 -0.2234 -0.5377  1.3698
 5434TIP3    H237718   3.751   5.715  15.611  0.8912 -0.5043  0.6183
 5435TIP3   OH237719   1.048   5.424  11.998  0.0670  0.0226  0.3549
 5435TIP3    H137720   1.056   5.398  11.906  1.0561 -0.6289  0.5982
 5435TIP3    H237721   0.958   5.401  12.022 -0.1104 -0.0629 -0.3709
 5436TIP3   OH237722   1.771   3.742   2.759 -0.0324 -0.3696 -0.1233
 5436TIP3    H137723   1.853   3.782   2.789 -0.8795  0.3081  1.3763
 5436TIP3    H237724   1.703   3.801   2.790 -1.1484 -1.3311 -0.6794
 5437TIP3   OH237725   4.904   3.932  14.334 -0.0933  0.4742 -0.0497
 5437TIP3    H137726   4.914   4.027  14.348  0.2033  0.7704 -1.9775
 5437TIP3    H237727   4.968   3.911  14.265 -1.5352 -0.7265 -1.0919
 5438TIP3   OH237728   2.193   0.480  13.274  0.0487 -0.3078 -0.6900
 5438TIP3    H137729   2.108   0.446  13.246 -0.0833 -0.1411 -0.4896
 5438TIP3    H237730   2.172   0.553  13.332  0.3324  0.1359 -1.1438
 5439TIP3   OH237731   5.641   3.931   1.734 -0.1037 -0.3727 -0.3063
 5439TIP3    H137732   5.606   4.020   1.741 -0.7711 -0.6567  0.0299
 5439TIP3    H237733   5.641   3.913   1.640  0.7149  0.2420 -0.4346
 5440TIP3   OH237734   5.989   6.152   5.205 -0.5614  0.1323 -0.3606
 5440TIP3    H137735   5.916   6.198   5.165 -1.1981 -0.3051  0.2732
 5440TIP3    H237736   5.978   6.061   5.176  0.6186  0.3206 -1.5100
 5441TIP3   OH237737   1.527   5.368  14.749  0.7243  0.8367  0.8093
 5441TIP3    H137738   1.543   5.288  14.698  1.6197  0.9588  0.8712
 5441TIP3    H237739   1.446   5.351  14.796 -0.2095  0.7795 -0.7635
 5442TIP3   OH237740   0.220   5.042   0.076  0.1831 -1.2589 -0.2556
 5442TIP3    H137741   0.308   5.004   0.070  1.0200  0.5926 -0.1460
 5442TIP3    H237742   0.201   5.073  -0.012  0.8479  0.8461  0.2882
 5443TIP3   OH237743   5.327   4.711  16.733  0.8992 -0.1507 -0.1194
 5443TIP3    H137744   5.235   4.734  16.738  0.2814 -2.5609  2.8149
 5443TIP3    H237745   5.349   4.718  16.640 -2.4359 -0.2124 -1.0285
 5444TIP3   OH237746   2.139   0.476  12.780 -0.4277 -0.3428  0.3942
 5444TIP3    H137747   2.049   0.451  12.757 -0.9089  1.2017  0.4561
 5444TIP3    H237748   2.178   0.396  12.813 -1.7124 -1.1109  0.1463
 5445TIP3   OH237749   5.427   4.393  16.376  0.2477 -0.0676  0.2382
 5445TIP3    H137750   5.395   4.394  16.286  0.1296 -0.7751  0.2669
 5445TIP3    H237751   5.357   4.433  16.428 -0.0734 -0.4830  0.1326
 5446TIP3   OH237752   1.489   6.715  15.532  0.4417 -0.3257 -0.1514
 5446TIP3    H137753   1.422   6.690  15.468 -0.3695  1.0565  0.1115
 5446TIP3    H237754   1.572   6.689  15.492 -0.0703  0.1776 -1.6021
 5447TIP3   OH237755   2.725   1.334  11.416 -0.1787 -0.0075  0.1630
 5447TIP3    H137756   2.686   1.374  11.493 -3.2685 -0.0046 -1.2811
 5447TIP3    H237757   2.720   1.402  11.349  1.7623 -0.2607 -0.2980
 5448TIP3   OH237758   5.320   0.806  16.561  0.7275  0.2078 -0.0258
 5448TIP3    H137759   5.350   0.780  16.648  0.1944 -0.1794  0.0457
 5448TIP3    H237760   5.236   0.850  16.577  1.0714  0.9673 -0.2586
 5449TIP3   OH237761   6.088   4.663   2.383 -0.2406 -0.2242 -0.4352
 5449TIP3    H137762   6.020   4.689   2.321 -0.4352  1.6771  0.4944
 5449TIP3    H237763   6.041   4.615   2.451  0.1671 -3.6473 -2.3311
 5450TIP3   OH237764   0.430   5.936   1.492  0.4513  0.1895 -0.4875
 5450TIP3    H137765   0.482   6.015   1.505  1.6182 -0.6753  0.3364
 5450TIP3    H237766   0.447   5.910   1.401  2.6700 -0.8793  0.1827
 5451TIP3   OH237767   5.772   1.946  13.854  0.0322 -0.1013  0.5593
 5451TIP3    H137768   5.678   1.931  13.864 -0.6324 -0.1517 -3.6721
 5451TIP3    H237769   5.784   2.039  13.873 -1.3399  0.3791 -0.6748
 5452TIP3   OH237770   0.112   5.357   2.874  0.4542 -0.0051 -0.1767
 5452TIP3    H137771   0.186   5.366   2.934  1.2549  1.5941 -1.3253
 5452TIP3    H237772   0.142   5.292   2.809 -0.5597 -2.0322  1.2684
 5453TIP3   OH237773   2.833   3.734   2.247  0.6377  0.0815 -0.0576
 5453TIP3    H137774   2.847   3.729   2.341 -3.2848  0.9712  0.7571
 5453TIP3    H237775   2.800   3.647   2.223  0.0229  0.3620 -0.2435
 5454TIP3   OH237776   4.156   0.443  15.172 -0.2267  0.9521 -0.6758
 5454TIP3    H137777   4.227   0.390  15.209 -1.4851  0.3903  1.0616
 5454TIP3    H237778   4.198   0.495  15.104  1.8119  0.4685  0.1385
 5455TIP3   OH237779   2.106   6.204   3.209 -0.0427  0.0182 -0.1639
 5455TIP3    H137780   2.093   6.114   3.239  0.4085 -0.3119 -0.9404
 5455TIP3    H237781   2.199   6.211   3.190 -0.2826  0.2436 -1.3635
 5456TIP3   OH237782   5.250   3.307  17.094 -0.0300 -0.1454 -0.0509
 5456TIP3    H137783   5.266   3.273  17.181  0.5786 -0.9087 -0.4512
 5456TIP3    H237784   5.295   3.247  17.035 -0.9570 -0.0079 -0.9449
 5457TIP3   OH237785   5.096   1.378   2.392 -0.2820 -0.6086  0.1573
 5457TIP3    H137786   5.167   1.423   2.347 -1.2409  0.2557 -0.5257
 5457TIP3    H237787   5.079   1.300   2.339 -0.3240 -0.4353 -0.0858
 5458TIP3   OH237788   1.458   0.585  11.516  0.0193  0.6313 -0.4004
 5458TIP3    H137789   1.415   0.576  11.431 -1.1368  0.7687  0.1474
 5458TIP3    H237790   1.474   0.679  11.524 -1.5176  0.8570  0.2907
 5459TIP3   OH237791   0.176   6.401  13.448  0.0016 -0.2542  0.0585
 5459TIP3    H137792   0.159   6.318  13.403  0.3391  0.1502 -0.8325
 5459TIP3    H237793   0.269   6.419  13.432  0.0779  0.0015  0.7502
 5460TIP3   OH237794   1.804   3.746   5.615 -0.6984  0.6121  0.2835
 5460TIP3    H137795   1.815   3.653   5.597  0.0375  0.8381 -0.4695
 5460TIP3    H237796   1.888   3.786   5.591 -1.8306  1.8428 -1.9626
 5461TIP3   OH237797   6.185   5.778   1.432  0.5057  0.5113 -0.1132
 5461TIP3    H137798   6.150   5.799   1.346  0.3304  1.1924  0.1117
 5461TIP3    H237799   6.278   5.761   1.417  0.6476  1.4168 -0.3321
 5462TIP3   OH237800   1.139   3.451   4.410  0.7418  0.1207 -0.0025
 5462TIP3    H137801   1.152   3.501   4.491  1.7041 -1.3942  0.8307
 5462TIP3    H237802   1.055   3.481   4.376 -0.5405 -0.4179  2.4798
 5463TIP3   OH237803   1.721   3.096  15.987  0.7649 -0.7993  0.1158
 5463TIP3    H137804   1.723   3.089  15.892  3.9066  0.6328 -0.0437
 5463TIP3    H237805   1.661   3.169  16.004  1.3851 -0.0274 -0.8964
 5464TIP3   OH237806   0.248   2.776  15.564 -0.1492  0.4309 -0.4139
 5464TIP3    H137807   0.286   2.862  15.584  0.1918  0.0016  0.9359
 5464TIP3    H237808   0.284   2.753  15.479  3.0292 -0.1277  0.9556
 5465TIP3   OH237809   6.100   6.376   2.293 -0.5424 -0.4536 -0.5028
 5465TIP3    H137810   6.163   6.364   2.364 -0.3899  0.7781 -0.4075
 5465TIP3    H237811   6.027   6.318   2.316 -1.8600  1.9950  2.3178
 5466TIP3   OH237812   0.460   3.111   0.866 -0.3219  0.1945 -0.1166
 5466TIP3    H137813   0.502   3.054   0.930  1.1774  1.8509  0.4517
 5466TIP3    H237814   0.515   3.106   0.788 -1.0516 -0.3008 -0.6166
 5467TIP3   OH237815   3.004   2.390  14.574 -0.2122 -0.0280  0.0911
 5467TIP3    H137816   2.944   2.316  14.575 -0.0414 -0.1917  1.8126
 5467TIP3    H237817   2.951   2.464  14.602  0.1861 -0.0454  0.9595
 5468TIP3   OH237818   6.227   4.193  17.199  0.0544 -0.3279  0.0472
 5468TIP3    H137819   6.219   4.179  17.105 -0.8683 -0.8804  0.1997
 5468TIP3    H237820   6.149   4.152  17.237  0.0835  0.4496  0.9998
 5469TIP3   OH237821   1.569   2.294  11.881  0.4347 -0.7000 -0.3724
 5469TIP3    H137822   1.567   2.200  11.899  1.7525 -0.8595 -0.9215
 5469TIP3    H237823   1.480   2.316  11.854  0.1232 -1.7959 -0.2608
 5470TIP3   OH237824   1.456   2.406  17.088  0.0011 -0.0242 -0.0871
 5470TIP3    H137825   1.458   2.313  17.113 -0.0688 -0.2366 -0.8565
 5470TIP3    H237826   1.494   2.409  17.001  0.6587  0.7780  0.2143
 5471TIP3   OH237827   1.807   5.315  14.426 -0.3869 -0.0188  0.3918
 5471TIP3    H137828   1.813   5.371  14.504  0.6180  0.8947 -0.3185
 5471TIP3    H237829   1.887   5.263  14.428 -2.2333 -3.1148  2.2084
 5472TIP3   OH237830   0.283   3.325   3.817  0.3440  0.2982 -0.4637
 5472TIP3    H137831   0.346   3.395   3.837  0.2472  0.1796  0.2642
 5472TIP3    H237832   0.329   3.269   3.754  1.0124  0.1647  0.1299
 5473TIP3   OH237833   5.303   6.641  11.579 -0.8022  0.0963  0.3618
 5473TIP3    H137834   5.366   6.577  11.547 -2.3752 -0.6209 -1.5341
 5473TIP3    H237835   5.344   6.726  11.563 -0.2540 -0.3577 -0.7681
 5474TIP3   OH237836   6.530   1.909  13.223  0.4514  0.0595  0.9630
 5474TIP3    H137837   6.524   1.841  13.156 -2.0063  0.2192  0.9151
 5474TIP3    H237838   6.592   1.972  13.187 -0.6248  0.0338 -1.1324
 5475TIP3   OH237839   0.109   5.043   6.219 -0.4596  0.3499  0.7191
 5475TIP3    H137840   0.148   5.016   6.302  2.5864  1.6707 -0.1193
 5475TIP3    H237841   0.068   5.127   6.238  2.0681  1.7158  0.5852
 5476TIP3   OH237842   0.606   0.585  14.422 -0.2942 -0.3198 -0.0019
 5476TIP3    H137843   0.670   0.520  14.451 -0.3366 -1.2592 -1.8190
 5476TIP3    H237844   0.556   0.539  14.354 -0.2600  1.6564 -1.4338
 5477TIP3   OH237845   5.549   3.937  12.591  0.1875  0.0664 -0.1499
 5477TIP3    H137846   5.562   3.961  12.683  0.9016 -2.0356  0.3461
 5477TIP3    H237847   5.632   3.899  12.564  0.1224  1.0359 -1.8303
 5478TIP3   OH237848   3.463   3.022  14.683 -0.1357  0.3088  0.5852
 5478TIP3    H137849   3.455   2.960  14.611  2.9218  0.1772  0.2397
 5478TIP3    H237850   3.483   2.967  14.759  1.6592  0.7248  0.4607
 5479TIP3   OH237851   0.475   0.236   4.051  0.1217  0.5121 -0.5521
 5479TIP3    H137852   0.511   0.148   4.044  2.1676  1.2376  0.0681
 5479TIP3    H237853   0.449   0.244   4.142  1.2761  0.9856 -0.2408
 5480TIP3   OH237854   6.569   2.135   5.386  0.2327  0.4721  0.2267
 5480TIP3    H137855   6.621   2.174   5.316  0.0907 -0.4643 -0.4162
 5480TIP3    H237856   6.603   2.045   5.394 -1.1687 -0.1187 -0.1213
 5481TIP3   OH237857   4.458   0.263  17.256  0.3673 -0.5385 -0.9845
 5481TIP3    H137858   4.465   0.258  17.160 -0.3815  0.7269 -1.1270
 5481TIP3    H237859   4.529   0.322  17.282 -0.9862  1.2135 -1.0600
 5482TIP3   OH237860   0.261   5.660   5.008  0.7127 -0.2334  0.6087
 5482TIP3    H137861   0.262   5.756   5.000 -0.8191 -0.1620  0.9098
 5482TIP3    H237862   0.342   5.639   5.054  1.4004  0.8561 -0.0641
 5483TIP3   OH237863   3.338   6.097  10.763 -0.0753  0.3719 -0.6343
 5483TIP3    H137864   3.363   6.100  10.856 -0.4370  1.3498 -0.5485
 5483TIP3    H237865   3.376   6.016  10.730 -1.1270 -0.7191  0.7014
 5484TIP3   OH237866   1.441   4.891   5.648  0.3822  0.4268  0.2341
 5484TIP3    H137867   1.375   4.956   5.673 -0.6227 -0.4470 -0.0767
 5484TIP3    H237868   1.522   4.941   5.640 -0.4220  1.6994 -0.3083
 5485TIP3   OH237869   5.503   1.568  11.442  0.3764 -0.6063 -0.3149
 5485TIP3    H137870   5.514   1.489  11.388  0.6404 -0.3512 -0.6393
 5485TIP3    H237871   5.468   1.633  11.382  2.5401  0.2747 -0.6951
 5486TIP3   OH237872   0.748   1.899   5.080  0.1061 -0.0024 -0.2565
 5486TIP3    H137873   0.795   1.983   5.073 -0.1241  0.1958  0.5094
 5486TIP3    H237874   0.807   1.835   5.041 -0.0340  0.6323 -1.5460
 5487TIP3   OH237875   3.175   4.877  14.569 -0.1310 -0.0671  0.5658
 5487TIP3    H137876   3.081   4.892  14.573 -0.1071  0.1149  0.4529
 5487TIP3    H237877   3.198   4.893  14.478 -0.1852 -1.2613  0.3287
 5488TIP3   OH237878   2.779   2.438   4.503  0.1754 -0.1530 -0.5771
 5488TIP3    H137879   2.724   2.472   4.573  1.1453 -1.3591  0.8319
 5488TIP3    H237880   2.802   2.515   4.451  0.6479  1.0404  1.3159
 5489TIP3   OH237881   5.945   2.164   4.645  0.4288 -0.1843 -0.0063
 5489TIP3    H137882   5.976   2.211   4.567  0.7606 -1.7690 -0.8743
 5489TIP3    H237883   5.852   2.185   4.651  0.6779  1.0185 -0.0240
 5490TIP3   OH237884   5.663   3.574  16.155 -0.3667  0.0747 -0.0698
 5490TIP3    H137885   5.663   3.573  16.060 -1.9713  0.4787 -0.0981
 5490TIP3    H237886   5.572   3.558  16.179  0.0600 -0.2979  1.4060
 5491TIP3   OH237887   0.786   2.683   4.492  0.3233 -0.6966 -0.3406
 5491TIP3    H137888   0.792   2.594   4.458  1.7209 -0.7708  0.0322
 5491TIP3    H237889   0.845   2.684   4.567  1.2946  0.8636 -1.0723
 5492TIP3   OH237890   2.404   3.054   1.133 -0.3484  0.0683 -0.5594
 5492TIP3    H137891   2.415   3.145   1.106 -0.7326  0.2628 -0.0774
 5492TIP3    H237892   2.493   3.021   1.145 -0.2076  0.3620 -0.8006
 5493TIP3   OH237893   3.672   2.351  12.902 -0.4033 -0.5634 -0.0301
 5493TIP3    H137894   3.640   2.401  12.976  4.2690  1.6370  0.8294
 5493TIP3    H237895   3.637   2.397  12.825  0.1573  1.3266  0.7992
 5494TIP3   OH237896   5.009   1.563   0.189 -0.0757  0.0534  0.6360
 5494TIP3    H137897   4.919   1.595   0.185  0.6361  2.3440  1.4992
 5494TIP3    H237898   5.041   1.567   0.099 -0.2332  1.1204  0.6223
 5495TIP3   OH237899   2.723   2.264   3.555  0.1562  0.5399 -0.5410
 5495TIP3    H137900   2.728   2.221   3.640 -1.2734 -1.5685 -1.4482
 5495TIP3    H237901   2.646   2.321   3.561 -0.9330 -0.8569 -0.9176
 5496TIP3   OH237902   2.785   3.181  15.866 -0.1059 -0.6426 -0.2121
 5496TIP3    H137903   2.879   3.186  15.880 -0.3841  0.2964  1.6355
 5496TIP3    H237904   2.751   3.143  15.947 -1.2542 -1.8305 -1.2101
 5497TIP3   OH237905   2.663   6.058   3.619  0.1501 -0.5910 -1.0524
 5497TIP3    H137906   2.656   5.992   3.687 -1.5619  0.3027 -0.2887
 5497TIP3    H237907   2.629   6.016   3.541  2.3985 -1.7201 -1.5175
 5498TIP3   OH237908   4.681   5.003   2.785  0.4278 -0.4975  0.4488
 5498TIP3    H137909   4.598   4.962   2.760 -0.6028  1.8991 -0.3525
 5498TIP3    H237910   4.747   4.942   2.754 -1.0119 -2.3919  0.9247
 5499TIP3   OH237911   5.187   6.749   5.233  0.2282  0.0078  0.1051
 5499TIP3    H137912   5.245   6.696   5.288  0.1923 -1.9962 -1.6437
 5499TIP3    H237913   5.214   6.728   5.143 -0.6730  2.0271 -0.6875
 5500TIP3   OH237914   3.101   0.176  15.846  0.5931 -0.3158 -0.1021
 5500TIP3    H137915   3.183   0.157  15.801  1.4445 -0.4751  1.4657
 5500TIP3    H237916   3.071   0.092  15.879  0.0352 -0.1844 -0.2646
 5501TIP3   OH237917   2.489   0.056   5.358  0.4309 -0.1942 -0.4795
 5501TIP3    H137918   2.425   0.026   5.422  1.8940  1.2928  1.8288
 5501TIP3    H237919   2.495   0.151   5.372  1.6367  0.0144 -2.0516
 5502TIP3   OH237920   1.558   5.982  11.492 -0.3250  0.0045  0.0074
 5502TIP3    H137921   1.543   5.905  11.438 -1.8445 -0.8680  1.5943
 5502TIP3    H237922   1.565   6.054  11.430  0.3988 -1.2892 -1.4650
 5503TIP3   OH237923   6.040   2.379  15.340 -0.7294  0.2604  0.0180
 5503TIP3    H137924   6.002   2.440  15.276  0.8180  0.7845 -0.4329
 5503TIP3    H237925   6.134   2.384  15.325 -0.5452 -2.3836 -0.1640
 5504TIP3   OH237926   1.006   4.560   0.228 -0.2050  0.2020  0.0324
 5504TIP3    H137927   0.973   4.597   0.146  0.6995  1.1061  0.0544
 5504TIP3    H237928   1.095   4.530   0.206  0.7366  2.0555  1.0776
 5505TIP3   OH237929   0.549   0.741  17.210 -0.1140 -0.1321 -0.3571
 5505TIP3    H137930   0.486   0.728  17.282  0.0436  1.0704  0.0156
 5505TIP3    H237931   0.609   0.808  17.242  2.5067 -2.4888  0.0208
 5506TIP3   OH237932   3.878   3.928  10.604 -0.2060 -0.1758 -0.3109
 5506TIP3    H137933   3.813   3.857  10.607  1.0368 -1.3357  0.6916
 5506TIP3    H237934   3.959   3.888  10.638  0.5290  1.7485  0.3632
 5507TIP3   OH237935   2.889   5.901  13.024 -0.3737 -0.3661  0.6054
 5507TIP3    H137936   2.898   5.808  13.002  0.7878  0.0554 -0.9265
 5507TIP3    H237937   2.969   5.941  12.990 -0.3979  1.0655  2.1209
 5508TIP3   OH237938   5.703   2.483   5.701  0.0998 -0.2105  0.3605
 5508TIP3    H137939   5.625   2.441   5.666  0.3995 -0.4982  0.0266
 5508TIP3    H237940   5.776   2.428   5.672  0.4958  0.5049 -0.0358
 5509TIP3   OH237941   5.294   4.753   5.970  0.1118 -0.0034 -0.1350
 5509TIP3    H137942   5.379   4.708   5.966  0.1259 -0.1475  1.4093
 5509TIP3    H237943   5.230   4.683   5.959  0.0871 -0.7637  3.6464
 5510TIP3   OH237944   0.486   6.507   6.477 -0.1146  1.1685  0.0782
 5510TIP3    H137945   0.500   6.412   6.474 -1.9871  0.8757 -2.1995
 5510TIP3    H237946   0.506   6.531   6.567 -1.4735 -1.7269  1.2931
 5511TIP3   OH237947   6.181   6.122   4.081  0.3740 -0.1424  0.5712
 5511TIP3    H137948   6.126   6.046   4.103 -0.0656 -0.4678 -1.4536
 5511TIP3    H237949   6.271   6.090   4.089  0.2477 -0.2652  1.6860
 5512TIP3   OH237950   5.168   3.835  15.861 -0.5545  0.0021  0.6527
 5512TIP3    H137951   5.083   3.822  15.902 -2.0201  1.6586 -1.6248
 5512TIP3    H237952   5.176   3.762  15.799 -0.6316  0.2078  0.3985
 5513TIP3   OH237953   3.000   0.654   0.013  0.1461  0.6036  0.1428
 5513TIP3    H137954   3.021   0.647   0.106  0.0384 -0.3508  0.0982
 5513TIP3    H237955   2.954   0.574  -0.008 -2.5722  2.1136 -0.0543
 5514TIP3   OH237956   4.750   3.205  16.383  0.4137 -0.1954  0.2609
 5514TIP3    H137957   4.700   3.164  16.311 -0.1168 -1.1614  1.1411
 5514TIP3    H237958   4.749   3.298  16.363  0.4608 -0.4674 -1.1000
 5515TIP3   OH237959   2.753   4.768  13.479  0.0951 -0.1105  0.5449
 5515TIP3    H137960   2.738   4.691  13.534 -1.9653  0.1965  0.4968
 5515TIP3    H237961   2.800   4.734  13.403  0.9242 -0.9578  1.4121
 5516TIP3   OH237962   6.134   5.443   3.291  0.4297  0.5214  0.2145
 5516TIP3    H137963   6.069   5.382   3.255 -0.3430  1.0371  0.6913
 5516TIP3    H237964   6.175   5.482   3.215 -0.6462  1.0370 -0.1231
 5517TIP3   OH237965   5.556   2.735   1.042  1.0610  0.0191 -0.1148
 5517TIP3    H137966   5.537   2.711   1.133  0.1845  1.3261  0.0690
 5517TIP3    H237967   5.542   2.829   1.039  1.1524  0.0014 -1.5991
 5518TIP3   OH237968   5.718   1.471   5.531  0.0739 -0.2557  0.4068
 5518TIP3    H137969   5.800   1.492   5.577  0.8137 -1.6007 -0.2161
 5518TIP3    H237970   5.744   1.406   5.465 -1.6781 -1.5637  0.9139
 5519TIP3   OH237971   4.976   2.500  14.362 -0.4726 -0.0146  0.5855
 5519TIP3    H137972   4.918   2.575  14.372 -1.3590 -0.7278  0.9959
 5519TIP3    H237973   4.972   2.455  14.446  3.2484  1.6394  1.8522
 5520TIP3   OH237974   6.156   3.726   3.482  0.2300  0.5075  0.8836
 5520TIP3    H137975   6.162   3.697   3.573  0.4989 -1.4956  0.2711
 5520TIP3    H237976   6.084   3.675   3.446 -0.1669  1.6131  0.0636
 5521TIP3   OH237977   6.387   3.090  16.848 -0.3981  0.2457  0.2223
 5521TIP3    H137978   6.327   3.146  16.898  0.5143  1.1218  0.3773
 5521TIP3    H237979   6.393   3.132  16.762 -0.2972 -0.0356  0.0939
 5522TIP3   OH237980   2.254   0.780   4.083 -0.1023  0.1002  0.0967
 5522TIP3    H137981   2.252   0.722   4.159  1.4955  0.2686  0.2998
 5522TIP3    H237982   2.273   0.722   4.009  0.0263  0.1568  0.0843
 5523TIP3   OH237983   5.579   0.267   0.779 -0.2923  0.0964 -0.0691
 5523TIP3    H137984   5.531   0.328   0.836  0.1519  0.7780 -0.4049
 5523TIP3    H237985   5.542   0.181   0.798 -1.9808  0.6644 -0.6878
 5524TIP3   OH237986   4.676   4.598   3.432  0.1002  0.1960 -0.3468
 5524TIP3    H137987   4.757   4.647   3.418  0.4265 -0.4008 -0.6007
 5524TIP3    H237988   4.689   4.555   3.517 -0.7188  1.5673  0.5018
 5525TIP3   OH237989   4.722   1.098   6.511 -0.3482 -0.0113  0.6237
 5525TIP3    H137990   4.671   1.179   6.504 -0.3003  0.0302  0.7611
 5525TIP3    H237991   4.791   1.118   6.574 -0.9196 -0.4617  1.4102
 5526TIP3   OH237992   0.995   1.825   2.723 -0.1695 -0.4165 -0.4498
 5526TIP3    H137993   1.048   1.840   2.801 -0.0973 -0.5143 -0.4796
 5526TIP3    H237994   0.910   1.797   2.758  0.1592 -1.4136 -0.4181
 5527TIP3   OH237995   0.106   3.059  16.249 -0.4728  0.2507 -0.1438
 5527TIP3    H137996   0.058   3.096  16.174 -0.7936  1.3231  0.5586
 5527TIP3    H237997   0.182   3.117  16.259 -0.1593 -0.1935  0.0413
 5528TIP3   OH237998   1.393   3.135  14.463  0.0338 -0.5247 -0.2205
 5528TIP3    H137999   1.421   3.057  14.511 -1.4141 -1.2403 -0.4790
 5528TIP3    H238000   1.303   3.117  14.438 -0.1803  1.0401 -0.7240
 5529TIP3   OH238001   4.392   3.138   4.072 -0.8439  0.2410 -0.2993
 5529TIP3    H138002   4.387   3.196   4.148 -1.6585  0.4060 -0.4799
 5529TIP3    H238003   4.460   3.074   4.096  0.4777  1.5697 -0.3153
 5530TIP3   OH238004   1.666   5.525   2.794  0.5693  0.4161 -0.1819
 5530TIP3    H138005   1.591   5.484   2.838  1.3318 -0.8629 -0.0311
 5530TIP3    H238006   1.705   5.455   2.743  2.2220  0.8231  0.4716
 5531TIP3   OH238007   2.817   3.038  14.665 -0.0718  0.0904  0.3378
 5531TIP3    H138008   2.731   2.999  14.682  0.0029 -0.3170 -0.1910
 5531TIP3    H238009   2.849   2.993  14.587 -0.2256  1.5989 -0.6447
 5532TIP3   OH238010   4.582   6.034   3.205  0.0890 -0.1171 -0.1476
 5532TIP3    H138011   4.522   6.096   3.163  2.5951  1.7097 -1.3088
 5532TIP3    H238012   4.657   6.087   3.231  1.8310 -2.4704 -0.0196
 5533TIP3   OH238013   1.930   2.688   5.630 -0.3766  0.5493  0.0449
 5533TIP3    H138014   1.957   2.748   5.700 -0.3639  1.5792 -0.8157
 5533TIP3    H238015   1.986   2.611   5.641  1.7934  1.9410 -0.6657
 5534TIP3   OH238016   2.284   6.294   5.430 -0.0026  0.8124  0.1496
 5534TIP3    H138017   2.268   6.226   5.364  0.7824 -0.5637  1.3262
 5534TIP3    H238018   2.377   6.314   5.421  0.8543 -1.4628  2.6243
 5535TIP3   OH238019   3.572   5.380   0.887 -0.3995 -0.0614  0.1514
 5535TIP3    H138020   3.497   5.434   0.910  1.5476  2.1314  1.7882
 5535TIP3    H238021   3.573   5.381   0.791  0.3899  4.2496  0.0222
 5536TIP3   OH238022   3.316   4.681   0.001 -0.1594 -0.1266  0.3569
 5536TIP3    H138023   3.288   4.632   0.078  0.2544  1.0300  1.2612
 5536TIP3    H238024   3.236   4.725  -0.029 -0.4091 -0.8873 -0.1341
 5537TIP3   OH238025   2.653   0.937  17.080  0.5251 -0.5086 -0.2707
 5537TIP3    H138026   2.734   0.891  17.101  0.9119 -0.1131 -0.8738
 5537TIP3    H238027   2.636   0.992  17.157  0.9563 -0.4111 -0.2425
 5538TIP3   OH238028   4.917   3.703  14.909 -0.4723 -0.2895  0.3395
 5538TIP3    H138029   4.895   3.706  15.002 -1.2672  0.2448  0.1322
 5538TIP3    H238030   4.851   3.645  14.870  0.3425 -1.1862  0.2268
 5539TIP3   OH238031   4.546   0.976   3.712 -0.0905 -0.3542  0.2527
 5539TIP3    H138032   4.501   0.954   3.630  1.1541 -1.2315 -0.2272
 5539TIP3    H238033   4.576   0.891   3.746 -0.4793  0.0137  1.5652
 5540TIP3   OH238034   5.601   0.558   2.959  0.0211  0.2199 -0.1367
 5540TIP3    H138035   5.545   0.607   3.019 -0.3571 -1.4553  0.9760
 5540TIP3    H238036   5.554   0.475   2.947  1.0084 -0.1934 -1.2804
 5541TIP3   OH238037   2.149   0.469   1.743  0.2908 -0.3237 -0.5107
 5541TIP3    H138038   2.143   0.470   1.839  0.2532  0.3204 -0.5117
 5541TIP3    H238039   2.058   0.472   1.713  0.2725 -1.3565 -0.5734
 5542TIP3   OH238040   5.154   6.415  13.169  0.6137 -0.3535  0.2261
 5542TIP3    H138041   5.198   6.495  13.141 -1.9075  0.7274 -0.9871
 5542TIP3    H238042   5.181   6.350  13.104 -0.1522  0.5003 -0.9974
 5543TIP3   OH238043   4.598   4.845   1.062 -0.4613  0.4894 -0.2322
 5543TIP3    H138044   4.511   4.804   1.071 -1.7492  2.3179 -2.9737
 5543TIP3    H238045   4.579   4.938   1.049  2.1691  1.4859  2.2722
 5544TIP3   OH238046   4.538   4.559   3.072 -0.1740 -0.1409  0.2532
 5544TIP3    H138047   4.455   4.605   3.056  1.2711  2.4471 -0.5623
 5544TIP3    H238048   4.589   4.577   2.993  1.1523 -1.7438  0.7113
 5545TIP3   OH238049   6.054   2.525  11.017  0.2262 -0.3492  0.2155
 5545TIP3    H138050   6.127   2.529  11.078  0.8147  1.2430 -0.5251
 5545TIP3    H238051   6.069   2.598  10.957 -0.7493 -1.3642 -1.3498
 5546TIP3   OH238052   6.437   0.952   1.102  0.1770 -0.5233  0.1438
 5546TIP3    H138053   6.441   0.913   1.189 -0.1813 -0.6149  0.1239
 5546TIP3    H238054   6.353   0.999   1.101 -0.3265 -1.4038 -0.5121
 5547TIP3   OH238055   3.113   3.493  11.057  0.6295 -0.4631  0.5068
 5547TIP3    H138056   3.020   3.476  11.043  0.7917 -2.2505  1.3152
 5547TIP3    H238057   3.133   3.447  11.138  2.7109 -2.0081 -0.8023
 5548TIP3   OH238058   3.616   4.755  12.825  0.4449  0.0338 -0.2021
 5548TIP3    H138059   3.659   4.792  12.749 -1.3798  2.6214 -0.0998
 5548TIP3    H238060   3.650   4.805  12.899  0.8731 -1.2384  0.4882
 5549TIP3   OH238061   2.049   0.408  14.939 -0.7026 -0.8333  0.0842
 5549TIP3    H138062   2.057   0.486  14.884  0.9831 -1.1312 -0.1362
 5549TIP3    H238063   1.955   0.390  14.939 -1.1349  1.1147  0.0525
 5550TIP3   OH238064   2.132   4.336  16.377  0.3374  0.1531  0.3230
 5550TIP3    H138065   2.155   4.328  16.285 -1.0863  1.3958 -0.1706
 5550TIP3    H238066   2.079   4.259  16.396 -1.2236  0.9767 -0.5212
 5551TIP3   OH238067   0.931   6.406   2.636 -0.3642  0.0296 -0.1334
 5551TIP3    H138068   0.845   6.414   2.595 -0.1219  1.2939 -0.4474
 5551TIP3    H238069   0.982   6.352   2.576 -0.3178  1.0371 -1.0312
 5552TIP3   OH238070   5.057   0.403   4.292 -0.1817 -0.0383  0.5843
 5552TIP3    H138071   5.046   0.469   4.360 -0.0948 -0.1597  0.7182
 5552TIP3    H238072   5.082   0.324   4.340  1.1861  0.2098  0.3084
 5553TIP3   OH238073   2.876   5.386  14.473 -0.7198 -0.3547 -0.2334
 5553TIP3    H138074   2.919   5.341  14.547  0.6469  1.6515  0.2693
 5553TIP3    H238075   2.878   5.322  14.402 -0.8446 -1.8590  1.0592
 5554TIP3   OH238076   3.273   5.444  11.098 -0.2569  0.3488 -0.2657
 5554TIP3    H138077   3.203   5.458  11.035 -1.3571  0.7284  1.0141
 5554TIP3    H238078   3.286   5.349  11.099 -3.9779 -0.3483  2.7697
 5555TIP3   OH238079   0.824   1.488  13.266  0.8777 -0.4465  0.1770
 5555TIP3    H138080   0.831   1.399  13.230 -0.3658 -0.7856  0.7178
 5555TIP3    H238081   0.818   1.475  13.361  1.4856  0.2716  0.3218
 5556TIP3   OH238082   3.005   3.448  14.680  0.1013  0.2575  0.2843
 5556TIP3    H138083   3.024   3.456  14.774  1.4498  0.1579  0.0341
 5556TIP3    H238084   3.089   3.461  14.637  0.0160 -2.3195 -0.7968
 5557TIP3   OH238085   1.376   3.455  14.940  0.2496  0.4026  0.4982
 5557TIP3    H138086   1.433   3.493  14.873 -1.6250 -1.9559 -2.7357
 5557TIP3    H238087   1.290   3.495  14.924  0.1877  1.4260  3.0445
 5558TIP3   OH238088   4.354   5.319  17.074  0.8799 -0.3920  0.2558
 5558TIP3    H138089   4.385   5.318  16.983  0.7041  2.0023  0.0908
 5558TIP3    H238090   4.262   5.346  17.067  0.6176 -1.0345  1.1170
 5559TIP3   OH238091   1.214   2.275   0.376  0.8079  0.7350  0.6054
 5559TIP3    H138092   1.131   2.272   0.328  1.0363 -0.6803  0.2491
 5559TIP3    H238093   1.199   2.339   0.446 -0.2599  1.2060 -0.0214
 5560TIP3   OH238094   1.253   2.800   1.553 -0.0041 -0.4494 -0.7327
 5560TIP3    H138095   1.182   2.854   1.519 -0.0352 -1.0102 -1.6061
 5560TIP3    H238096   1.218   2.711   1.550  0.7661 -0.7459 -1.2723
 5561TIP3   OH238097   5.625   4.483   4.680 -0.4797 -0.9408 -0.2079
 5561TIP3    H138098   5.589   4.561   4.722 -0.3029 -1.4937  1.0247
 5561TIP3    H238099   5.581   4.479   4.595 -1.5953 -0.3220  0.3159
 5562TIP3   OH238100   5.498   1.060   4.827 -0.0053  0.2467 -0.1947
 5562TIP3    H138101   5.588   1.035   4.848  0.2014 -0.3723 -1.6865
 5562TIP3    H238102   5.460   0.983   4.786 -0.7911  0.9295 -0.7909
 5563TIP3   OH238103   5.868   4.874   1.455  0.2678  0.5029 -0.4683
 5563TIP3    H138104   5.802   4.889   1.522  0.3246 -0.0793 -0.2800
 5563TIP3    H238105   5.871   4.956   1.405 -1.6124  0.0769 -1.3715
 5564TIP3   OH238106   6.700   4.830   4.496  0.2464  0.1578 -0.1402
 5564TIP3    H138107   6.621   4.879   4.474  0.0393 -0.2971 -0.4200
 5564TIP3    H238108   6.757   4.842   4.421  0.8473  1.2825  0.4569
 5565TIP3   OH238109   2.205   6.578   2.247  0.0190  0.2427 -0.2660
 5565TIP3    H138110   2.238   6.668   2.239 -0.4661  0.4223 -0.2552
 5565TIP3    H238111   2.141   6.582   2.318  1.3305 -0.5026  1.0322
 5566TIP3   OH238112   0.770   4.569   2.940  0.8915 -0.0334  0.1886
 5566TIP3    H138113   0.762   4.621   3.020 -0.1789 -1.3102  0.9416
 5566TIP3    H238114   0.843   4.510   2.958  1.3795  0.4330 -0.2313
 5567TIP3   OH238115   2.110   4.685   0.369 -0.2329 -0.1776 -0.7663
 5567TIP3    H138116   2.120   4.666   0.462  0.2499 -1.9370 -1.1290
 5567TIP3    H238117   2.199   4.693   0.336 -0.1411 -3.4884 -1.7237
 5568TIP3   OH238118   2.753   1.277   3.506 -0.2694  0.1574 -0.4262
 5568TIP3    H138119   2.830   1.228   3.475  0.0003 -0.6680  1.3814
 5568TIP3    H238120   2.776   1.369   3.495  0.5152 -0.0920 -0.9442
 5569TIP3   OH238121   0.219   4.849   3.301  0.9056 -0.1671  0.2776
 5569TIP3    H138122   0.267   4.932   3.308 -1.7827  2.0893 -3.6004
 5569TIP3    H238123   0.205   4.838   3.207 -1.8417 -3.2162  0.8614
 5570TIP3   OH238124   0.348   2.012  11.262 -0.2891  0.0672  0.0894
 5570TIP3    H138125   0.414   2.082  11.270  0.6597 -0.8900  0.9810
 5570TIP3    H238126   0.265   2.054  11.284  0.3315  0.8188  1.0746
 5571TIP3   OH238127   4.819   0.149   5.198 -0.7051  0.4802  0.1346
 5571TIP3    H138128   4.859   0.234   5.215 -0.2130  0.2301  0.2369
 5571TIP3    H238129   4.727   0.169   5.181 -0.5468  1.0537 -0.0627
 5572TIP3   OH238130   2.860   0.603  11.449 -0.0384 -0.5270  0.2651
 5572TIP3    H138131   2.928   0.625  11.385 -0.4099 -0.4984 -0.1210
 5572TIP3    H238132   2.880   0.513  11.475  0.2534 -0.4574  0.2882
 5573TIP3   OH238133   5.912   2.602   4.101 -0.8186  0.2246 -0.1826
 5573TIP3    H138134   5.941   2.693   4.098 -0.8525  0.2608  0.4377
 5573TIP3    H238135   5.898   2.585   4.194 -2.7460  0.2137 -0.4334
 5574TIP3   OH238136   2.088   5.264  17.198 -0.0186  0.2288 -0.3503
 5574TIP3    H138137   2.159   5.291  17.140  0.9639  0.7563  1.0294
 5574TIP3    H238138   2.132   5.242  17.281 -1.4694  0.8520  0.6284
 5575TIP3   OH238139   6.439   1.325   3.779 -0.3138 -0.2757  0.4723
 5575TIP3    H138140   6.502   1.302   3.847 -1.3397 -0.0729  1.5162
 5575TIP3    H238141   6.356   1.335   3.825 -0.8957  0.5890 -0.7032
 5576TIP3   OH238142   5.861   2.650  13.494 -0.6382  0.0046  0.1750
 5576TIP3    H138143   5.953   2.675  13.485 -1.1137  1.6722 -0.3035
 5576TIP3    H238144   5.827   2.706  13.563 -1.3984 -0.3374  0.0891
 5577TIP3   OH238145   5.947   6.446  16.918 -0.3808 -0.2232 -0.6027
 5577TIP3    H138146   6.007   6.412  16.985 -1.1080  0.0309  0.1797
 5577TIP3    H238147   5.869   6.473  16.966  0.1093  2.5025 -1.2016
 5578TIP3   OH238148   1.189   5.498   1.077 -0.5078 -0.0180 -0.2920
 5578TIP3    H138149   1.212   5.414   1.035  0.6779  1.2745 -2.4450
 5578TIP3    H238150   1.269   5.525   1.122 -0.3370  0.6823 -0.9824
 5579TIP3   OH238151   5.212   2.943  16.785 -0.1746 -0.0926  0.4448
 5579TIP3    H138152   5.253   2.980  16.707 -0.7735  0.0201  0.1753
 5579TIP3    H238153   5.165   3.016  16.825 -0.0148 -0.1906  0.8170
 5580TIP3   OH238154   3.725   0.767  12.170  0.0655 -0.5023  0.4250
 5580TIP3    H138155   3.772   0.810  12.241  1.0425 -2.6099  1.1342
 5580TIP3    H238156   3.759   0.678  12.169 -0.7108 -0.8539 -1.9993
 5581TIP3   OH238157   6.245   3.779   0.614 -0.2628  0.2364  0.4002
 5581TIP3    H138158   6.283   3.840   0.550 -3.0404  1.2468 -0.4077
 5581TIP3    H238159   6.162   3.752   0.575  0.2717 -3.1569  1.3332
 5582TIP3   OH238160   0.962   3.380   5.906 -0.3593  0.0237 -0.8722
 5582TIP3    H138161   0.882   3.362   5.956 -0.7506 -1.2454 -1.9010
 5582TIP3    H238162   1.020   3.424   5.969 -2.4290  2.5215 -0.5508
 5583TIP3   OH238163   0.790   3.707   0.512  0.2609  0.1934 -0.0354
 5583TIP3    H138164   0.703   3.694   0.550  0.2077 -0.3630 -0.3409
 5583TIP3    H238165   0.812   3.798   0.533  0.1584 -0.0446  1.1748
 5584TIP3   OH238166   1.038   6.666  13.356 -0.0639 -0.0828 -0.1182
 5584TIP3    H138167   1.073   6.622  13.433  2.4020  0.6136 -0.7627
 5584TIP3    H238168   1.018   6.755  13.386  0.5692  0.0866 -0.1922
 5585TIP3   OH238169   2.399   3.735  16.602  0.2420  0.4256  0.0970
 5585TIP3    H138170   2.367   3.826  16.606  0.2845  0.5376 -1.3924
 5585TIP3    H238171   2.443   3.729  16.517  1.9700 -0.4586  1.0036
 5586TIP3   OH238172   1.515   5.519   3.675 -0.0988  0.1518  0.0208
 5586TIP3    H138173   1.478   5.576   3.742 -0.9473  0.9568 -1.1040
 5586TIP3    H238174   1.594   5.564   3.645  0.7814 -0.6413  1.0769
 5587TIP3   OH238175   5.206   5.251   5.911 -0.0685  0.5168 -0.3462
 5587TIP3    H138176   5.200   5.246   6.007  1.5192  0.1023 -0.2444
 5587TIP3    H238177   5.244   5.167   5.885 -1.1492  0.3419 -1.4274
 5588TIP3   OH238178   3.238   5.671   3.070 -0.2141 -0.2091  0.2417
 5588TIP3    H138179   3.149   5.650   3.098  0.3882 -2.8194  0.4741
 5588TIP3    H238180   3.278   5.586   3.052  2.6403  0.7694  1.4048
 5589TIP3   OH238181   5.309   5.041  14.134 -0.2291  0.1736 -0.4776
 5589TIP3    H138182   5.332   5.113  14.193  0.6866 -0.1484 -0.4311
 5589TIP3    H238183   5.320   4.962  14.187  0.8058 -0.1387 -1.1160
 5590TIP3   OH238184   5.371   3.820  16.227  0.4120 -0.4217 -0.1342
 5590TIP3    H138185   5.286   3.852  16.258  0.2575 -1.4084  0.5003
 5590TIP3    H238186   5.424   3.813  16.306  1.2874  0.7101 -0.5890
 5591TIP3   OH238187   3.121   3.279  17.284 -0.4126  0.3512 -0.2299
 5591TIP3    H138188   3.062   3.311  17.215 -1.6701 -1.5774 -0.1382
 5591TIP3    H238189   3.157   3.358  17.324 -1.4363  1.5539 -1.5910
 5592TIP3   OH238190   5.575   4.253   3.711 -0.5572 -0.1597  0.7196
 5592TIP3    H138191   5.636   4.180   3.706 -0.8743 -0.4076  0.3770
 5592TIP3    H238192   5.489   4.214   3.694 -0.5361  0.5624 -1.2139
 5593TIP3   OH238193   1.031   1.663   0.136 -0.2324 -0.2086  0.7966
 5593TIP3    H138194   1.073   1.727   0.078 -1.5791 -0.3958 -0.4362
 5593TIP3    H238195   1.104   1.623   0.183  0.8326  0.6037 -0.0794
 5594TIP3   OH238196   4.399   4.520   6.502 -0.6731 -0.6568  0.0390
 5594TIP3    H138197   4.452   4.458   6.552  0.3626 -0.9779 -1.3920
 5594TIP3    H238198   4.428   4.509   6.412 -0.6344  1.7304 -0.3001
 5595TIP3   OH238199   1.906   0.877   2.277 -0.1254 -0.2493 -0.0207
 5595TIP3    H138200   1.820   0.883   2.237  0.1008 -0.1097 -0.4920
 5595TIP3    H238201   1.894   0.818   2.351 -1.1008  1.3994  1.2021
 5596TIP3   OH238202   6.458   1.421  13.706  0.1473  0.4358 -0.6616
 5596TIP3    H138203   6.530   1.403  13.767  0.0351 -0.4941 -0.7873
 5596TIP3    H238204   6.479   1.506  13.668 -1.0254  2.3149  2.4900
 5597TIP3   OH238205   2.466   5.330   0.019 -0.2429 -0.7867  0.4099
 5597TIP3    H138206   2.398   5.267   0.042  0.2039 -0.3211  3.4946
 5597TIP3    H238207   2.420   5.395  -0.034 -1.4758 -2.0028 -0.0826
 5598TIP3   OH238208   4.982   3.232  12.664 -0.0734  0.1440 -0.4600
 5598TIP3    H138209   5.003   3.311  12.713 -0.2224 -0.4274  0.5459
 5598TIP3    H238210   4.886   3.232  12.658 -0.2704 -1.0993  1.5711
 5599TIP3   OH238211   2.292   3.135   2.889  0.1478  0.7305 -0.1659
 5599TIP3    H138212   2.299   3.172   2.977  1.2763 -0.6896  0.3684
 5599TIP3    H238213   2.202   3.154   2.862 -0.8647 -0.5137  2.0850
 5600TIP3   OH238214   3.163   0.389   5.155 -0.4967  0.2718 -0.2061
 5600TIP3    H138215   3.127   0.445   5.224  0.6910 -1.3862  1.9344
 5600TIP3    H238216   3.089   0.371   5.097 -1.6003  1.6282  0.7186
 5601TIP3   OH238217   2.125   4.117   4.027 -0.4438  0.3217  0.2691
 5601TIP3    H138218   2.207   4.122   4.077 -1.1846  0.3679  1.5175
 5601TIP3    H238219   2.103   4.024   4.026 -0.7290  0.3857  0.5304
 5602TIP3   OH238220   1.397   0.930   4.132  0.0459 -0.1753  0.1456
 5602TIP3    H138221   1.484   0.913   4.096 -0.4153 -0.7587 -0.7237
 5602TIP3    H238222   1.409   1.008   4.186  0.4690  1.7020 -2.4540
 5603TIP3   OH238223   6.068   1.689   4.456  0.2423  0.4542  0.2490
 5603TIP3    H138224   6.054   1.597   4.434  0.2987  0.2377  1.1113
 5603TIP3    H238225   6.045   1.696   4.548 -0.9210  1.5622 -0.1021
 5604TIP3   OH238226   3.535   5.683  15.370 -0.1467  0.1239 -0.1134
 5604TIP3    H138227   3.464   5.642  15.320  0.1725  0.4375 -0.8493
 5604TIP3    H238228   3.614   5.639  15.339  0.3303  1.9656 -1.7266
 5605TIP3   OH238229   4.614   5.603   4.152 -0.3406 -0.5012 -0.1317
 5605TIP3    H138230   4.625   5.533   4.088 -0.5685 -0.6719  0.0103
 5605TIP3    H238231   4.522   5.595   4.180 -0.8064  0.7935 -1.1939
 5606TIP3   OH238232   0.219   0.893  12.172 -0.0438 -0.0461 -0.2392
 5606TIP3    H138233   0.277   0.969  12.177 -1.2337  0.8794 -0.1483
 5606TIP3    H238234   0.274   0.824  12.134  1.3020  0.6013  0.4509
 5607TIP3   OH238235   2.211   4.500   5.792  0.1762  0.3076 -0.1848
 5607TIP3    H138236   2.175   4.554   5.722 -1.4296  1.9122  1.7387
 5607TIP3    H238237   2.298   4.537   5.808  0.2001  0.5009 -0.7277
 5608TIP3   OH238238   1.341   2.634   5.285  0.0564  0.3183  0.4305
 5608TIP3    H138239   1.250   2.605   5.294  0.6502 -0.9999  2.9392
 5608TIP3    H238240   1.334   2.721   5.246 -2.3691  0.7142  1.5462
 5609TIP3   OH238241   3.813   5.731   5.920  0.9064  0.3104 -0.2021
 5609TIP3    H138242   3.723   5.764   5.917 -0.7794 -3.7504  0.2672
 5609TIP3    H238243   3.851   5.773   5.998 -1.2436  0.6097  0.7620
 5610TIP3   OH238244   4.865   2.745  14.331  0.5829 -0.2800 -0.2568
 5610TIP3    H138245   4.829   2.753  14.243  2.8654  0.5247 -1.1990
 5610TIP3    H238246   4.845   2.829  14.373  0.2006 -0.3543 -0.2879
 5611TIP3   OH238247   1.526   3.672  15.108  0.4950  0.9602  0.5450
 5611TIP3    H138248   1.470   3.750  15.111  0.4561  0.9407  0.3440
 5611TIP3    H238249   1.614   3.706  15.093  0.5574  0.9985  0.9693
 5612TIP3   OH238250   5.164   3.464  10.999  0.1660  0.2975  1.2648
 5612TIP3    H138251   5.242   3.500  11.042  2.2724 -0.3795 -1.6483
 5612TIP3    H238252   5.198   3.398  10.939 -2.8661 -1.0838  0.8722
 5613TIP3   OH238253   0.552   0.142  12.566  0.3897 -0.0403 -0.3463
 5613TIP3    H138254   0.532   0.189  12.485 -0.8080  2.3403  1.2155
 5613TIP3    H238255   0.632   0.184  12.598  1.1076 -1.2723 -0.4626
 5614TIP3   OH238256   1.772   1.772  17.167 -0.0088 -0.1275 -0.0949
 5614TIP3    H138257   1.700   1.828  17.197  0.4398  1.1024 -1.1928
 5614TIP3    H238258   1.845   1.794  17.225 -0.1622 -0.4500  0.2225
 5615TIP3   OH238259   2.977   1.669  10.676 -0.3411 -0.2878 -0.0007
 5615TIP3    H138260   3.057   1.717  10.696 -0.3082  0.0024 -0.8271
 5615TIP3    H238261   3.004   1.577  10.673  0.3546 -0.0684 -2.0575
 5616TIP3   OH238262   2.605   5.094   2.761  0.1551  0.1429 -0.6348
 5616TIP3    H138263   2.533   5.104   2.824 -0.8141 -4.0184 -0.8009
 5616TIP3    H238264   2.679   5.064   2.814  0.2107 -0.5401 -1.0957
 5617TIP3   OH238265   4.818   3.453   5.782 -0.0106 -0.3063 -0.2033
 5617TIP3    H138266   4.889   3.510   5.811  0.0803 -1.1405  1.2894
 5617TIP3    H238267   4.839   3.435   5.690  1.4487 -0.1696  0.0738
 5618TIP3   OH238268   4.260   6.403   3.281  0.5305 -0.0546  0.7905
 5618TIP3    H138269   4.351   6.386   3.304  1.2474  2.0055 -0.3059
 5618TIP3    H238270   4.215   6.320   3.297  2.4304 -0.8982  2.0739
 5619TIP3   OH238271   6.238   6.557  17.130 -0.2685 -0.2677  0.0735
 5619TIP3    H138272   6.268   6.647  17.140 -1.6393  0.1349  0.8709
 5619TIP3    H238273   6.285   6.508  17.197  0.0390 -0.0322  0.0301
 5620TIP3   OH238274   3.008   1.472  10.934  0.5717  0.5256  0.1433
 5620TIP3    H138275   2.913   1.459  10.937  0.8414 -1.6837  0.9161
 5620TIP3    H238276   3.029   1.472  10.840  0.0162 -1.1075 -0.0108
 5621TIP3   OH238277   1.611   1.509   2.912 -0.0713  0.2538 -0.8535
 5621TIP3    H138278   1.667   1.449   2.864 -0.3267 -0.0999 -0.7169
 5621TIP3    H238279   1.545   1.537   2.848 -0.9264 -0.8814 -0.5119
 5622TIP3   OH238280   0.321   5.611   3.122 -0.4238 -0.4016 -0.2204
 5622TIP3    H138281   0.230   5.598   3.098 -0.4126  1.5863 -1.5588
 5622TIP3    H238282   0.345   5.532   3.170 -2.6743 -1.1962 -0.3100
 5623TIP3   OH238283   3.589   4.402   0.285 -0.4044  0.5990 -0.1501
 5623TIP3    H138284   3.506   4.444   0.307 -0.5299 -0.7519  2.4094
 5623TIP3    H238285   3.656   4.464   0.315 -0.5607  0.2181  1.0360
 5624TIP3   OH238286   3.202   4.355   4.875 -0.3622  0.4519 -0.0581
 5624TIP3    H138287   3.152   4.324   4.950 -0.6241  0.3641 -0.2682
 5624TIP3    H238288   3.158   4.436   4.848 -1.3089 -0.3890 -1.1561
 5625TIP3   OH238289   0.636   1.116  12.483 -0.4939 -0.2819 -0.2432
 5625TIP3    H138290   0.724   1.138  12.513 -0.9911 -0.2246  1.2201
 5625TIP3    H238291   0.578   1.142  12.554 -1.4962 -2.4369 -0.1904
 5626TIP3   OH238292   4.406   5.995   1.426  0.0268 -0.1894 -0.1725
 5626TIP3    H138293   4.420   5.900   1.433  0.9604  0.0300  1.4073
 5626TIP3    H238294   4.313   6.004   1.405  0.0709 -1.4570 -1.0339
 5627TIP3   OH238295   2.696   6.505   1.320  0.5667  0.5045  0.6522
 5627TIP3    H138296   2.675   6.413   1.336 -0.9648  0.6641 -0.2536
 5627TIP3    H238297   2.664   6.551   1.398  1.2182  0.3036  1.0486
 5628TIP3   OH238298   2.773   2.586   5.298 -0.1520  0.2661  0.3765
 5628TIP3    H138299   2.723   2.518   5.342 -0.3357 -0.8712 -1.4541
 5628TIP3    H238300   2.711   2.626   5.238  0.4674  0.6313 -0.0387
 5629TIP3   OH238301   3.142   2.048  14.805 -0.2554 -0.2753 -0.1269
 5629TIP3    H138302   3.137   1.983  14.875  0.1962 -0.3798 -0.1880
 5629TIP3    H238303   3.054   2.083  14.798 -0.9612 -2.1633 -1.3224
 5630TIP3   OH238304   6.697   4.330   5.453 -0.2062  0.1581 -1.0006
 5630TIP3    H138305   6.641   4.325   5.376 -1.3690 -0.7085 -0.1387
 5630TIP3    H238306   6.637   4.317   5.527  1.1535 -1.1162 -0.0591
 5631TIP3   OH238307   4.458   3.782  15.706 -0.2139  0.0764  0.3747
 5631TIP3    H138308   4.434   3.709  15.763  0.4617 -0.2602  0.2431
 5631TIP3    H238309   4.539   3.753  15.663  0.2601  1.0418  0.5823
 5632TIP3   OH238310   0.061   4.639  14.520  0.0557  0.3259 -0.4676
 5632TIP3    H138311   0.002   4.677  14.454  0.5759  0.6575 -0.7493
 5632TIP3    H238312   0.029   4.550  14.533 -0.3961  0.4427 -0.7546
 5633TIP3   OH238313   1.135   3.433   1.116  0.3111  0.1958 -0.4157
 5633TIP3    H138314   1.167   3.523   1.116  0.5940  0.1178 -2.0131
 5633TIP3    H238315   1.211   3.381   1.089 -0.6090 -0.1822 -2.4415
 5634TIP3   OH238316   2.109   6.005  15.823 -0.2378 -0.3158  0.2185
 5634TIP3    H138317   2.144   6.094  15.824  0.5549 -0.6091 -0.3111
 5634TIP3    H238318   2.178   5.952  15.863 -0.6148 -0.7193  0.3357
 5635TIP3   OH238319   0.948   5.729  15.359  0.3723 -0.0170  0.3691
 5635TIP3    H138320   0.916   5.656  15.412  0.3869  0.4951  1.1043
 5635TIP3    H238321   0.892   5.728  15.281 -0.0757 -0.3965  0.6869
 5636TIP3   OH238322   6.250   6.414  13.979 -0.0096 -0.2736 -0.0348
 5636TIP3    H138323   6.283   6.366  13.903 -1.0766 -0.7630 -0.2181
 5636TIP3    H238324   6.328   6.439  14.028  0.5900 -3.0064  0.5589
 5637TIP3   OH238325   6.739   2.813   1.484 -0.2476  0.1437  0.2766
 5637TIP3    H138326   6.788   2.778   1.558 -1.9418 -1.0953  0.8715
 5637TIP3    H238327   6.701   2.737   1.441 -0.7458  0.9752 -0.8201
 5638TIP3   OH238328   3.919   5.167  12.177 -0.2042  0.1970  0.2502
 5638TIP3    H138329   3.876   5.089  12.214 -1.2773  0.8551  0.4554
 5638TIP3    H238330   3.919   5.230  12.249  1.7288  0.0261  0.4594
 5639TIP3   OH238331   1.773   6.722   2.765 -0.0852  0.6942 -0.3274
 5639TIP3    H138332   1.717   6.711   2.688  0.0569 -1.6112 -0.1754
 5639TIP3    H238333   1.801   6.814   2.761 -2.1680  1.3437 -1.5453
 5640TIP3   OH238334   1.300   4.654  14.127  0.5758 -0.1785 -0.2870
 5640TIP3    H138335   1.309   4.633  14.034  2.5255 -2.6049  0.3059
 5640TIP3    H238336   1.254   4.737  14.129  0.2312 -0.1665 -3.4026
 5641TIP3   OH238337   0.858   4.073   4.671 -0.1243 -1.0576  0.1375
 5641TIP3    H138338   0.859   4.168   4.675 -0.4340 -1.0867  1.7569
 5641TIP3    H238339   0.813   4.046   4.751  0.3866 -2.5714 -0.0435
 5642TIP3   OH238340   5.794   6.419  14.695 -0.2300  0.3952 -0.2905
 5642TIP3    H138341   5.735   6.456  14.629  0.1931  0.2324 -0.7743
 5642TIP3    H238342   5.794   6.325  14.676  0.6015  0.4559 -0.6565
 5643TIP3   OH238343   3.703   6.656  11.894  0.1107  0.4147  0.2950
 5643TIP3    H138344   3.796   6.677  11.890 -0.2104  1.8650 -0.0934
 5643TIP3    H238345   3.701   6.561  11.907  1.6412  0.4392  1.0280
 5644TIP3   OH238346   2.404   0.062   1.491 -0.1727  0.0048 -0.1998
 5644TIP3    H138347   2.380   0.038   1.401 -0.7050  0.5605 -0.2111
 5644TIP3    H238348   2.350   0.006   1.546  0.3946 -0.5730 -0.2176
 5645TIP3   OH238349   2.814   2.645  13.763  0.6133  0.2001  0.5082
 5645TIP3    H138350   2.785   2.555  13.755  0.8665 -0.2160  3.2307
 5645TIP3    H238351   2.897   2.649  13.715 -0.0693 -0.6082 -0.7871
 5646TIP3   OH238352   4.588   3.511   2.426  0.1750 -0.1614 -0.6166
 5646TIP3    H138353   4.508   3.465   2.452 -0.5279  0.6029 -1.4014
 5646TIP3    H238354   4.655   3.442   2.422 -0.9384 -1.1929 -2.1538
 5647TIP3   OH238355   0.982   5.954   3.367  0.0774  0.2820  0.2329
 5647TIP3    H138356   1.016   6.042   3.384  0.6386  0.0011  0.5655
 5647TIP3    H238357   0.995   5.906   3.448  0.1619 -0.2340 -0.0800
 5648TIP3   OH238358   4.493   2.308   5.783  1.2027  0.1490  0.6715
 5648TIP3    H138359   4.496   2.401   5.760  0.0467  0.4110  1.5009
 5648TIP3    H238360   4.400   2.284   5.774  1.1291 -0.3798  2.4875
 5649TIP3   OH238361   1.255   0.580   2.935 -0.2427 -0.0019 -0.3547
 5649TIP3    H138362   1.277   0.495   2.898 -0.4984  0.0918 -0.7249
 5649TIP3    H238363   1.165   0.570   2.966  0.1196 -0.2221  0.6737
 5650TIP3   OH238364   3.174   4.748   0.448  0.6926 -0.0621  0.0596
 5650TIP3    H138365   3.095   4.789   0.413  0.8593  0.9130  0.7981
 5650TIP3    H238366   3.245   4.784   0.396  1.1792  3.0116  2.6006
 5651TIP3   OH238367   5.957   0.998   3.469 -0.1664 -0.2873  0.0494
 5651TIP3    H138368   5.945   0.920   3.414 -1.1933 -0.8530  1.0326
 5651TIP3    H238369   6.042   0.984   3.512 -0.5129 -1.0558  0.5029
 5652TIP3   OH238370   3.779   2.091  15.812 -1.0288  0.0529 -0.2320
 5652TIP3    H138371   3.738   2.010  15.779  1.3158 -0.2526 -2.7730
 5652TIP3    H238372   3.758   2.157  15.746 -0.8738  0.9334  0.5804
 5653TIP3   OH238373   0.114   1.594  15.112 -0.1487 -0.2084 -0.0300
 5653TIP3    H138374   0.166   1.589  15.192  1.7226  0.3376 -1.1673
 5653TIP3    H238375   0.168   1.553  15.045 -0.8591  1.0253 -1.4141
 5654TIP3   OH238376   0.232   3.065   5.366  0.1013  0.0497 -0.1370
 5654TIP3    H138377   0.325   3.061   5.390 -0.3072  0.0168  1.5991
 5654TIP3    H238378   0.226   3.141   5.308  1.1357  0.3456  0.1127
 5655TIP3   OH238379   2.934   5.332   3.524 -0.0728 -0.4856  0.1429
 5655TIP3    H138380   2.924   5.304   3.614  0.3049 -2.3978 -0.3808
 5655TIP3    H238381   2.884   5.414   3.519  0.7327  0.1882  2.2976
 5656TIP3   OH238382   1.750   4.585  16.750  0.1910 -0.4506 -0.1270
 5656TIP3    H138383   1.726   4.678  16.754 -0.3424 -0.6409  2.5477
 5656TIP3    H238384   1.681   4.545  16.698 -0.6047  0.3650  0.2795
 5657TIP3   OH238385   2.658   3.760  11.938  0.3368 -0.3548 -0.3482
 5657TIP3    H138386   2.637   3.667  11.944  2.3873 -0.8250  0.6154
 5657TIP3    H238387   2.733   3.763  11.878  2.2107  0.2291  1.8560
 5658TIP3   OH238388   4.185   6.706   1.993  0.5432  0.3270 -0.5546
 5658TIP3    H138389   4.152   6.628   1.949  1.6084 -0.6226  0.2412
 5658TIP3    H238390   4.169   6.689   2.086  0.7999  1.0543 -0.3729
 5659TIP3   OH238391   1.980   0.516  14.224  0.5716 -0.2559 -0.2860
 5659TIP3    H138392   1.896   0.536  14.183  0.5562  2.4876  0.8711
 5659TIP3    H238393   2.037   0.589  14.199  2.4341 -1.7072 -0.4841
 5660TIP3   OH238394   4.872   1.245   0.160  0.1929 -0.1530 -0.0556
 5660TIP3    H138395   4.922   1.172   0.196  0.5059  0.7688  1.4505
 5660TIP3    H238396   4.785   1.207   0.143  0.6218 -1.1006 -0.2344
 5661TIP3   OH238397   3.021   4.812   2.182  0.7617  0.3535  0.5682
 5661TIP3    H138398   3.097   4.867   2.202  1.2305 -0.0155 -0.1361
 5661TIP3    H238399   3.059   4.733   2.143  0.0376 -0.0333  0.6390
 5662TIP3   OH238400   6.420   6.145  16.350 -0.2838 -0.2506  0.0994
 5662TIP3    H138401   6.402   6.064  16.302  0.4202  0.0009 -0.6055
 5662TIP3    H238402   6.513   6.140  16.373  0.1752  0.9909 -1.2483
 5663TIP3   OH238403   5.587   3.234   2.452 -0.4474  0.5427 -0.6259
 5663TIP3    H138404   5.573   3.321   2.488 -0.5365 -0.2665  1.4024
 5663TIP3    H238405   5.499   3.204   2.428 -0.7691  0.0993  0.9771
 5664TIP3   OH238406   1.388   6.248  12.883  0.0726 -0.0054  0.6473
 5664TIP3    H138407   1.442   6.310  12.932 -0.0651  0.6687 -0.0400
 5664TIP3    H238408   1.318   6.301  12.845  0.1075 -0.5362 -0.1852
 5665TIP3   OH238409   6.720   5.431  15.819 -0.3919  0.2304  0.3682
 5665TIP3    H138410   6.812   5.430  15.794 -0.5952  0.0701 -0.3979
 5665TIP3    H238411   6.683   5.353  15.776 -0.7948  0.0544  1.0155
 5666TIP3   OH238412   0.798   5.925   5.371  0.3293  0.0815 -0.1009
 5666TIP3    H138413   0.893   5.927   5.358  0.5209 -1.5700  0.7427
 5666TIP3    H238414   0.787   5.895   5.461 -0.9996  2.1459  0.4837
 5667TIP3   OH238415   5.285   1.971  15.817  0.3509  0.4558 -0.0618
 5667TIP3    H138416   5.363   2.024  15.833  0.3118  1.1086 -1.8118
 5667TIP3    H238417   5.216   2.015  15.867  1.0206 -0.0283  1.3605
 5668TIP3   OH238418   4.107   4.532  12.814 -0.0928 -0.0039 -0.5976
 5668TIP3    H138419   4.049   4.597  12.854  1.0871  0.7314 -0.0095
 5668TIP3    H238420   4.130   4.570  12.729  0.0725  0.0353 -0.5351
 5669TIP3   OH238421   2.571   4.555  14.298  0.7490 -0.4441 -0.5917
 5669TIP3    H138422   2.565   4.462  14.320  2.5038 -0.5870 -0.5274
 5669TIP3    H238423   2.554   4.601  14.380 -0.3892 -0.6759 -0.6792
 5670TIP3   OH238424   3.732   1.044   3.463 -0.0721 -0.2943  0.1641
 5670TIP3    H138425   3.782   1.084   3.534 -0.8875  1.0621  0.0028
 5670TIP3    H238426   3.745   0.949   3.474 -0.7783 -0.1710  2.5670
 5671TIP3   OH238427   5.893   1.482   3.781  0.1110  0.1825  0.2966
 5671TIP3    H138428   5.828   1.456   3.846  0.4187 -0.7825  0.2425
 5671TIP3    H238429   5.843   1.494   3.700 -0.1827  0.7680  0.5626
 5672TIP3   OH238430   4.791   1.974   1.419 -0.0544  0.6953 -0.2956
 5672TIP3    H138431   4.748   2.050   1.458  1.0773  0.7530  0.9223
 5672TIP3    H238432   4.857   1.949   1.483 -0.6742 -1.5992 -0.4952
 5673TIP3   OH238433   6.072   2.085  12.331  0.1247  0.1476  0.2727
 5673TIP3    H138434   6.052   1.992  12.327  0.7772 -0.0652  1.3710
 5673TIP3    H238435   6.121   2.095  12.413  1.2244  1.2329 -0.4811
 5674TIP3   OH238436   5.256   2.278  12.244 -0.3776 -0.2483  0.3020
 5674TIP3    H138437   5.164   2.258  12.259 -0.2254 -0.1114  1.5485
 5674TIP3    H238438   5.273   2.356  12.298  0.3811 -0.0755 -0.1723
 5675TIP3   OH238439   4.238   1.598  13.643 -0.8446  0.2851 -0.0634
 5675TIP3    H138440   4.238   1.690  13.668  0.1481  0.0257  1.0110
 5675TIP3    H238441   4.327   1.581  13.612 -0.0237 -0.9775  2.6356
 5676TIP3   OH238442   4.436   4.203   2.532  0.3866  0.9116  0.1236
 5676TIP3    H138443   4.523   4.170   2.508 -0.1492  0.5244 -1.3596
 5676TIP3    H238444   4.425   4.281   2.479 -0.9786 -0.1700 -1.2527
 5677TIP3   OH238445   2.989   5.730   1.027 -0.6859 -0.3803  0.5408
 5677TIP3    H138446   3.038   5.702   0.950 -0.2153 -0.7747  0.9769
 5677TIP3    H238447   2.903   5.755   0.993 -0.4941 -0.5837 -0.1049
 5678TIP3   OH238448   0.607   1.946  13.455  0.3416 -0.5328  0.5288
 5678TIP3    H138449   0.541   1.996  13.504  0.5549 -1.2142  1.5448
 5678TIP3    H238450   0.566   1.928  13.371 -0.6585 -0.6731  1.0250
 5679TIP3   OH238451   1.094   2.614  16.538  0.0190 -0.0662  0.0817
 5679TIP3    H138452   1.072   2.659  16.619  0.5533  0.7187 -0.1882
 5679TIP3    H238453   1.186   2.636  16.523  0.7724 -2.4884  0.7087
 5680TIP3   OH238454   0.795   1.496  15.559  0.1428 -0.3766  0.6621
 5680TIP3    H138455   0.840   1.554  15.621  2.0711  0.5424 -1.4732
 5680TIP3    H238456   0.787   1.413  15.607  0.7267  0.5468  2.4677
 5681TIP3   OH238457   0.538   0.594   6.031 -0.4971 -0.2055  0.5815
 5681TIP3    H138458   0.534   0.659   5.960 -1.7957 -2.0126 -1.0906
 5681TIP3    H238459   0.575   0.642   6.105  1.9731  1.5045 -1.5907
 5682TIP3   OH238460   4.532   1.553  11.632 -0.7201  0.3947  0.2550
 5682TIP3    H138461   4.454   1.498  11.645  0.0181 -0.1143  3.2494
 5682TIP3    H238462   4.601   1.491  11.611 -0.2905  0.3094  1.7757
 5683TIP3   OH238463   0.219   4.335   2.079  0.7359  0.2649  0.4051
 5683TIP3    H138464   0.143   4.365   2.029  0.6997  1.0181  0.9045
 5683TIP3    H238465   0.287   4.401   2.062  0.8998  0.2287  0.9113
 5684TIP3   OH238466   3.332   3.013   2.834  0.4549  0.0514 -0.3721
 5684TIP3    H138467   3.345   3.062   2.916  0.1721 -1.2297  0.4623
 5684TIP3    H238468   3.372   2.928   2.851 -1.6171 -1.0416 -0.7321
 5685TIP3   OH238469   1.605   5.509  11.068  0.0029 -0.3307  0.2105
 5685TIP3    H138470   1.674   5.489  11.131 -0.5999  0.1569  1.0438
 5685TIP3    H238471   1.583   5.601  11.084  0.7532  0.2082 -1.6189
 5686TIP3   OH238472   0.793   4.081  16.209  0.0082  1.3254 -0.2404
 5686TIP3    H138473   0.740   4.153  16.243 -2.0941 -1.0398  1.9010
 5686TIP3    H238474   0.745   4.002  16.232  4.1520 -1.0606  1.3596
 5687TIP3   OH238475   5.209   1.742   1.597  0.3546  0.0173 -0.3470
 5687TIP3    H138476   5.201   1.651   1.627 -1.5593  0.0649 -0.5694
 5687TIP3    H238477   5.255   1.736   1.513 -1.3830 -0.9985 -1.2917
 5688TIP3   OH238478   2.163   1.063   0.551 -0.3800  0.5073  0.8173
 5688TIP3    H138479   2.162   1.041   0.644 -0.1761 -0.9810  0.4832
 5688TIP3    H238480   2.138   0.983   0.506 -1.2090  1.4000 -0.3974
 5689TIP3   OH238481   2.347   5.169  15.688  0.4440  0.1881  0.8611
 5689TIP3    H138482   2.358   5.260  15.716  0.9378 -0.0099  1.3208
 5689TIP3    H238483   2.429   5.147  15.645  0.1231  0.1232  0.2732
 5690TIP3   OH238484   2.097   4.032   1.684 -0.1170  1.1213 -0.1118
 5690TIP3    H138485   2.062   3.970   1.748  2.8777 -0.8322 -0.1640
 5690TIP3    H238486   2.113   4.112   1.733  0.8483  0.1064  1.2954
 5691TIP3   OH238487   2.689   2.808   2.063 -0.2310  0.3638  0.5875
 5691TIP3    H138488   2.701   2.888   2.114 -0.2887  0.1772  0.8958
 5691TIP3    H238489   2.664   2.741   2.128 -0.2158  0.1044  0.3298
 5692TIP3   OH238490   2.923   0.060  14.603 -0.4578  0.1654 -0.0644
 5692TIP3    H138491   3.001   0.085  14.554  0.2779  0.7374  1.3487
 5692TIP3    H238492   2.929  -0.036  14.611 -1.4510 -0.1684 -2.4423
 5693TIP3   OH238493   2.463   5.372  15.822 -0.4454  0.3418 -0.8437
 5693TIP3    H138494   2.459   5.307  15.892 -1.6206  1.3555  0.0651
 5693TIP3    H238495   2.555   5.375  15.797  0.0105  0.0172  0.7119
 5694TIP3   OH238496   4.267   3.242  11.701  0.2732 -0.5877  0.4532
 5694TIP3    H138497   4.356   3.269  11.725  0.1721 -0.3898  0.6155
 5694TIP3    H238498   4.273   3.219  11.608  0.6150 -1.1219  0.6069
 5695TIP3   OH238499   3.833   5.253  15.193 -0.5107  0.2010 -0.9829
 5695TIP3    H138500   3.847   5.212  15.279 -0.8286 -0.2288 -1.1346
 5695TIP3    H238501   3.858   5.186  15.130  0.0366  0.6326 -1.2271
 5696TIP3   OH238502   0.618   0.045   5.174 -0.2898  0.3491 -0.0427
 5696TIP3    H138503   0.661   0.128   5.195  0.0130  0.5945 -1.5465
 5696TIP3    H238504   0.525   0.065   5.177 -0.3860 -0.0689  2.7509
 5697TIP3   OH238505   3.296   2.202   4.383 -0.4652  0.3393 -0.6119
 5697TIP3    H138506   3.289   2.123   4.328 -0.3171  0.0653 -0.2454
 5697TIP3    H238507   3.220   2.254   4.360 -1.0491 -0.3200 -0.2247
 5698TIP3   OH238508   0.062   2.399   5.466 -0.1545 -0.5881  0.4729
 5698TIP3    H138509   0.068   2.389   5.371 -1.1962 -0.0719  0.3358
 5698TIP3    H238510   0.135   2.457   5.488  0.3390 -1.0387  0.0459
 5699TIP3   OH238511   4.981   6.620  14.911 -0.2683 -0.3785  0.5056
 5699TIP3    H138512   5.074   6.603  14.898 -0.2128  0.3085 -0.0588
 5699TIP3    H238513   4.937   6.546  14.869 -0.0114  0.2872 -0.9961
 5700TIP3   OH238514   1.778   2.243  11.446 -0.0403 -0.3179 -0.1790
 5700TIP3    H138515   1.708   2.229  11.382  0.1359  0.6502 -0.5980
 5700TIP3    H238516   1.850   2.188  11.415 -0.2046 -0.4009 -0.4178
 5701TIP3   OH238517   6.664   1.251   0.838 -0.3434  0.4088  0.1543
 5701TIP3    H138518   6.742   1.205   0.806 -0.9186 -0.2663 -0.3142
 5701TIP3    H238519   6.657   1.225   0.930 -1.7250 -2.0505 -0.5467
 5702TIP3   OH238520   4.826   2.457  15.638 -0.1698  0.0966 -0.3431
 5702TIP3    H138521   4.886   2.531  15.647  0.9053 -0.9117  0.9475
 5702TIP3    H238522   4.816   2.423  15.726 -1.2327 -0.8794 -0.8181
 5703TIP3   OH238523   2.736   2.887   4.238  0.4288 -0.2176  0.1058
 5703TIP3    H138524   2.683   2.905   4.160 -0.3776 -2.4286  0.0849
 5703TIP3    H238525   2.709   2.956   4.300  1.3685  1.8197 -1.6031
 5704TIP3   OH238526   5.705   4.675   5.426 -0.2966 -0.0767  0.5486
 5704TIP3    H138527   5.662   4.601   5.384  0.4921 -0.2212 -0.0279
 5704TIP3    H238528   5.633   4.728   5.461 -0.8854 -0.8429  0.5146
 5705TIP3   OH238529   0.074   6.457  17.087 -0.0281 -0.0373  0.3694
 5705TIP3    H138530   0.143   6.505  17.133  0.2601 -0.5462  0.4785
 5705TIP3    H238531   0.122   6.402  17.024 -0.1482 -2.0642  1.9444
 5706TIP3   OH238532   3.912   0.850  16.940 -0.5682  0.4444  0.8006
 5706TIP3    H138533   3.856   0.846  16.862  0.0397  0.2873  0.3587
 5706TIP3    H238534   3.852   0.834  17.013 -0.8718 -1.2307  0.2460
 5707TIP3   OH238535   6.030   4.203  14.505  0.2060  0.6892  0.1100
 5707TIP3    H138536   5.974   4.131  14.533  0.6459  0.8105  1.3564
 5707TIP3    H238537   5.982   4.282  14.530  0.3570  0.8150  0.0084
 5708TIP3   OH238538   3.742   1.149  15.940 -0.0331  0.0443  0.3459
 5708TIP3    H138539   3.770   1.075  15.886  2.6185 -0.4490  2.1542
 5708TIP3    H238540   3.697   1.207  15.880  1.0477 -1.3434 -1.9606
 5709TIP3   OH238541   2.942   0.388   4.494  0.2850  0.2650  0.3778
 5709TIP3    H138542   2.857   0.431   4.505  0.2269  0.5602 -1.0424
 5709TIP3    H238543   2.982   0.433   4.420  0.8328 -1.1735 -0.2400
 5710TIP3   OH238544   6.496   5.913   2.194 -0.2976  0.3544 -0.4085
 5710TIP3    H138545   6.504   5.942   2.103 -3.1152  2.7058 -0.0571
 5710TIP3    H238546   6.534   5.984   2.246 -0.3289 -0.1260  0.2875
 5711TIP3   OH238547   5.764   2.548   1.039 -0.2520 -0.0854 -0.1366
 5711TIP3    H138548   5.774   2.530   1.133  0.3437 -1.3100 -0.4065
 5711TIP3    H238549   5.725   2.635   1.035 -1.3449 -0.4685  1.2776
 5712TIP3   OH238550   0.472   5.590   4.114  0.1073  0.2816 -0.1852
 5712TIP3    H138551   0.457   5.591   4.020 -0.8520 -0.6889 -0.0499
 5712TIP3    H238552   0.386   5.577   4.153  0.8271 -2.2910  0.7126
 5713TIP3   OH238553   1.822   4.487   2.834  0.2770  0.2239  0.6811
 5713TIP3    H138554   1.743   4.436   2.854  0.7714 -0.1701  1.7011
 5713TIP3    H238555   1.806   4.572   2.874  0.0150  0.4369  0.1356
 5714TIP3   OH238556   1.174   0.204  16.525  0.0028  0.1357  0.3652
 5714TIP3    H138557   1.112   0.196  16.452 -0.4863 -2.9869  0.9446
 5714TIP3    H238558   1.255   0.236  16.485 -1.0622  1.2616 -0.9899
 5715TIP3   OH238559   6.355   3.435   0.213  0.5631  0.3519 -0.4615
 5715TIP3    H138560   6.318   3.354   0.247 -1.0172  0.1709 -2.4386
 5715TIP3    H238561   6.280   3.493   0.203  1.1201  0.7862 -2.4551
 5716TIP3   OH238562   0.010   5.675   2.592  0.1692 -0.5224  0.0066
 5716TIP3    H138563   0.102   5.668   2.566  0.0825 -1.2517 -0.1468
 5716TIP3    H238564  -0.034   5.710   2.515  0.3678  0.1321  0.1897
 5717TIP3   OH238565   5.667   5.888   1.632 -0.0069 -0.2671 -0.4287
 5717TIP3    H138566   5.735   5.947   1.600  1.3281 -1.9419 -0.8200
 5717TIP3    H238567   5.674   5.811   1.576 -1.7728 -0.7749 -0.0086
 5718TIP3   OH238568   4.974   2.167   2.194 -0.1337 -0.3348 -0.2283
 5718TIP3    H138569   5.016   2.082   2.202  0.8093  0.2768  2.1351
 5718TIP3    H238570   4.915   2.171   2.270  0.7711  1.5714  0.4325
 5719TIP3   OH238571   0.561   3.411  12.735 -0.2582  0.1655  0.7574
 5719TIP3    H138572   0.468   3.433  12.724 -0.4438 -1.3660 -1.1976
 5719TIP3    H238573   0.606   3.460  12.667  0.4634  1.2448  1.9812
 5720TIP3   OH238574   3.310   2.306  14.254  0.0186 -0.5333 -0.0789
 5720TIP3    H138575   3.229   2.332  14.298  0.7798 -1.1122  1.8120
 5720TIP3    H238576   3.365   2.384  14.258 -0.1679 -0.3659 -0.6920
 5721TIP3   OH238577   4.188   4.026   6.335  0.0078  0.6812 -0.3295
 5721TIP3    H138578   4.098   4.056   6.325  0.3594  1.7988 -0.3270
 5721TIP3    H238579   4.231   4.095   6.386  1.2618  0.9860 -1.7111
 5722TIP3   OH238580   4.209   4.716   1.850 -0.0301 -0.0323 -0.0527
 5722TIP3    H138581   4.133   4.674   1.892 -1.4428  0.7564 -1.6946
 5722TIP3    H238582   4.253   4.763   1.921 -1.2249 -0.2937  0.8956
 5723TIP3   OH238583   1.682   1.945  14.104 -0.1256  0.0848 -0.2008
 5723TIP3    H138584   1.674   1.949  14.199 -0.3071  2.0885 -0.2567
 5723TIP3    H238585   1.742   1.872  14.087 -0.8202 -0.8833  1.3858
 5724TIP3   OH238586   4.079   0.986   0.954  0.0969  0.5730 -0.2989
 5724TIP3    H138587   4.117   0.997   1.041  2.2742  1.1884 -1.2559
 5724TIP3    H238588   4.100   0.896   0.929  0.2346  0.6686 -0.5285
 5725TIP3   OH238589   3.951   4.928   1.998 -0.3588 -0.1020  0.1743
 5725TIP3    H138590   3.951   4.832   2.005 -0.0252 -0.0128  1.8036
 5725TIP3    H238591   3.961   4.945   1.904  0.9709 -1.6650 -0.0262
 5726TIP3   OH238592   5.871   4.566   4.114 -0.0964  0.1108 -0.2470
 5726TIP3    H138593   5.950   4.553   4.167  0.6025 -1.3261 -1.5578
 5726TIP3    H238594   5.868   4.490   4.056 -2.3153  0.2645 -0.4402
 5727TIP3   OH238595   1.446   3.549  15.349 -0.4418  0.5359  0.3157
 5727TIP3    H138596   1.397   3.625  15.381 -1.5566  0.1431 -0.4396
 5727TIP3    H238597   1.458   3.565  15.256  0.8181  0.5810  0.4628
 5728TIP3   OH238598   0.433   3.060  14.258  0.1768 -1.1770 -1.0886
 5728TIP3    H138599   0.433   3.022  14.346 -1.6514 -0.6477 -0.8244
 5728TIP3    H238600   0.414   2.987  14.200  1.6179 -1.5746 -1.1051
 5729TIP3   OH238601   2.379   4.071   1.127 -0.3347  0.6789  0.1070
 5729TIP3    H138602   2.448   4.075   1.193  0.4731 -0.6992 -0.6151
 5729TIP3    H238603   2.365   4.162   1.102 -0.5916  1.2243  2.0662
 5730TIP3   OH238604   0.122   4.152  14.188 -0.1536 -0.3383  0.6490
 5730TIP3    H138605   0.168   4.088  14.241  0.5558  0.0467  0.5250
 5730TIP3    H238606   0.154   4.237  14.220  1.1359 -0.1071 -1.0622
 5731TIP3   OH238607   5.721   0.357   2.205 -0.7056 -0.1520  0.0376
 5731TIP3    H138608   5.727   0.264   2.184  2.0612 -0.2280  0.7847
 5731TIP3    H238609   5.667   0.393   2.135 -0.0869 -1.9890 -1.4874
 5732TIP3   OH238610   2.125   2.432   3.879 -0.1721 -0.2281 -0.2889
 5732TIP3    H138611   2.170   2.401   3.957  1.0204 -0.2685 -0.9602
 5732TIP3    H238612   2.121   2.356   3.822 -2.6438 -0.6807  0.3916
 5733TIP3   OH238613   5.401   5.888  12.933 -0.5243 -0.4734  0.2058
 5733TIP3    H138614   5.346   5.952  12.888 -0.3163  0.8387  1.6912
 5733TIP3    H238615   5.347   5.810  12.940 -0.9406 -0.3465 -1.3109
 5734TIP3   OH238616   2.238   3.191   5.317 -0.0159 -0.1057  0.4033
 5734TIP3    H138617   2.281   3.255   5.373 -0.8733  0.8155  0.0495
 5734TIP3    H238618   2.298   3.180   5.243  1.2247 -1.4948  1.5551
 5735TIP3   OH238619   1.518   1.235  12.048 -0.0066  0.0856  0.2558
 5735TIP3    H138620   1.515   1.186  11.966  0.0337 -2.1952  1.5340
 5735TIP3    H238621   1.606   1.220  12.082 -0.2608  0.3546  1.0755
 5736TIP3   OH238622   3.732   6.608   4.189  0.4376 -0.3679 -0.3982
 5736TIP3    H138623   3.727   6.666   4.265 -0.5628 -1.2566  0.2512
 5736TIP3    H238624   3.825   6.601   4.170  0.7643 -0.7104  1.2093
 5737TIP3   OH238625   2.975   4.407  10.526  0.4207 -0.4272 -0.2312
 5737TIP3    H138626   2.894   4.404  10.475  0.0767 -1.0245  0.3330
 5737TIP3    H238627   3.014   4.321  10.516  0.3698 -0.5398  0.4635
 5738TIP3   OH238628   2.873   2.588  11.648  0.1142 -0.3326 -0.1642
 5738TIP3    H138629   2.782   2.618  11.651  0.4495  0.7314  2.2012
 5738TIP3    H238630   2.915   2.646  11.585 -0.5787  0.0625 -0.2727
 5739TIP3   OH238631   5.442   5.254  16.433 -0.0345  0.7801  0.1375
 5739TIP3    H138632   5.413   5.343  16.413  0.1315  0.9747  0.7444
 5739TIP3    H238633   5.506   5.265  16.503  1.5474  0.3499 -1.1984
 5740TIP3   OH238634   3.906   2.525   0.250 -0.1181 -0.6418  0.1929
 5740TIP3    H138635   3.827   2.563   0.211  0.9315  0.8667 -0.5800
 5740TIP3    H238636   3.938   2.591   0.311  0.6713 -1.1293  0.3336
 5741TIP3   OH238637   0.818   0.884   4.322 -0.3419  0.1576 -0.6124
 5741TIP3    H138638   0.859   0.867   4.238  2.4564  1.1503  0.4427
 5741TIP3    H238639   0.781   0.800   4.349 -0.7861 -0.3039 -2.4983
 5742TIP3   OH238640   5.230   6.158   2.445  0.0638 -0.3566  0.1565
 5742TIP3    H138641   5.289   6.219   2.402 -0.2679  0.7856  1.2724
 5742TIP3    H238642   5.288   6.091   2.483  0.5676  0.2130  0.4019
 5743TIP3   OH238643   3.216   4.675   3.358 -0.4892  0.9141 -1.0561
 5743TIP3    H138644   3.166   4.594   3.345 -1.0163  1.1526 -0.5343
 5743TIP3    H238645   3.287   4.650   3.417  0.8892  0.2366 -2.9103
 5744TIP3   OH238646   1.630   2.019   0.605  0.3445  0.4452  0.3032
 5744TIP3    H138647   1.704   2.000   0.547 -0.1854 -2.2031  0.3373
 5744TIP3    H238648   1.563   1.955   0.579 -0.8191  0.8091  2.2139
 5745TIP3   OH238649   0.774   5.234   3.618 -0.3326 -0.4371  0.2685
 5745TIP3    H138650   0.834   5.293   3.665 -0.1642  1.2166 -1.8625
 5745TIP3    H238651   0.829   5.193   3.552 -1.3501  0.6734 -1.3499
 5746TIP3   OH238652   1.212   0.138   1.026 -0.0540  0.7363 -0.2445
 5746TIP3    H138653   1.128   0.176   1.054 -1.1227 -1.1302 -0.7714
 5746TIP3    H238654   1.218   0.158   0.933  0.2866  1.1698 -0.1369
 5747TIP3   OH238655   4.814   5.156  16.653 -0.1940  0.0524  0.2871
 5747TIP3    H138656   4.839   5.072  16.616  0.1295  0.5130 -0.5619
 5747TIP3    H238657   4.824   5.218  16.581 -2.7871  0.4544  0.1681
 5748TIP3   OH238658   0.385   2.105  17.074 -0.3463 -0.1294 -0.6088
 5748TIP3    H138659   0.458   2.118  17.013 -1.0050  0.4613 -1.2775
 5748TIP3    H238660   0.372   2.010  17.074 -0.4405 -0.1282 -1.5118
 5749TIP3   OH238661   3.477   5.236   5.645 -0.0271  0.3466  0.2171
 5749TIP3    H138662   3.525   5.170   5.596 -0.9531  0.0720 -0.3622
 5749TIP3    H238663   3.535   5.261   5.716 -0.2973 -2.3148  1.4809
 5750TIP3   OH238664   2.564   3.992  14.956  0.0085  0.2131 -0.1706
 5750TIP3    H138665   2.501   4.061  14.975 -0.8722 -0.6384  0.1237
 5750TIP3    H238666   2.630   4.034  14.901 -2.0721  0.6044 -2.5353
 5751TIP3   OH238667   2.881   0.663   6.427 -0.5074 -0.2441  0.4402
 5751TIP3    H138668   2.859   0.756   6.433 -2.2442 -0.7391  4.2317
 5751TIP3    H238669   2.953   0.652   6.489  0.7775 -1.2580 -1.1440
 5752TIP3   OH238670   6.473   4.811   3.163 -0.0433 -0.4247  0.2762
 5752TIP3    H138671   6.564   4.838   3.174 -0.3490  0.3103  1.1116
 5752TIP3    H238672   6.423   4.871   3.218 -1.1122 -0.3572 -0.7191
 5753TIP3   OH238673   2.364   1.579   0.364 -0.1633 -0.0702  0.1263
 5753TIP3    H138674   2.382   1.517   0.434  0.5364  1.1275  1.0461
 5753TIP3    H238675   2.425   1.554   0.294 -0.8361 -1.2387 -0.0721
 5754TIP3   OH238676   6.520   6.182  13.317 -0.2163  0.0084  0.5274
 5754TIP3    H138677   6.551   6.117  13.254  0.5742  1.4067 -0.5741
 5754TIP3    H238678   6.487   6.254  13.263  1.5849  1.7753  1.6627
 5755TIP3   OH238679   3.346   2.145   3.954  0.5595 -0.1099 -0.6521
 5755TIP3    H138680   3.257   2.141   3.991  0.2170 -0.1610 -1.4582
 5755TIP3    H238681   3.397   2.083   4.007  0.3808  0.6813  0.4984
 5756TIP3   OH238682   3.757   3.830   5.524  0.0913  0.4895 -0.3337
 5756TIP3    H138683   3.786   3.740   5.513 -0.5576 -0.1063  2.2194
 5756TIP3    H238684   3.707   3.830   5.606 -0.9301  2.9374 -0.8458
 5757TIP3   OH238685   5.295   4.691   2.694  0.1182  0.0510  0.4547
 5757TIP3    H138686   5.303   4.621   2.758  1.7311  1.0705  1.4510
 5757TIP3    H238687   5.303   4.771   2.745 -0.2347  0.9405 -0.8252
 5758TIP3   OH238688   4.012   3.866  14.179 -0.0951  0.1250  0.0077
 5758TIP3    H138689   4.001   3.924  14.103 -0.1498  0.6491  0.4076
 5758TIP3    H238690   3.936   3.885  14.234  0.7733  0.9617  0.9705
 5759TIP3   OH238691   4.363   0.168   2.276 -0.2227  0.1668 -0.2112
 5759TIP3    H138692   4.361   0.173   2.180 -0.2393  1.5027 -0.1549
 5759TIP3    H238693   4.270   0.169   2.301 -0.2231 -0.3366 -0.1710
 5760TIP3   OH238694   3.559   5.387  12.173 -0.2948 -0.1477  0.4751
 5760TIP3    H138695   3.498   5.320  12.143 -1.1411  0.0637  1.6768
 5760TIP3    H238696   3.521   5.469  12.142  0.0323 -0.1029  0.1798
 5761TIP3   OH238697   5.935   6.003   4.515 -0.4121  0.3220  0.1162
 5761TIP3    H138698   5.975   6.080   4.474 -0.1524  1.3459  2.1356
 5761TIP3    H238699   5.847   5.999   4.477 -0.7744  2.2289  0.6491
 5762TIP3   OH238700   5.114   1.120   1.714 -0.1614  0.6015  0.2007
 5762TIP3    H138701   5.050   1.186   1.685 -1.6809 -0.2895  1.4140
 5762TIP3    H238702   5.063   1.058   1.765  1.4000 -1.0779 -0.1929
 5763TIP3   OH238703   2.187   4.844   3.718 -0.0093 -0.5187  0.2543
 5763TIP3    H138704   2.177   4.763   3.668 -0.8303 -1.4041  1.7950
 5763TIP3    H238705   2.140   4.828   3.800  0.1556  1.3749  0.7657
 5764TIP3   OH238706   6.637   1.469  15.153 -0.1421  0.2501  0.2146
 5764TIP3    H138707   6.714   1.519  15.124 -1.0287  2.4747  1.4105
 5764TIP3    H238708   6.572   1.483  15.085  0.7479 -2.5547 -1.3603
 5765TIP3   OH238709   3.063   6.389  12.063 -0.3141 -0.2015 -0.9171
 5765TIP3    H138710   3.090   6.468  12.109 -0.6255 -0.8765  0.5000
 5765TIP3    H238711   3.076   6.409  11.971  1.7768  0.6897 -0.4902
 5766TIP3   OH238712   0.144   1.446  11.673  0.6151  0.2580  0.2448
 5766TIP3    H138713   0.101   1.372  11.715  1.7303  1.0684  3.0000
 5766TIP3    H238714   0.224   1.410  11.636  0.3654 -0.2031  0.1498
 5767TIP3   OH238715   3.936   4.540  14.979 -0.1099 -0.6614 -0.4503
 5767TIP3    H138716   3.969   4.627  14.956  0.8402 -1.2543 -1.4451
 5767TIP3    H238717   3.843   4.542  14.954 -0.5206  0.5524  1.0126
 5768TIP3   OH238718   2.018   2.708   3.803 -0.1724 -0.1226  0.3039
 5768TIP3    H138719   2.032   2.616   3.781  0.2300 -0.0651  0.2987
 5768TIP3    H238720   1.940   2.709   3.857 -0.4247 -0.4187 -0.0511
 5769TIP3   OH238721   3.007   1.194  11.401  0.0356  0.5302  0.1442
 5769TIP3    H138722   2.956   1.261  11.356  1.9502  0.9961 -1.5148
 5769TIP3    H238723   3.001   1.117  11.344  0.3700  0.2835  0.4354
 5770TIP3   OH238724   4.799   6.674  11.924  0.3802  0.2572  0.2010
 5770TIP3    H138725   4.818   6.593  11.972  2.3272  1.4995  1.6896
 5770TIP3    H238726   4.733   6.719  11.978  0.2956  0.2852  0.0759
 5771TIP3   OH238727   0.550   5.641   0.354 -0.1973 -0.0325  0.2691
 5771TIP3    H138728   0.464   5.647   0.397 -0.3872  0.9206 -0.2213
 5771TIP3    H238729   0.577   5.732   0.342 -0.3152 -0.2509 -1.9632
 5772TIP3   OH238730   0.411   5.482   0.866 -0.3755  0.2006  0.1888
 5772TIP3    H138731   0.403   5.571   0.830  1.2432  0.0215 -0.7080
 5772TIP3    H238732   0.465   5.493   0.944 -2.7190  0.3829  1.9115
 5773TIP3   OH238733   6.133   5.427   2.503 -0.4168  0.2111  0.1317
 5773TIP3    H138734   6.208   5.380   2.467  0.4282  0.8022  1.0607
 5773TIP3    H238735   6.155   5.520   2.492 -1.1496  0.3973  0.1478
 5774TIP3   OH238736   5.947   3.534   3.387 -0.4812  0.2834 -0.3720
 5774TIP3    H138737   5.983   3.486   3.462  0.1392  1.3042 -0.0076
 5774TIP3    H238738   5.987   3.492   3.311 -0.2993 -0.0794 -0.0807
 5775TIP3   OH238739   5.418   3.120   3.620 -0.4121 -0.0084  0.0742
 5775TIP3    H138740   5.450   3.210   3.622  0.8224 -0.4341  0.1786
 5775TIP3    H238741   5.397   3.099   3.711  3.3461 -1.1795  0.8335
 5776TIP3   OH238742   3.370   5.966   1.233 -0.1551 -0.5537  0.3881
 5776TIP3    H138743   3.460   5.970   1.200 -0.6252  0.3563 -0.8255
 5776TIP3    H238744   3.357   6.050   1.277 -1.4584  0.7712 -2.3311
 5777TIP3   OH238745   2.327   1.785   3.887 -0.3390  0.5366  0.0051
 5777TIP3    H138746   2.248   1.783   3.942  0.2256  1.5138  0.8747
 5777TIP3    H238747   2.399   1.770   3.947  0.0777 -2.4344 -1.0672
 5778TIP3   OH238748   3.626   6.626  16.487  0.1108  0.7687 -0.1706
 5778TIP3    H138749   3.717   6.641  16.512  0.4100  0.4195 -1.0035
 5778TIP3    H238750   3.605   6.541  16.524 -0.4920  1.6588  1.6234
 5779TIP3   OH238751   4.079   0.051  13.842 -0.1930  0.7205 -0.3103
 5779TIP3    H138752   3.994   0.060  13.886 -0.5468 -1.4856 -0.4017
 5779TIP3    H238753   4.057   0.040  13.750 -0.1548 -2.8643 -0.0282
 5780TIP3   OH238754   1.382   6.243   3.003 -0.0998 -0.0581 -0.2083
 5780TIP3    H138755   1.437   6.189   3.061 -0.8712 -2.6231 -1.6996
 5780TIP3    H238756   1.335   6.179   2.949 -3.0865  2.0663 -0.3427
 5781TIP3   OH238757   0.510   5.051  11.920  0.2187 -0.1497 -0.1563
 5781TIP3    H138758   0.515   4.982  11.854  0.1705  0.0206 -0.3359
 5781TIP3    H238759   0.560   5.016  11.994 -1.6969 -1.3670  0.6310
 5782TIP3   OH238760   1.437   0.443  12.679  0.0271 -0.3700  0.2597
 5782TIP3    H138761   1.350   0.402  12.677 -0.8432  1.1780  2.6094
 5782TIP3    H238762   1.419   0.537  12.673  1.5273 -0.0226  0.7981
 5783TIP3   OH238763   6.247   0.631  13.146  0.3284  0.4114 -0.0987
 5783TIP3    H138764   6.225   0.625  13.239  2.7010 -1.6501  0.4163
 5783TIP3    H238765   6.327   0.682  13.143  0.2440  0.5080 -1.0362
 5784TIP3   OH238766   1.211   6.174  12.580  0.5308 -0.1898 -0.0692
 5784TIP3    H138767   1.133   6.214  12.619  0.8838  0.5165 -0.0657
 5784TIP3    H238768   1.236   6.234  12.510  0.6415 -0.7998 -0.5604
 5785TIP3   OH238769   4.004   3.843   0.037 -0.2422 -0.2228  0.2418
 5785TIP3    H138770   4.085   3.879   0.073 -1.3280  1.1582  1.4269
 5785TIP3    H238771   3.967   3.915  -0.014 -0.2270 -1.1883 -1.1751
 5786TIP3   OH238772   2.752   6.386  11.405  0.5515 -0.3655 -0.2205
 5786TIP3    H138773   2.745   6.447  11.332  1.0411 -1.7770 -1.4913
 5786TIP3    H238774   2.705   6.429  11.477  0.1819  1.1174 -1.3088
 5787TIP3   OH238775   3.413   5.872  11.005  0.1905 -0.2629 -0.6255
 5787TIP3    H138776   3.493   5.844  11.049 -0.5751 -0.3195  0.7592
 5787TIP3    H238777   3.409   5.966  11.019 -0.4690 -0.3943  0.1590
 5788TIP3   OH238778   3.402   1.914   5.574 -0.1273  0.3207 -0.0359
 5788TIP3    H138779   3.432   1.911   5.483  3.1656  1.8210  0.8342
 5788TIP3    H238780   3.437   1.834   5.613 -1.0168 -0.0213  0.0889
 5789TIP3   OH238781   4.127   2.905   0.447 -0.2567 -0.1008  0.0153
 5789TIP3    H138782   4.202   2.913   0.506  1.0953 -0.3752 -1.5881
 5789TIP3    H238783   4.097   2.995   0.434  1.4867  0.3462 -1.3429
 5790TIP3   OH238784   0.796   4.635   2.168  0.1249  0.2821  0.3652
 5790TIP3    H138785   0.752   4.626   2.083 -1.4429  1.2706  1.0273
 5790TIP3    H238786   0.771   4.722   2.199 -1.3643 -0.9361  2.8952
 5791TIP3   OH238787   1.600   6.242  16.975 -0.6365  0.9876 -0.3473
 5791TIP3    H138788   1.505   6.241  16.983 -0.5791  1.7301  0.7555
 5791TIP3    H238789   1.618   6.317  16.917 -0.7055  1.1335 -0.1804
 5792TIP3   OH238790   1.066   5.755  12.766 -0.0991 -0.1467  0.9429
 5792TIP3    H138791   1.154   5.793  12.763  0.0215 -0.3688  1.5298
 5792TIP3    H238792   1.074   5.680  12.824 -0.7544  0.0218  1.2636
 5793TIP3   OH238793   1.681   4.016   2.043  0.5949 -0.4888 -0.2295
 5793TIP3    H138794   1.658   4.105   2.069 -1.0429 -0.6744 -0.9649
 5793TIP3    H238795   1.667   3.964   2.122  0.7399 -0.2479 -0.0391
 5794TIP3   OH238796   0.271   1.009  15.175 -0.0671 -0.3000  0.1281
 5794TIP3    H138797   0.184   0.976  15.153 -0.1841  0.5859 -0.7842
 5794TIP3    H238798   0.329   0.933  15.164 -0.8211 -1.1270  1.6036
 5795TIP3   OH238799   3.693   4.715  15.552  0.0085  0.1672 -0.3511
 5795TIP3    H138800   3.692   4.774  15.627  1.0044  0.9745 -0.9340
 5795TIP3    H238801   3.613   4.736  15.504 -0.3936 -0.0214  0.2201
 5796TIP3   OH238802   4.192   6.302  15.052  0.0176 -0.0264  0.1337
 5796TIP3    H138803   4.152   6.228  15.006 -0.9044  0.2657  0.4478
 5796TIP3    H238804   4.285   6.280  15.057 -0.0324 -0.5338 -0.9645
 5797TIP3   OH238805   4.637   5.990  16.961  0.2824 -0.7109  0.0013
 5797TIP3    H138806   4.732   5.997  16.948  0.0634  0.9614 -0.9589
 5797TIP3    H238807   4.620   6.039  17.042 -0.1620  2.5706 -1.9095
 5798TIP3   OH238808   6.341   4.143  12.959 -0.4841 -0.0512 -0.1046
 5798TIP3    H138809   6.381   4.080  13.019 -0.2533 -1.1787 -1.3878
 5798TIP3    H238810   6.348   4.101  12.873  1.3597  2.4984 -1.3421
 5799TIP3   OH238811   2.763   3.739  13.144 -0.0082 -0.5308 -0.2617
 5799TIP3    H138812   2.838   3.686  13.171  0.8411  1.7493  2.3324
 5799TIP3    H238813   2.793   3.785  13.066  1.1653  0.0150  0.4916
 5800TIP3   OH238814   6.733   6.056   5.534  0.3741  0.2396 -0.2587
 5800TIP3    H138815   6.675   6.131   5.536 -0.4073 -0.3610  0.5864
 5800TIP3    H238816   6.676   5.981   5.548  1.2051 -0.4691 -0.5468
 5801TIP3   OH238817   4.782   1.924   0.722  0.8137 -0.3077 -0.2040
 5801TIP3    H138818   4.785   1.937   0.817  2.8169 -0.9989 -0.1104
 5801TIP3    H238819   4.846   1.986   0.688  1.1329 -1.0349 -0.9516
 5802TIP3   OH238820   0.804   5.818   3.037  0.1163 -0.3842 -1.1808
 5802TIP3    H138821   0.742   5.795   3.106 -0.8947 -0.0703 -1.9660
 5802TIP3    H238822   0.889   5.794   3.073 -0.1304  1.6391  1.0191
 5803TIP3   OH238823   4.396   4.395  16.938 -0.2192 -0.1073 -0.9860
 5803TIP3    H138824   4.327   4.444  16.981  0.1569  0.5793 -1.1434
 5803TIP3    H238825   4.383   4.304  16.965 -0.2001  0.2574  0.2937
 5804TIP3   OH238826   6.287   4.244  14.895 -0.1581 -0.1478  0.9268
 5804TIP3    H138827   6.254   4.333  14.900 -0.4910 -0.2549  0.6597
 5804TIP3    H238828   6.306   4.230  14.802  2.0841  0.4261  1.2445
 5805TIP3   OH238829   0.154   0.185  15.308  0.1133 -0.1914 -0.2453
 5805TIP3    H138830   0.112   0.176  15.393  0.3502 -0.2417 -0.1312
 5805TIP3    H238831   0.085   0.170  15.244  0.5257 -3.4075 -0.0960
 5806TIP3   OH238832   5.481   5.073  14.577  0.2580 -0.2094  0.3692
 5806TIP3    H138833   5.510   4.982  14.570 -1.2870 -0.7125  0.1249
 5806TIP3    H238834   5.424   5.074  14.654  0.2068  0.5485  0.3312
 5807TIP3   OH238835   1.709   2.404   0.499  0.5246 -0.3806 -0.3425
 5807TIP3    H138836   1.647   2.441   0.436  1.2620 -2.5430 -2.4952
 5807TIP3    H238837   1.655   2.355   0.560 -0.1760  1.4245  0.5511
 5808TIP3   OH238838   2.872   2.852   1.211 -0.6934  0.1079  0.2003
 5808TIP3    H138839   2.789   2.828   1.251 -1.3246 -0.5430 -1.4286
 5808TIP3    H238840   2.921   2.770   1.206 -0.7751  0.1046 -0.6760
 5809TIP3   OH238841   1.724   3.918  11.471 -0.4560  0.3980  0.0912
 5809TIP3    H138842   1.669   3.867  11.530 -1.5383  1.5963  0.1535
 5809TIP3    H238843   1.810   3.875  11.475 -1.1068 -0.8904  0.7768
 5810TIP3   OH238844   0.991   2.628  16.152  0.3431 -0.1694 -0.0894
 5810TIP3    H138845   0.965   2.660  16.066  1.4220  0.0565 -0.3390
 5810TIP3    H238846   0.941   2.547  16.164  0.3907 -0.3447 -1.0391
 5811TIP3   OH238847   3.410   1.664  14.431 -0.3753  0.0314 -0.2236
 5811TIP3    H138848   3.331   1.710  14.459  1.0457  2.6543 -0.2309
 5811TIP3    H238849   3.379   1.601  14.367 -2.8468 -1.4183  2.1869
 5812TIP3   OH238850   2.892   3.495   0.658 -0.4587  0.4525  0.4430
 5812TIP3    H138851   2.813   3.508   0.710 -1.2586  0.8084 -0.8143
 5812TIP3    H238852   2.898   3.401   0.646 -1.7944  0.5204 -1.0466
 5813TIP3   OH238853   2.606   4.628  15.445  0.4756 -0.9144  0.2354
 5813TIP3    H138854   2.582   4.707  15.494  0.6989  0.0315 -1.1435
 5813TIP3    H238855   2.522   4.586  15.425  0.2760 -0.3189 -0.1781
 5814TIP3   OH238856   0.794   0.505  11.849 -0.5314  0.0826 -0.5878
 5814TIP3    H138857   0.881   0.541  11.829 -0.3246 -0.5260 -0.8120
 5814TIP3    H238858   0.751   0.574  11.901  0.3302  0.1223  0.0993
 5815TIP3   OH238859   0.325   3.233   5.181  0.1191 -0.0790  0.1103
 5815TIP3    H138860   0.282   3.316   5.160  0.6053  0.0998 -0.1922
 5815TIP3    H238861   0.414   3.242   5.147  0.6626 -0.1299  1.4707
 5816TIP3   OH238862   1.033   2.913   1.440  0.8096  0.3502 -0.0801
 5816TIP3    H138863   0.998   2.831   1.406  0.3106  0.3763  0.3643
 5816TIP3    H238864   1.028   2.974   1.366  2.6442 -0.4181 -0.9082
 5817TIP3   OH238865   4.495   1.218  11.883 -0.5634  0.5091  0.9150
 5817TIP3    H138866   4.407   1.183  11.868  0.5013 -1.9948  0.0222
 5817TIP3    H238867   4.537   1.216  11.797  0.5559  1.2237  1.4197
 5818TIP3   OH238868   5.007   4.051   2.825  0.6401  0.1691 -0.3574
 5818TIP3    H138869   5.014   4.144   2.843 -0.4023  0.2997 -0.5968
 5818TIP3    H238870   5.044   4.008   2.902 -0.0420  0.7599  0.2975
 5819TIP3   OH238871   6.739   3.735   0.101  0.3858 -0.2843  0.4138
 5819TIP3    H138872   6.831   3.711   0.093  0.3096 -0.4227 -0.0368
 5819TIP3    H238873   6.691   3.656   0.079  0.1440  0.1033 -0.4897
 5820TIP3   OH238874   6.332   5.954  11.638 -0.4578  0.1452 -0.2910
 5820TIP3    H138875   6.423   5.958  11.608 -0.9578 -3.2445 -2.8225
 5820TIP3    H238876   6.281   5.979  11.561 -1.7847  1.9487  1.0876
 5821TIP3   OH238877   1.028   1.682   4.046  0.7073 -0.2425  0.9378
 5821TIP3    H138878   1.023   1.620   3.973  2.1083 -0.9650  1.4355
 5821TIP3    H238879   1.013   1.768   4.005 -0.2313 -0.7902  0.0856
 5822TIP3   OH238880   1.105   5.914  11.340 -0.0899  0.3120 -0.2186
 5822TIP3    H138881   1.154   5.937  11.418  0.3497 -1.2215 -0.0128
 5822TIP3    H238882   1.076   5.824  11.355 -0.4519  0.1697 -1.5923
 5823TIP3   OH238883   3.834   4.198  12.520 -0.3480  0.2352 -0.0252
 5823TIP3    H138884   3.820   4.221  12.611 -2.2144 -0.2188 -0.1619
 5823TIP3    H238885   3.864   4.107  12.522 -0.9524  0.0373  0.1136
 5824TIP3   OH238886   1.091   5.060  10.241 -0.1622  0.4743 -0.1597
 5824TIP3    H138887   1.064   5.051  10.333  0.4316  1.2498  0.0949
 5824TIP3    H238888   1.022   5.016  10.192 -0.8557  0.6717  0.6142
 5825TIP3   OH238889   4.808   0.854  11.123  1.1672  0.3892 -0.1702
 5825TIP3    H138890   4.875   0.803  11.077  2.1065 -1.4426  2.9361
 5825TIP3    H238891   4.848   0.876  11.207 -2.2828 -1.6625  2.3026
 5826TIP3   OH238892   3.921   3.867   1.043  0.5925 -0.2061  0.0176
 5826TIP3    H138893   3.990   3.802   1.028  1.4293  0.9764 -1.6225
 5826TIP3    H238894   3.901   3.900   0.955 -0.5376  1.0236  0.7163
 5827TIP3   OH238895   5.586   5.839  13.407  0.2139 -0.2048 -0.0809
 5827TIP3    H138896   5.602   5.883  13.323  1.3077  0.7893  0.6205
 5827TIP3    H238897   5.674   5.816  13.439 -0.1319  0.2255  1.2071
 5828TIP3   OH238898   4.669   2.822   0.064 -0.4069  0.1016  0.0932
 5828TIP3    H138899   4.575   2.832   0.049 -1.1187 -2.2353  2.2219
 5828TIP3    H238900   4.681   2.728   0.080  1.8324  0.6522  2.4174
 5829TIP3   OH238901   0.440   2.341  15.246  0.3240 -0.3740 -0.2025
 5829TIP3    H138902   0.400   2.370  15.327  1.8039 -1.0906  0.8410
 5829TIP3    H238903   0.508   2.407  15.228  2.0006 -1.7402  0.8113
 5830TIP3   OH238904   4.257   3.908   1.596  0.5752  0.0008 -0.4990
 5830TIP3    H138905   4.311   3.969   1.646 -0.4154 -0.3400  1.0551
 5830TIP3    H238906   4.312   3.830   1.586  0.7547  0.0326  0.1764
 5831TIP3   OH238907   5.614   1.535   0.095  0.2663 -0.3482  0.5375
 5831TIP3    H138908   5.598   1.625   0.124 -1.2399 -1.0819  2.2208
 5831TIP3    H238909   5.708   1.531   0.078  0.4133  1.4504  0.7346
 5832TIP3   OH238910   0.389   3.323   4.829 -0.1202 -0.0074 -0.5401
 5832TIP3    H138911   0.426   3.305   4.742 -0.6292 -0.1841 -0.7217
 5832TIP3    H238912   0.437   3.265   4.888 -0.1138 -0.2457 -0.7780
 5833TIP3   OH238913   5.071   2.253  16.468  0.3524  0.3019  0.5603
 5833TIP3    H138914   4.991   2.213  16.502  0.8850  0.4137  1.9866
 5833TIP3    H238915   5.051   2.346  16.461  0.5479  0.4158  1.4918
 5834TIP3   OH238916   0.144   2.339  15.367  0.0114  0.0176  0.5109
 5834TIP3    H138917   0.212   2.337  15.435  0.3220 -3.6677  0.3304
 5834TIP3    H238918   0.063   2.321  15.414 -0.1567 -0.0633  0.1940
 5835TIP3   OH238919   5.720   4.895   1.135 -0.1884  0.2408 -0.9663
 5835TIP3    H138920   5.754   4.944   1.210 -0.5348 -0.9875  0.0243
 5835TIP3    H238921   5.788   4.830   1.116 -0.3181  0.2321 -1.4084
 5836TIP3   OH238922   6.063   3.862   4.458  0.4201  0.4082  0.7314
 5836TIP3    H138923   6.032   3.947   4.488 -1.2988  0.0854 -0.0176
 5836TIP3    H238924   6.021   3.798   4.515  1.5283  0.0208  1.1518
 5837TIP3   OH238925   3.376   2.380   1.020 -0.0313  0.8062 -0.1188
 5837TIP3    H138926   3.382   2.311   1.086  0.6128  2.1668  1.2988
 5837TIP3    H238927   3.297   2.428   1.042 -0.4341  0.6112 -1.0567
 5838TIP3   OH238928   6.123   3.780   2.370 -0.2915 -0.2608 -0.8232
 5838TIP3    H138929   6.165   3.833   2.302 -0.6193 -1.4385 -1.9864
 5838TIP3    H238930   6.051   3.835   2.402  1.0421  1.0793 -0.0194
 5839TIP3   OH238931   2.355   1.051   5.582 -0.3607 -0.3876 -0.2647
 5839TIP3    H138932   2.306   1.087   5.508 -1.7943 -1.0877  0.2976
 5839TIP3    H238933   2.328   1.104   5.657  0.0781 -0.5031 -0.0250
 5840TIP3   OH238934   1.492   2.517  13.366  0.2927  0.4277 -0.1258
 5840TIP3    H138935   1.436   2.590  13.394 -0.5844 -0.5133  0.6545
 5840TIP3    H238936   1.550   2.501  13.441 -0.3545 -0.4686  0.1961
 5841TIP3   OH238937   5.609   5.939  11.880 -0.3409  0.2770 -0.4116
 5841TIP3    H138938   5.571   6.027  11.873  0.5809  0.6360 -1.1884
 5841TIP3    H238939   5.535   5.880  11.867 -1.0121  0.9293  0.3191
 5842TIP3   OH238940   5.119   6.409  12.504  0.4523 -0.5661 -0.0010
 5842TIP3    H138941   5.059   6.443  12.570  2.7152 -1.0614  2.4980
 5842TIP3    H238942   5.144   6.486  12.452  0.2313  0.2713  1.1022
 5843TIP3   OH238943   0.899   1.496   0.824 -0.6293 -0.1554 -0.3581
 5843TIP3    H138944   0.869   1.536   0.906  1.4074 -1.2902  1.0243
 5843TIP3    H238945   0.861   1.552   0.755 -1.0727  1.8076  1.3683
 5844TIP3   OH238946   6.284   3.419   0.849  0.0174 -0.7163  0.5392
 5844TIP3    H138947   6.318   3.392   0.763 -0.5546 -0.6225  0.2784
 5844TIP3    H238948   6.340   3.374   0.912  0.2985 -0.9704  0.1153
 5845TIP3   OH238949   1.364   3.233   1.489 -0.2128  0.1859  0.0065
 5845TIP3    H138950   1.313   3.172   1.541  1.0291 -0.4729  0.4956
 5845TIP3    H238951   1.434   3.180   1.450  1.4745  1.3961  1.2156
 5846TIP3   OH238952   0.333   3.922  12.886  0.2340  0.7786 -0.3081
 5846TIP3    H138953   0.374   3.963  12.962  0.0397 -0.8226  0.7195
 5846TIP3    H238954   0.399   3.931  12.816  1.4839  0.1432  0.7308
 5847TIP3   OH238955   6.110   4.750   1.543  0.2906  0.1277 -0.3647
 5847TIP3    H138956   6.028   4.788   1.510 -0.6663 -1.2442  0.3784
 5847TIP3    H238957   6.159   4.727   1.464  1.5248  3.9544 -0.9367
 5848TIP3   OH238958   4.776   3.934   1.818  0.1090 -0.2231  0.2562
 5848TIP3    H138959   4.744   3.953   1.906  2.0986  1.2669  0.7483
 5848TIP3    H238960   4.797   3.841   1.820  1.4158  0.0531  1.8675
 5849TIP3   OH238961   6.005   2.704   6.549  0.7299  0.3233 -0.4834
 5849TIP3    H138962   5.936   2.728   6.610  0.1958 -0.6367 -0.6898
 5849TIP3    H238963   5.960   2.689   6.466  1.0432 -1.1540 -0.4178
 5850TIP3   OH238964   0.342   3.941   5.479 -0.0502  0.0334 -0.2253
 5850TIP3    H138965   0.343   3.877   5.550 -1.4517 -1.2466 -1.2736
 5850TIP3    H238966   0.262   3.992   5.494  0.2767  0.5459 -0.2190
 5851TIP3   OH238967   1.465   3.503   0.360  0.4113  0.2336  0.0990
 5851TIP3    H138968   1.387   3.473   0.406 -0.9775 -1.2152 -2.9163
 5851TIP3    H238969   1.537   3.453   0.398 -0.3892  0.2751  1.7225
 5852TIP3   OH238970   4.935   0.770   0.947  0.2150 -0.2894  0.2916
 5852TIP3    H138971   4.921   0.768   1.042  0.1182  2.3893  0.4225
 5852TIP3    H238972   4.849   0.755   0.910 -0.1404  0.5807  0.7186
 5853TIP3   OH238973   3.302   2.847  12.846 -1.0228 -0.2056  0.1905
 5853TIP3    H138974   3.335   2.836  12.756 -0.3684 -2.4217  0.6436
 5853TIP3    H238975   3.207   2.855  12.835 -0.8105  1.5644 -0.7954
 5854TIP3   OH238976   0.998   0.797   1.913 -0.1602 -0.2358  1.1344
 5854TIP3    H138977   1.078   0.760   1.949  0.6130 -0.0513 -0.3287
 5854TIP3    H238978   1.025   0.880   1.874 -0.9416 -0.4203  0.1523
 5855TIP3   OH238979   3.576   5.508  13.788  0.2686  0.5040 -0.4165
 5855TIP3    H138980   3.659   5.485  13.830 -0.4157 -2.7096 -0.5436
 5855TIP3    H238981   3.530   5.561  13.854  1.2811 -0.0886  0.8240
 5856TIP3   OH238982   6.055   0.077   4.069  0.1784 -0.0209 -0.4058
 5856TIP3    H138983   5.969   0.078   4.111  0.1372 -0.7072 -0.4692
 5856TIP3    H238984   6.104   0.009   4.116  0.6154  0.2180 -0.5084
 5857TIP3   OH238985   0.644   2.014  13.755  0.4079  0.1588 -0.1612
 5857TIP3    H138986   0.552   1.992  13.744  0.0476  1.6197 -0.2275
 5857TIP3    H238987   0.644   2.105  13.786  1.7937 -0.0948  0.6864
 5858TIP3   OH238988   5.166   0.463  14.867  0.3986 -0.1442 -0.7305
 5858TIP3    H138989   5.208   0.378  14.857  1.9900 -0.0830  3.3531
 5858TIP3    H238990   5.081   0.443  14.907  0.2565  0.1593 -0.8745
 5859TIP3   OH238991   0.730   5.857   0.492 -0.1765  0.0984  0.3905
 5859TIP3    H138992   0.761   5.782   0.442  3.6706  0.8594  1.3626
 5859TIP3    H238993   0.670   5.902   0.432  0.1697 -1.8026 -1.5134
 5860TIP3   OH238994   0.913   3.926  15.737 -0.1432 -0.4845  0.0416
 5860TIP3    H138995   0.989   3.961  15.782 -1.9161  2.0552  1.3107
 5860TIP3    H238996   0.886   3.994  15.676 -0.2027 -2.2130 -1.9694
 5861TIP3   OH238997   2.003   2.562   6.280 -0.4644  0.2579 -0.1853
 5861TIP3    H138998   1.972   2.516   6.203 -0.8689 -0.8551  0.6247
 5861TIP3    H238999   1.977   2.653   6.266 -0.8102  0.0074 -1.2061
 5862TIP3   OH239000   3.308   2.242  15.544 -0.3379 -0.2559  0.0128
 5862TIP3    H139001   3.248   2.290  15.601 -0.8527  0.2534 -0.9420
 5862TIP3    H239002   3.282   2.266  15.456  0.5286 -0.9437 -0.4452
 5863TIP3   OH239003   3.055   5.728  15.216  0.4394  0.0176 -0.1989
 5863TIP3    H139004   2.978   5.783  15.232 -0.2458 -0.7509 -0.7774
 5863TIP3    H239005   3.112   5.783  15.162  0.9576  1.1208  1.4080
 5864TIP3   OH239006   1.104   0.275   5.471 -0.5806 -0.1728  0.5180
 5864TIP3    H139007   1.165   0.223   5.523  0.0956  1.5036  1.4414
 5864TIP3    H239008   1.069   0.212   5.407  1.0895 -1.4908  0.8126
 5865TIP3   OH239009   0.602   0.047   1.716  0.5884  0.3050 -0.5324
 5865TIP3    H139010   0.614   0.091   1.632  2.0931 -2.8608 -2.1553
 5865TIP3    H239011   0.686   0.058   1.761  1.6368 -2.1326 -1.7068
 5866TIP3   OH239012   1.774   0.494  16.848 -0.1313  0.7121  0.7680
 5866TIP3    H139013   1.760   0.523  16.938  0.5310  1.4468  0.6434
 5866TIP3    H239014   1.826   0.564  16.808  0.6711 -0.2118  0.1701
 5867TIP3   OH239015   5.263   6.238   3.594 -0.3716 -0.4198  0.5303
 5867TIP3    H139016   5.340   6.292   3.610  0.3276 -1.4179  0.6842
 5867TIP3    H239017   5.213   6.286   3.529  1.5540 -0.8071 -1.3649
 5868TIP3   OH239018   0.031   2.742   5.467  0.1810  0.2810  0.0868
 5868TIP3    H139019   0.038   2.655   5.506  2.7185  0.2261 -0.3156
 5868TIP3    H239020   0.113   2.753   5.420 -0.4168  2.6055 -0.5146
 5869TIP3   OH239021   1.364   6.335   3.514 -0.8635 -0.2796 -0.5660
 5869TIP3    H139022   1.459   6.335   3.527 -0.9612 -0.8953  0.1648
 5869TIP3    H239023   1.328   6.367   3.597 -1.2894  0.2129 -0.9323
 5870TIP3   OH239024   3.632   0.369   1.353  0.2006  0.2314  0.0843
 5870TIP3    H139025   3.650   0.387   1.261  0.4534  0.6795  0.2125
 5870TIP3    H239026   3.704   0.312   1.381 -0.7370 -1.2090 -0.3865
 5871TIP3   OH239027   4.532   1.644   1.722 -0.0176  0.4059  0.0178
 5871TIP3    H139028   4.473   1.720   1.722 -1.3450 -0.5788  0.8970
 5871TIP3    H239029   4.534   1.616   1.630  0.0619  1.1681 -0.2248
 5872TIP3   OH239030   6.462   1.303  16.640  0.1235  0.0326 -0.5079
 5872TIP3    H139031   6.425   1.293  16.728  1.5947 -0.9819  0.0371
 5872TIP3    H239032   6.390   1.336  16.587 -0.9217  0.2274  0.9807
 5873TIP3   OH239033   2.541   3.512  13.403 -0.4659  0.4356  0.4794
 5873TIP3    H139034   2.573   3.436  13.452 -1.7810  0.0861  0.8484
 5873TIP3    H239035   2.548   3.486  13.311  0.1728  0.3179  0.5623
 5874TIP3   OH239036   1.648   5.918  14.775  0.9282  0.1351 -0.2962
 5874TIP3    H139037   1.645   5.928  14.870  0.0394 -0.3618 -0.2567
 5874TIP3    H239038   1.733   5.879  14.757  0.9828 -0.0384  0.3247
 5875TIP3   OH239039   1.940   6.634  13.870 -0.4304 -0.0523 -0.1465
 5875TIP3    H139040   1.910   6.545  13.856 -0.9434  0.1701 -0.4749
 5875TIP3    H239041   2.027   6.624  13.909 -0.3093 -0.6896 -0.5699
 5876TIP3   OH239042   1.485   0.669   3.501 -0.3452  0.4539 -0.6097
 5876TIP3    H139043   1.507   0.749   3.454 -0.9233  0.0851 -1.5355
 5876TIP3    H239044   1.563   0.614   3.493  0.7321  1.5635  1.5281
 5877TIP3   OH239045   3.791   6.611  16.198  0.4000  0.2910  0.1942
 5877TIP3    H139046   3.845   6.554  16.143  1.2249  0.8174  0.4358
 5877TIP3    H239047   3.738   6.550  16.250  1.3382 -0.2691  0.5257
 5878TIP3   OH239048   4.366   3.096  14.236  0.8613  0.2924 -0.4355
 5878TIP3    H139049   4.391   3.107  14.327 -0.6179  0.2942 -0.0014
 5878TIP3    H239050   4.405   3.172  14.191  0.3894  1.0892  0.4659
 5879TIP3   OH239051   1.942   4.267   2.015 -0.0707  0.6068  0.1685
 5879TIP3    H139052   2.008   4.293   1.951 -0.1666  2.5014  0.7950
 5879TIP3    H239053   1.858   4.285   1.973 -0.1794 -0.0486  0.0853
 5880TIP3   OH239054   3.480   1.630   5.663 -0.3258  0.1473  0.0796
 5880TIP3    H139055   3.485   1.570   5.588 -1.5181 -0.7265  0.6657
 5880TIP3    H239056   3.491   1.575   5.740 -2.9111  0.3771  0.7067
 5881TIP3   OH239057   6.506   0.892  12.898  0.0659  0.2115  0.1656
 5881TIP3    H139058   6.499   0.839  12.819  1.4139  1.4176 -0.8117
 5881TIP3    H239059   6.418   0.892  12.935 -0.0155 -2.5753  0.1768
 5882TIP3   OH239060   1.106   6.413   3.031 -0.1648  0.1542 -0.4203
 5882TIP3    H139061   1.169   6.390   3.099  0.5705  1.3031 -0.6846
 5882TIP3    H239062   1.075   6.329   2.997  1.4270 -0.4395 -0.4750
 5883TIP3   OH239063   4.640   0.890  16.313 -0.1421 -0.3276  0.1748
 5883TIP3    H139064   4.565   0.845  16.273  1.1290 -0.4551 -2.2629
 5883TIP3    H239065   4.607   0.977  16.334 -1.5385 -1.0639  1.1783
 5884TIP3   OH239066   4.176   4.509   6.131 -0.6945 -0.0841  0.0982
 5884TIP3    H139067   4.137   4.423   6.144  0.2137 -0.3070  1.5514
 5884TIP3    H239068   4.114   4.570   6.173 -0.7468 -0.1576  0.1265
 5885TIP3   OH239069   5.739   5.066  11.821  0.6576 -0.5696  0.3698
 5885TIP3    H139070   5.821   5.116  11.819  0.6242 -0.1355  3.7798
 5885TIP3    H239071   5.717   5.051  11.729  0.7997  5.4805 -1.0440
 5886TIP3   OH239072   2.479   5.072  14.956  0.0538 -0.3194 -0.2337
 5886TIP3    H139073   2.411   5.136  14.936 -1.9121 -1.7107  1.6387
 5886TIP3    H239074   2.543   5.120  15.008 -0.5623  0.5175 -0.2368
 5887TIP3   OH239075   0.713   3.887   6.223  0.3051 -0.1728  0.1985
 5887TIP3    H139076   0.662   3.820   6.269  1.0635  0.3997  1.9691
 5887TIP3    H239077   0.687   3.879   6.131 -2.9584  0.0649  0.9772
 5888TIP3   OH239078   4.468   5.750   2.356 -0.3194 -0.3836  0.0179
 5888TIP3    H139079   4.455   5.784   2.267 -2.4478 -1.5804 -0.2033
 5888TIP3    H239080   4.488   5.657   2.343 -2.1144 -0.9213  0.7808
 5889TIP3   OH239081   4.481   3.202  15.478 -0.4338  0.8077 -0.9265
 5889TIP3    H139082   4.398   3.217  15.432 -0.3391 -1.0935 -1.8139
 5889TIP3    H239083   4.504   3.287  15.514 -1.6951  1.8712 -2.4803
 5890TIP3   OH239084   6.662   0.164   0.535  0.2399  0.4155 -0.6168
 5890TIP3    H139085   6.682   0.082   0.490  0.3123  0.5122 -0.7623
 5890TIP3    H239086   6.728   0.169   0.605  1.1918  1.0873 -1.5464
 5891TIP3   OH239087   1.509   0.865   1.425 -0.5592 -0.0504 -1.2977
 5891TIP3    H139088   1.583   0.819   1.385 -0.5244 -0.2797 -0.9708
 5891TIP3    H239089   1.492   0.938   1.366 -2.1378 -1.8006 -3.1582
 5892TIP3   OH239090   4.319   2.757   4.470  0.3499  0.3124 -0.1141
 5892TIP3    H139091   4.345   2.675   4.513 -1.9636 -0.5587 -0.2323
 5892TIP3    H239092   4.231   2.740   4.438 -0.1805  2.8445 -0.2048
 5893TIP3   OH239093   1.036   3.311   1.620 -0.4641 -0.3179  0.4683
 5893TIP3    H139094   1.112   3.265   1.655 -0.4419  1.1615  2.5632
 5893TIP3    H239095   1.047   3.307   1.525  1.0571 -2.0120  0.6535
 5894TIP3   OH239096   0.781   1.021   1.441  0.0578  0.1942  0.6627
 5894TIP3    H139097   0.865   1.012   1.396  1.9303 -0.0357  3.9072
 5894TIP3    H239098   0.740   0.935   1.434  0.9908 -0.2564  0.6318
 5895TIP3   OH239099   5.979   0.376  11.148  0.6269 -0.1469 -0.3563
 5895TIP3    H139100   5.963   0.389  11.055  1.9213 -1.2674 -0.7594
 5895TIP3    H239101   6.074   0.367  11.156  0.4824 -0.7938  0.9778
 5896TIP3   OH239102   2.194   2.019   3.629  0.3562  0.1444 -0.1770
 5896TIP3    H139103   2.197   1.981   3.717 -0.0542 -1.5476 -0.8525
 5896TIP3    H239104   2.108   1.992   3.595  0.6271  0.5463 -1.1853
 5897TIP3   OH239105   1.474   4.882   4.197  0.1870  0.2730 -0.0750
 5897TIP3    H139106   1.405   4.872   4.131 -0.1911  1.7436  0.0637
 5897TIP3    H239107   1.529   4.804   4.185 -1.3341 -0.8190 -0.3535
 5898TIP3   OH239108   4.881   1.101   1.043  0.3181  0.4440  0.1224
 5898TIP3    H139109   4.915   1.037   0.980  1.3379  0.7266  0.3708
 5898TIP3    H239110   4.925   1.183   1.020  3.6046 -0.1554  3.3698
 5899TIP3   OH239111   5.694   3.462  15.881  0.3272  0.1182 -0.7531
 5899TIP3    H139112   5.707   3.369  15.900  2.0346  0.1154 -1.7427
 5899TIP3    H239113   5.663   3.465  15.791  0.0209  0.5050 -0.6403
 5900TIP3   OH239114   3.590   2.391  15.142  0.5921 -0.6008  0.3315
 5900TIP3    H139115   3.653   2.464  15.149  0.0946 -0.1126 -0.1750
 5900TIP3    H239116   3.619   2.342  15.065  1.6192 -1.6287  1.3455
 5901TIP3   OH239117   3.398   5.532  10.824 -0.7809 -0.3883 -0.4384
 5901TIP3    H139118   3.407   5.461  10.760 -1.1362  0.9219 -2.0405
 5901TIP3    H239119   3.314   5.515  10.866 -1.4575 -0.2919 -1.6825
 5902TIP3   OH239120   5.227   0.732  14.836  0.3587  0.0440  0.8933
 5902TIP3    H139121   5.273   0.801  14.885 -1.5268  1.1517  1.1811
 5902TIP3    H239122   5.143   0.724  14.880  0.7598 -3.0205  1.3360
 5903TIP3   OH239123   2.543   2.306  13.411 -0.4570 -0.1087  0.9060
 5903TIP3    H139124   2.449   2.320  13.402 -0.4618 -0.7312 -0.2353
 5903TIP3    H239125   2.582   2.351  13.336  0.2808  1.1704  2.0106
 5904TIP3   OH239126   1.634   0.745   5.933  0.6692 -0.3709  0.2089
 5904TIP3    H139127   1.608   0.698   6.013 -1.1704 -1.4340 -0.9461
 5904TIP3    H239128   1.724   0.715   5.916  0.2661 -1.9431  0.6331
 5905TIP3   OH239129   6.531   3.546  15.511  0.3534  0.7476 -0.6620
 5905TIP3    H139130   6.591   3.522  15.581  0.2732 -0.1478 -0.8809
 5905TIP3    H239131   6.539   3.641  15.503  0.6332  0.8191  0.3064
 5906TIP3   OH239132   2.245   0.390   2.513  0.2459 -0.0245 -0.1842
 5906TIP3    H139133   2.327   0.438   2.498 -0.3866  0.7824 -1.2471
 5906TIP3    H239134   2.183   0.430   2.451 -0.6102 -1.4579 -0.2816
 5907TIP3   OH239135   5.938   0.572   4.134  0.0377  0.1860 -1.0703
 5907TIP3    H139136   5.992   0.644   4.165 -0.9175  0.4783 -0.0142
 5907TIP3    H239137   5.975   0.494   4.176 -0.6998  0.4646  0.1553
 5908TIP3   OH239138   3.261   3.992   3.665 -0.0963  0.1564 -0.6425
 5908TIP3    H139139   3.342   3.948   3.640  0.7345  2.0164 -1.4480
 5908TIP3    H239140   3.193   3.950   3.612  0.4492 -0.9107 -0.5285
 5909TIP3   OH239141   3.940   3.222  14.239  0.3791  0.0964  0.5210
 5909TIP3    H139142   3.893   3.224  14.156  0.2744  1.1633  0.5941
 5909TIP3    H239143   4.016   3.280  14.226 -0.3852  1.4100  1.5808
 5910TIP3   OH239144   1.108   4.964  12.944  0.1951 -0.1839 -0.3530
 5910TIP3    H139145   1.081   5.056  12.936  2.3060  0.3467 -3.2745
 5910TIP3    H239146   1.058   4.919  12.876  0.2409 -0.9247  0.1005
 5911TIP3   OH239147   6.324   5.076   4.076  0.1774  0.0036  0.3110
 5911TIP3    H139148   6.309   5.171   4.084 -0.7408 -0.1134  0.1144
 5911TIP3    H239149   6.348   5.063   3.985 -0.9455 -0.0979  0.0170
 5912TIP3   OH239150   5.053   5.028   2.011 -0.2459 -0.3109 -0.0173
 5912TIP3    H139151   5.083   4.979   2.087 -2.5286 -2.0037 -0.0912
 5912TIP3    H239152   4.968   5.063   2.037 -1.6858 -1.9751 -2.0693
 5913TIP3   OH239153   4.790   2.159  16.095 -0.7001  0.6879 -0.0711
 5913TIP3    H139154   4.698   2.174  16.073 -1.0341  2.1238  2.0871
 5913TIP3    H239155   4.791   2.074  16.138 -0.9123  0.4159 -0.5930
 5914TIP3   OH239156   1.400   1.402   2.435  0.2762 -0.1420 -0.0998
 5914TIP3    H139157   1.307   1.381   2.446 -0.6367  2.4630 -1.9904
 5914TIP3    H239158   1.440   1.319   2.409 -1.8868 -0.9330 -1.1759
 5915TIP3   OH239159   2.056   2.820   5.298 -0.6517  0.2440  0.1746
 5915TIP3    H139160   2.043   2.771   5.217 -0.1802  0.2975  0.0661
 5915TIP3    H239161   2.147   2.803   5.322 -1.1037 -0.7329  1.3208
 5916TIP3   OH239162   0.299   3.904   6.884 -0.3068 -0.1473  0.3289
 5916TIP3    H139163   0.245   3.858   6.948 -0.2490  0.6976  1.0040
 5916TIP3    H239164   0.240   3.920   6.811 -0.6731 -0.1860  0.6131
 5917TIP3   OH239165   5.512   5.082   2.205  0.4893  0.1274  0.3080
 5917TIP3    H139166   5.468   5.060   2.123  1.4153  0.2024 -0.2288
 5917TIP3    H239167   5.556   5.166   2.187  0.7142  0.1371  0.8745
 5918TIP3   OH239168   0.813   2.007  10.913  0.2052 -0.3709 -0.0699
 5918TIP3    H139169   0.722   2.010  10.941  0.2808  0.8260  0.1452
 5918TIP3    H239170   0.847   2.094  10.935  1.5139 -0.9291  0.2498
 5919TIP3   OH239171   6.046   2.614  15.170 -0.1928 -0.0177 -0.2397
 5919TIP3    H139172   5.978   2.670  15.133 -0.1930 -0.9742 -1.7493
 5919TIP3    H239173   6.117   2.675  15.194 -1.1836  0.8800  0.5277
 5920TIP3   OH239174   1.065   5.669  11.455 -0.0933  0.0633  0.8160
 5920TIP3    H139175   0.995   5.604  11.445  0.6965 -0.4856 -1.9853
 5920TIP3    H239176   1.146   5.618  11.452  0.5241  1.0698 -0.6785
 5921TIP3   OH239177   2.951   1.791   5.966 -0.3546 -0.5414  0.2836
 5921TIP3    H139178   2.950   1.842   6.047  1.2042 -0.9739  0.6196
 5921TIP3    H239179   3.025   1.827   5.916  0.6172 -2.2469  0.4121
 5922TIP3   OH239180   1.927   1.055  16.679  0.7327  0.2925  0.4500
 5922TIP3    H139181   1.838   1.087  16.669 -0.3240 -1.8173  2.1331
 5922TIP3    H239182   1.952   1.081  16.768  1.2204 -0.3723  0.5186
 5923TIP3   OH239183   4.235   4.401  13.031 -0.3320  0.5048  0.2557
 5923TIP3    H139184   4.221   4.317  12.988  1.6192  0.3059 -0.0597
 5923TIP3    H239185   4.229   4.465  12.960 -1.2698  0.6053  0.4081
 5924TIP3   OH239186   5.232   0.971  12.913 -0.0183 -0.0809 -0.1867
 5924TIP3    H139187   5.212   0.998  13.003  1.7499 -2.6555  1.1212
 5924TIP3    H239188   5.198   0.881  12.907  0.9360 -0.3823 -1.6882
 5925TIP3   OH239189   1.972   6.461   5.437 -0.4305  0.6753  0.0831
 5925TIP3    H139190   2.036   6.523   5.402  1.6230 -0.2899  1.8856
 5925TIP3    H239191   1.972   6.389   5.374 -0.0993  0.9025 -0.1822
 5926TIP3   OH239192   3.572   1.606   0.566  0.2645  0.5929  0.2145
 5926TIP3    H139193   3.657   1.581   0.530 -0.5900 -0.6194 -1.0566
 5926TIP3    H239194   3.542   1.677   0.510 -0.9195 -1.0751 -1.3618
 5927TIP3   OH239195   3.839   4.560  15.738  0.2813 -0.6341 -0.2153
 5927TIP3    H139196   3.799   4.546  15.652 -0.3958 -0.7564  0.1191
 5927TIP3    H239197   3.854   4.472  15.772  1.6041 -0.6115 -0.6820
 5928TIP3   OH239198   1.822   1.419   3.261 -0.3703 -0.7508 -0.2399
 5928TIP3    H139199   1.787   1.332   3.244  1.3980 -1.4367 -0.4809
 5928TIP3    H239200   1.916   1.407   3.270 -0.1302  1.0731  0.1893
 5929TIP3   OH239201   2.604   1.937   0.773 -0.6431  0.1400 -0.2769
 5929TIP3    H139202   2.592   1.899   0.686  0.2278  1.4127 -0.9755
 5929TIP3    H239203   2.588   2.030   0.761  0.0789  0.4227  0.8024
 5930TIP3   OH239204   4.638   4.905  17.114  0.7665 -0.1372  0.1373
 5930TIP3    H139205   4.604   4.950  17.191 -1.6915 -0.4512 -0.6719
 5930TIP3    H239206   4.639   4.972  17.046 -1.2630 -0.8112 -0.6243
 5931TIP3   OH239207   2.533   5.574  10.706 -0.0436 -0.0597 -0.3702
 5931TIP3    H139208   2.454   5.519  10.704  0.5208 -1.0085  1.4682
 5931TIP3    H239209   2.563   5.575  10.615 -0.7403 -1.8494 -0.6695
 5932TIP3   OH239210   2.408   4.598  10.980 -0.4180 -0.4029  0.1319
 5932TIP3    H139211   2.402   4.560  10.892  1.3467  0.0627 -0.2209
 5932TIP3    H239212   2.333   4.657  10.986  1.2351  2.2138 -2.4285
 5933TIP3   OH239213   6.284   5.973   1.857 -0.2624 -0.2005  0.0502
 5933TIP3    H139214   6.259   5.887   1.889  1.3414 -0.5061  0.5711
 5933TIP3    H239215   6.202   6.023   1.855 -1.0213 -1.3701  0.8575
 5934TIP3   OH239216   6.613   1.613   2.212 -0.1975  0.4562  0.6899
 5934TIP3    H139217   6.648   1.699   2.190  0.4467  0.2134  0.7439
 5934TIP3    H239218   6.613   1.610   2.308  0.9135 -0.0382  0.6976
 5935TIP3   OH239219   4.119   0.974  13.511  0.1873 -0.1118  0.4051
 5935TIP3    H139220   4.090   1.025  13.436  1.5555  1.0413  0.6243
 5935TIP3    H239221   4.038   0.938  13.548 -0.5193 -0.6416 -1.5435
 5936TIP3   OH239222   0.870   4.239  15.997 -0.0919 -0.3569  0.8411
 5936TIP3    H139223   0.796   4.296  15.977 -0.5666 -1.5613 -1.1394
 5936TIP3    H239224   0.837   4.178  16.062 -0.8129 -0.7635  0.1130
 5937TIP3   OH239225   4.909   1.351  15.772  0.5951  0.1906  0.2558
 5937TIP3    H139226   4.960   1.412  15.718  1.6738 -1.5986 -0.8444
 5937TIP3    H239227   4.962   1.271  15.774 -1.8095 -1.5126 -0.3214
 5938TIP3   OH239228   0.764   2.913  13.141  0.6759 -0.7610  0.0667
 5938TIP3    H139229   0.846   2.885  13.101  1.6319  0.4332  1.1044
 5938TIP3    H239230   0.771   2.886  13.232  1.0957  1.5717  0.8019
 5939TIP3   OH239231   2.169   4.236   1.810  0.0624  0.3887 -0.0562
 5939TIP3    H139232   2.182   4.330   1.800  1.1878  0.3708  1.0657
 5939TIP3    H239233   2.253   4.203   1.842 -0.4358 -0.9451 -0.0613
 5940TIP3   OH239234   2.987   1.927   4.349  0.1625  0.0606 -0.2786
 5940TIP3    H139235   2.898   1.908   4.379  0.2603  1.0202  0.6538
 5940TIP3    H239236   2.989   2.023   4.341  1.3411  0.1095  0.4561
 5941TIP3   OH239237   2.432   0.696  13.603 -0.2999 -0.1208 -0.0845
 5941TIP3    H139238   2.485   0.652  13.536 -0.4852  0.9867 -0.9809
 5941TIP3    H239239   2.377   0.757  13.555 -0.8429  0.3114  1.0342
 5942TIP3   OH239240   2.565   4.321   2.259 -0.4528  0.2193 -0.1407
 5942TIP3    H139241   2.565   4.254   2.190  1.4429  0.1530 -0.1473
 5942TIP3    H239242   2.550   4.271   2.339  2.3332 -0.5630  0.0329
 5943TIP3   OH239243   3.596   4.044   1.050  0.0383 -0.2516 -0.4410
 5943TIP3    H139244   3.672   4.054   0.992 -0.3760 -1.1897 -1.1818
 5943TIP3    H239245   3.562   4.133   1.060  1.4540  0.2570  0.2488
 5944TIP3   OH239246   6.115   1.971   4.363 -0.4064  0.4129  0.1037
 5944TIP3    H139247   6.200   2.001   4.332 -0.3615 -0.6545 -0.8670
 5944TIP3    H239248   6.123   1.876   4.367 -1.0497  0.3915  1.5695
 5945TIP3   OH239249   5.360   0.386   4.169  0.5358  0.1513 -0.0252
 5945TIP3    H139250   5.389   0.296   4.153  1.1876  0.1593  1.0115
 5945TIP3    H239251   5.267   0.379   4.187  0.9553 -0.6080  2.0959
 5946TIP3   OH239252   0.493   4.137  11.377 -0.2328 -0.5352 -0.3392
 5946TIP3    H139253   0.509   4.059  11.431 -0.0501 -0.7953 -0.7641
 5946TIP3    H239254   0.442   4.105  11.303 -0.5747 -0.1588 -0.2668
 5947TIP3   OH239255   3.994   6.090  15.152 -0.5635  0.2261 -0.6936
 5947TIP3    H139256   3.958   6.054  15.233 -0.5703  1.0967 -0.2933
 5947TIP3    H239257   3.943   6.050  15.082  0.5406 -1.8618 -0.4014
 5948TIP3   OH239258   6.681   4.709   1.854  0.0634 -0.6074 -0.0328
 5948TIP3    H139259   6.738   4.770   1.806  1.7577 -1.8123  0.3271
 5948TIP3    H239260   6.703   4.723   1.946  0.6241 -1.8454  0.0495
 5949TIP3   OH239261   3.852   0.475   4.339  0.0367  0.0720  0.1617
 5949TIP3    H139262   3.802   0.554   4.320  1.5006  0.6793 -1.4307
 5949TIP3    H239263   3.935   0.507   4.373  0.5538 -0.7685 -0.2675
 5950TIP3   OH239264   4.452   4.316  14.959 -0.0956  0.1159 -0.0605
 5950TIP3    H139265   4.386   4.386  14.957  0.2324  0.4495  0.6894
 5950TIP3    H239266   4.511   4.338  14.886 -0.4066  0.2057 -0.2912
 5951TIP3   OH239267   2.061   5.731  11.827  0.6883  0.7740 -0.3941
 5951TIP3    H139268   1.990   5.771  11.876 -0.2991  0.4136 -1.4576
 5951TIP3    H239269   2.123   5.802  11.810  1.6910  0.6780  2.3196
 5952TIP3   OH239270   1.680   3.252  12.657 -0.0022  0.3760  0.3238
 5952TIP3    H139271   1.646   3.334  12.621  1.2147  0.8778  0.2680
 5952TIP3    H239272   1.703   3.199  12.581  1.5028  0.9847  0.3145
 5953TIP3   OH239273   2.804   6.076   4.082 -0.0640  0.7937  0.4682
 5953TIP3    H139274   2.785   6.162   4.119 -2.4545  0.7242 -0.4336
 5953TIP3    H239275   2.793   6.016   4.156 -0.5512  1.0574  0.6144
 5954TIP3   OH239276   1.490   4.980   0.708  0.1136  0.0559 -0.0172
 5954TIP3    H139277   1.413   5.032   0.730 -1.2290 -1.4715 -0.9320
 5954TIP3    H239278   1.562   5.043   0.711 -1.5866  2.3195 -2.2897
 5955TIP3   OH239279   5.662   3.701  14.055 -0.0540  0.5620 -0.0191
 5955TIP3    H139280   5.678   3.778  13.999 -3.3723  0.5886 -1.1412
 5955TIP3    H239281   5.623   3.637  13.997 -1.6144 -0.2402  1.7970
 5956TIP3   OH239282   3.686   4.909   2.518  0.4070  0.2320  0.0700
 5956TIP3    H139283   3.726   4.825   2.538  0.9177  0.5129  0.2582
 5956TIP3    H239284   3.759   4.971   2.519  0.6062  0.2267 -3.1742
 5957TIP3   OH239285   2.795   2.874   4.657  0.2339  0.2031 -0.5498
 5957TIP3    H139286   2.816   2.816   4.730 -0.2992  2.0302  1.1383
 5957TIP3    H239287   2.869   2.866   4.597  0.7095 -1.2947  0.1907
 5958TIP3   OH239288   3.399   3.815   1.066  0.6814  0.0626 -0.2610
 5958TIP3    H139289   3.459   3.887   1.083  1.6005  0.0852 -3.1231
 5958TIP3    H239290   3.334   3.851   1.006 -1.8260 -0.2049  2.0723
 5959TIP3   OH239291   5.325   5.935   1.249 -0.1451 -0.6822 -0.2230
 5959TIP3    H139292   5.256   5.934   1.316 -1.3056 -1.7784 -1.3624
 5959TIP3    H239293   5.313   6.018   1.203  0.7016  0.1052  0.9536
 5960TIP3   OH239294   4.162   1.729  15.210  0.2395  0.1784  0.1006
 5960TIP3    H139295   4.087   1.784  15.230  0.6010  0.0846  1.8149
 5960TIP3    H239296   4.173   1.674  15.287  0.6829 -1.4055 -1.0505
 5961TIP3   OH239297   5.241   0.204  16.408  0.8629 -0.3493 -0.1738
 5961TIP3    H139298   5.275   0.128  16.455  2.0532  0.3599  0.1392
 5961TIP3    H239299   5.242   0.177  16.316  1.7959 -0.5234 -0.1176
 5962TIP3   OH239300   5.782   3.313  14.321  0.3001  0.1888 -0.4644
 5962TIP3    H139301   5.723   3.289  14.392  0.7523  0.8235  0.1335
 5962TIP3    H239302   5.767   3.407  14.308  2.3758  0.7727  0.8657
 5963TIP3   OH239303   5.315   2.639  10.428 -0.5266  0.0204  0.0248
 5963TIP3    H139304   5.331   2.734  10.434  0.0647 -0.1515  1.8426
 5963TIP3    H239305   5.390   2.600  10.474 -1.4747 -1.2576  0.5386
 5964TIP3   OH239306   5.415   1.807   3.718  0.2224  0.1473 -0.0578
 5964TIP3    H139307   5.510   1.795   3.723  0.4933  2.1242  0.3132
 5964TIP3    H239308   5.388   1.822   3.809 -0.0899  1.7348 -0.3773
 5965TIP3   OH239309   4.016   0.086   4.475  0.1753 -0.0414  0.7304
 5965TIP3    H139310   3.955   0.046   4.537  0.0885 -1.0918  0.0003
 5965TIP3    H239311   4.040   0.169   4.515 -0.6523 -0.2438  1.6912
 5966TIP3   OH239312   0.930   4.619   5.973  0.2483 -0.1601 -0.1305
 5966TIP3    H139313   0.981   4.569   5.910  0.7860  0.9447 -0.5944
 5966TIP3    H239314   0.849   4.640   5.927 -0.4175 -1.4178  0.4076
 5967TIP3   OH239315   3.927   2.674   4.095  0.2167 -0.3152  0.6700
 5967TIP3    H139316   3.989   2.605   4.119  0.4382 -0.1899  0.4619
 5967TIP3    H239317   3.886   2.642   4.014 -0.0249 -0.4190  0.8329
 5968TIP3   OH239318   2.160   5.694  15.290 -0.1817  0.1458 -0.3241
 5968TIP3    H139319   2.069   5.705  15.318 -0.8465 -0.5166 -2.0929
 5968TIP3    H239320   2.199   5.636  15.355 -1.8073 -1.7523 -0.9492
 5969TIP3   OH239321   1.254   5.546  17.191  0.5840 -0.6359  0.0147
 5969TIP3    H139322   1.201   5.482  17.144 -0.6270 -0.8732  1.5759
 5969TIP3    H239323   1.325   5.496  17.230  0.2725 -0.8562  0.3106
 5970TIP3   OH239324   3.422   4.992   6.449 -0.1686  0.3901  0.3251
 5970TIP3    H139325   3.353   5.005   6.513 -1.0357  0.8536 -0.6654
 5970TIP3    H239326   3.392   4.918   6.397  1.1877 -0.8766  1.2886
 5971TIP3   OH239327   5.824   5.637  12.641 -0.5081  0.0175  0.6310
 5971TIP3    H139328   5.898   5.636  12.702  0.8951  1.4590 -0.9575
 5971TIP3    H239329   5.855   5.687  12.566 -2.1575 -1.6790 -1.3025
 5972TIP3   OH239330   1.578   0.335  11.461 -0.0462 -0.7029  0.0002
 5972TIP3    H139331   1.583   0.429  11.480 -0.0277 -0.7270  0.1200
 5972TIP3    H239332   1.590   0.294  11.547 -2.2882 -0.7720  0.3445
 5973TIP3   OH239333   2.643   5.130  17.345 -0.1478  0.1656  0.2209
 5973TIP3    H139334   2.733   5.160  17.359  0.0129 -0.5122  0.6708
 5973TIP3    H239335   2.590   5.204  17.375  0.2193 -0.6735  3.2757
 5974TIP3   OH239336   5.219   3.936  16.796  0.4852 -0.0078  0.1070
 5974TIP3    H139337   5.124   3.945  16.787 -0.1408 -3.0702  1.9910
 5974TIP3    H239338   5.244   3.874  16.728  1.1506  0.6188 -0.2385
 5975TIP3   OH239339   5.075   3.944   1.426 -0.4007 -0.9301  0.1589
 5975TIP3    H139340   5.063   3.970   1.335 -0.6880  1.8091  0.8821
 5975TIP3    H239341   5.167   3.918   1.431  0.8413  2.7997 -0.2038
 5976TIP3   OH239342   0.354   2.146  12.735  0.1269  0.1442  0.3932
 5976TIP3    H139343   0.434   2.176  12.778  1.5316 -0.3838 -1.6629
 5976TIP3    H239344   0.383   2.075  12.678 -2.0420 -0.8848  0.4731
 5977TIP3   OH239345   5.823   0.978  12.562 -0.5598  0.4447  0.0964
 5977TIP3    H139346   5.842   0.974  12.468 -1.5332 -3.3481 -0.0916
 5977TIP3    H239347   5.901   1.016  12.601  1.6290 -1.6408 -1.9150
 5978TIP3   OH239348   0.887   4.860   1.901 -0.0821 -0.1576  0.3644
 5978TIP3    H139349   0.872   4.772   1.938 -0.5428 -0.5419 -0.7109
 5978TIP3    H239350   0.967   4.850   1.849 -0.2769 -0.0065  0.0345
 5979TIP3   OH239351   4.033   6.319   2.430  0.6797  0.8665 -0.6821
 5979TIP3    H139352   4.126   6.297   2.434  0.6395  0.7954  1.7255
 5979TIP3    H239353   4.012   6.351   2.518 -0.8377  4.1582 -2.0560
 5980TIP3   OH239354   3.962   2.298  14.234  0.3172  0.6605  0.9845
 5980TIP3    H139355   3.867   2.307  14.241  0.3695  1.5994  0.6063
 5980TIP3    H239356   3.986   2.355  14.161  0.9810 -0.8839 -0.0676
 5981TIP3   OH239357   5.595   5.636   3.214  0.0486 -0.4740 -0.1606
 5981TIP3    H139358   5.635   5.723   3.219  0.2278 -0.5839  0.3530
 5981TIP3    H239359   5.639   5.586   3.282 -1.5237 -0.3713  0.9873
 5982TIP3   OH239360   6.359   4.866   2.142  0.2442 -0.2385 -0.2314
 5982TIP3    H139361   6.329   4.823   2.062  2.3281 -0.5426 -0.9095
 5982TIP3    H239362   6.325   4.811   2.212  0.3501 -1.3376 -1.0032
 5983TIP3   OH239363   2.968   4.006   1.661 -0.2170  0.3032 -0.8061
 5983TIP3    H139364   2.935   3.988   1.749  0.1034  0.5325 -0.6363
 5983TIP3    H239365   3.009   3.924   1.633  0.9940  0.6657 -0.1485
 5984TIP3   OH239366   2.821   4.772  16.070 -0.6665  0.4599  0.4078
 5984TIP3    H139367   2.916   4.773  16.077 -0.5808 -0.8596 -0.2572
 5984TIP3    H239368   2.790   4.798  16.157  0.2866  1.3471  0.4983
 5985TIP3   OH239369   3.606   1.394  12.201 -0.9369 -0.3216  0.1905
 5985TIP3    H139370   3.687   1.403  12.151 -0.8407  0.0540  0.4039
 5985TIP3    H239371   3.628   1.429  12.288 -1.5230  0.4486  0.0431
 5986TIP3   OH239372   0.480   0.551   3.026  0.1816  0.1538  0.6041
 5986TIP3    H139373   0.456   0.530   2.936  1.8661 -1.9281  0.5608
 5986TIP3    H239374   0.405   0.523   3.078 -0.1968 -0.0298 -0.0285
 5987TIP3   OH239375   0.347   2.841   0.959 -0.5635  0.1674 -0.2472
 5987TIP3    H139376   0.351   2.830   1.054 -2.1554 -0.6099 -0.2339
 5987TIP3    H239377   0.254   2.839   0.939 -0.2559  0.4614 -1.8212
 5988TIP3   OH239378   4.178   1.233   0.290  0.3140 -0.7868 -0.1602
 5988TIP3    H139379   4.114   1.242   0.361 -0.1106  0.3433 -0.6672
 5988TIP3    H239380   4.127   1.239   0.210  1.0993  0.6032 -0.5793
 5989TIP3   OH239381   0.579   1.971   6.355  0.3960 -0.4545 -0.5733
 5989TIP3    H139382   0.562   2.062   6.382 -0.8156 -0.3894 -1.4862
 5989TIP3    H239383   0.666   1.974   6.316  0.6150  0.1957 -0.0647
 5990TIP3   OH239384   2.829   2.946  12.072  0.1925 -0.2830 -0.0942
 5990TIP3    H139385   2.883   2.935  12.150  0.3430 -1.2761 -0.3227
 5990TIP3    H239386   2.809   3.040  12.069 -0.7925 -0.3904  1.7756
 5991TIP3   OH239387   2.259   5.660   1.626  0.4448  0.2277 -0.4106
 5991TIP3    H139388   2.177   5.610   1.622  0.2778  0.5562 -1.2950
 5991TIP3    H239389   2.231   5.751   1.635  0.7283  0.2654  0.0722
 5992TIP3   OH239390   4.696   2.756  14.099  0.5074 -0.0364 -0.7772
 5992TIP3    H139391   4.714   2.664  14.081  0.2909 -0.0475 -0.9341
 5992TIP3    H239392   4.607   2.758  14.133  0.8807 -0.0104  0.2597
 5993TIP3   OH239393   6.143   1.910  11.243  0.3154  0.0527  0.0136
 5993TIP3    H139394   6.072   1.873  11.190  0.6371 -1.5991  0.6820
 5993TIP3    H239395   6.223   1.876  11.202  0.5913 -0.7252  1.1493
 5994TIP3   OH239396   0.694   3.423  14.936  0.6655  0.3092 -0.1994
 5994TIP3    H139397   0.714   3.452  15.025  2.6253 -0.4041 -0.3573
 5994TIP3    H239398   0.777   3.428  14.890 -0.1715 -0.0035 -1.8194
 5995TIP3   OH239399   6.000   4.353   4.931 -0.1777  0.0105 -0.3311
 5995TIP3    H139400   5.976   4.294   5.002 -0.0470 -0.0277 -0.3188
 5995TIP3    H239401   6.009   4.439   4.971  1.0271 -0.2074 -0.0850
 5996TIP3   OH239402   5.266   1.459   1.052 -0.1409  0.4355 -0.0192
 5996TIP3    H139403   5.237   1.524   1.116  0.0895 -1.3374  2.0293
 5996TIP3    H239404   5.353   1.488   1.026 -0.2391  1.2106  0.4731
 5997TIP3   OH239405   5.752   2.464  11.285 -0.0451 -0.2692 -0.0138
 5997TIP3    H139406   5.834   2.418  11.272 -0.2657 -0.9366  0.8409
 5997TIP3    H239407   5.753   2.534  11.220  1.6041  0.2994  0.5821
 5998TIP3   OH239408   0.351   1.924   2.082  0.2271  0.5727 -0.4913
 5998TIP3    H139409   0.281   1.911   2.018 -0.6540  0.4453  0.4696
 5998TIP3    H239410   0.394   2.006   2.055 -0.5044  0.8277 -0.9000
 5999TIP3   OH239411   5.605   3.949   2.935  0.7060 -0.4731  0.0137
 5999TIP3    H139412   5.542   3.915   2.871  0.3333  1.4742 -0.7248
 5999TIP3    H239413   5.595   3.892   3.011 -0.2666 -1.6339 -0.9350
 6000TIP3   OH239414   1.306   5.268  11.258 -0.5142  0.5933 -0.2811
 6000TIP3    H139415   1.252   5.272  11.338  1.7674 -0.8933  1.4557
 6000TIP3    H239416   1.253   5.216  11.197 -2.1591  1.4308  0.3538
 6001TIP3   OH239417   0.241   1.448  16.734  0.1940 -0.1434  0.2414
 6001TIP3    H139418   0.330   1.429  16.704  0.6164  0.5951  0.9869
 6001TIP3    H239419   0.239   1.543  16.746 -0.4703 -0.2343  0.9430
 6002TIP3   OH239420   3.032   6.708   6.428  1.0978 -0.1569 -0.3330
 6002TIP3    H139421   3.105   6.670   6.478  0.0457 -1.0961  0.5341
 6002TIP3    H239422   2.964   6.725   6.493  0.8509  1.5576 -0.9963
 6003TIP3   OH239423   5.252   4.058   3.382  0.2882 -0.3089  0.5311
 6003TIP3    H139424   5.242   4.137   3.329  2.4712 -0.2282  0.1466
 6003TIP3    H239425   5.347   4.049   3.394  0.0257 -2.2136  1.5839
 6004TIP3   OH239426   3.803   2.375   3.427  0.1559  0.2053 -0.6247
 6004TIP3    H139427   3.723   2.346   3.382 -0.5401 -0.3545  0.9041
 6004TIP3    H239428   3.818   2.464   3.395  0.2338 -0.4597 -2.6323
 6005TIP3   OH239429   2.268   6.636  17.070  0.4322 -0.1079 -0.7558
 6005TIP3    H139430   2.362   6.630  17.084  0.4641  0.6104 -0.6240
 6005TIP3    H239431   2.247   6.727  17.088 -0.7703 -0.8493  2.3161
 6006TIP3   OH239432   5.642   5.450   1.203 -0.7938  0.4408  0.3297
 6006TIP3    H139433   5.661   5.371   1.254 -1.3013 -0.2817 -0.5649
 6006TIP3    H239434   5.717   5.457   1.144 -1.5133 -0.3285 -0.7101
 6007TIP3   OH239435   3.919   4.763   1.269 -0.2773  0.1388 -0.1186
 6007TIP3    H139436   3.859   4.691   1.249  0.3033 -0.8756  1.6077
 6007TIP3    H239437   3.983   4.725   1.329  1.8977  1.2880 -1.5804
 6008TIP3   OH239438   6.068   3.760  14.623  0.5360  0.2599  0.1537
 6008TIP3    H139439   6.131   3.823  14.659  1.6899 -1.4436  1.2772
 6008TIP3    H239440   6.109   3.729  14.542  0.1535  0.6326 -0.1903
 6009TIP3   OH239441   3.439   3.346  10.901  0.2040  0.0581 -0.3045
 6009TIP3    H139442   3.470   3.268  10.855 -0.7518  0.0024 -0.8731
 6009TIP3    H239443   3.433   3.319  10.993  4.0359  0.7391  0.3010
 6010TIP3   OH239444   0.799   3.097  13.490 -0.0604 -0.2952  0.3789
 6010TIP3    H139445   0.854   3.036  13.539 -1.2721  0.4554  2.8198
 6010TIP3    H239446   0.788   3.172  13.548 -1.2401  0.8628 -1.2394
 6011TIP3   OH239447   1.575   3.443  11.070  0.0546  0.3534 -0.4718
 6011TIP3    H139448   1.596   3.450  10.977  2.9363  1.1701  0.1129
 6011TIP3    H239449   1.556   3.350  11.083 -0.9018  0.3076 -1.9227
 6012TIP3   OH239450   1.690   5.360   5.543  0.3700 -0.0983  0.5020
 6012TIP3    H139451   1.706   5.308   5.623 -2.1154  0.0444  1.1887
 6012TIP3    H239452   1.616   5.417   5.566 -0.4028 -0.0159 -1.8791
 6013TIP3   OH239453   5.673   4.540  16.683 -0.6001 -0.0634  0.2562
 6013TIP3    H139454   5.711   4.499  16.761  1.8632  0.5195 -0.5648
 6013TIP3    H239455   5.626   4.469  16.639 -0.5385 -0.8077  1.3478
 6014TIP3   OH239456   5.814   3.951  16.535  0.0800  0.0930 -0.1013
 6014TIP3    H139457   5.800   4.003  16.455  0.5807  1.1886  0.4996
 6014TIP3    H239458   5.741   3.974  16.592  0.2673  0.1038  0.1376
 6015TIP3   OH239459   2.238   3.837   1.050  0.1675 -0.3294 -0.6448
 6015TIP3    H139460   2.282   3.916   1.082  0.1776 -0.5221 -0.1808
 6015TIP3    H239461   2.230   3.781   1.127  4.2224 -2.7406 -1.6455
 6016TIP3   OH239462   1.184   0.728   3.444 -0.5729 -0.7089 -0.3076
 6016TIP3    H139463   1.120   0.748   3.512 -2.5666 -2.3531 -1.5706
 6016TIP3    H239464   1.259   0.691   3.492 -0.4962  1.2294  1.2013
 6017TIP3   OH239465   5.863   2.927  15.339 -0.3233  0.0762  0.0483
 6017TIP3    H139466   5.902   2.925  15.251  1.2164  0.6591  0.6973
 6017TIP3    H239467   5.793   2.862  15.335 -0.2168  0.0197 -1.5828
 6018TIP3   OH239468   6.441   2.432  17.342  0.5452  0.1906  0.2478
 6018TIP3    H139469   6.355   2.438  17.383  1.0612  0.1992  1.3711
 6018TIP3    H239470   6.497   2.488  17.396  0.7136  2.3724 -2.0023
 6019TIP3   OH239471   1.705   0.781   0.029  0.1482 -0.8411 -0.1546
 6019TIP3    H139472   1.654   0.843  -0.024  0.2782  0.0739  0.7549
 6019TIP3    H239473   1.649   0.704   0.035 -0.7905 -0.1567  0.1465
 6020TIP3   OH239474   3.717   1.821   5.120 -0.1547  0.4011  0.2967
 6020TIP3    H139475   3.662   1.784   5.051  2.1387  0.3399 -1.6328
 6020TIP3    H239476   3.792   1.762   5.126  0.1104  0.8630  2.3156
 6021TIP3   OH239477   6.292   0.356   1.568  0.2211  0.2913 -0.3295
 6021TIP3    H139478   6.341   0.297   1.511  0.0336 -2.2698  1.9774
 6021TIP3    H239479   6.203   0.353   1.534  0.7343  1.5231 -1.8991
 6022TIP3   OH239480   5.184   4.156   5.060 -0.1282 -0.4220 -0.0314
 6022TIP3    H139481   5.135   4.074   5.057  0.8489 -1.0448  0.3941
 6022TIP3    H239482   5.218   4.167   4.971 -0.4023 -0.3933 -0.1316
 6023TIP3   OH239483   2.851   3.876  12.542 -0.5668  0.4235  0.1426
 6023TIP3    H139484   2.820   3.895  12.454 -2.1138 -0.2682  0.4984
 6023TIP3    H239485   2.825   3.785  12.558 -0.6106  0.6415  1.4274
 6024TIP3   OH239486   1.318   4.666  11.063 -0.2200 -0.4279  0.0605
 6024TIP3    H139487   1.401   4.651  11.107  0.2647 -0.3481 -0.8143
 6024TIP3    H239488   1.324   4.616  10.982 -0.2895  1.0008 -0.8659
 6025TIP3   OH239489   2.308   5.608  16.220 -0.2245 -0.2064 -0.0546
 6025TIP3    H139490   2.231   5.560  16.250 -0.4750 -0.4339 -1.0165
 6025TIP3    H239491   2.292   5.699  16.247 -0.8424 -0.2467 -0.2649
 6026TIP3   OH239492   2.941   3.528   4.263  0.0775 -0.4697  0.4831
 6026TIP3    H139493   3.028   3.566   4.249 -0.4494  1.0709  1.0900
 6026TIP3    H239494   2.913   3.564   4.348 -1.9272  0.6831 -0.5723
 6027TIP3   OH239495   1.042   3.620   2.361  0.7367  0.4828  0.3106
 6027TIP3    H139496   1.049   3.715   2.362  0.0473  0.5426 -0.0858
 6027TIP3    H239497   1.085   3.594   2.279 -3.3590  0.8680 -2.2510
 6028TIP3   OH239498   1.942   1.164  15.163  0.0845  0.5215  0.0624
 6028TIP3    H139499   1.971   1.132  15.077 -1.2841 -1.2687  0.2106
 6028TIP3    H239500   2.016   1.148  15.221 -0.0825 -1.2788 -0.1520
 6029TIP3   OH239501   1.243   6.304   6.014 -0.0063  0.1027  0.1612
 6029TIP3    H139502   1.178   6.364   5.977  1.2433  0.6904 -1.1755
 6029TIP3    H239503   1.322   6.357   6.023  1.2122 -1.3468 -1.2780
 6030TIP3   OH239504   2.024   3.584  11.231 -0.3078 -0.0176 -0.3777
 6030TIP3    H139505   1.993   3.558  11.144 -0.2429 -0.7757 -0.1753
 6030TIP3    H239506   2.004   3.678  11.236 -2.5373 -0.4413 -0.2905
 6031TIP3   OH239507   2.614   4.904   4.678 -0.2817  0.0195 -0.0307
 6031TIP3    H139508   2.685   4.968   4.664  1.0691 -1.4955 -0.4482
 6031TIP3    H239509   2.650   4.843   4.742 -1.2517 -0.7597 -0.2101
 6032TIP3   OH239510   1.587   2.291   4.811  0.4714 -0.5141 -0.1728
 6032TIP3    H139511   1.637   2.300   4.893 -1.5410 -0.9792  1.1910
 6032TIP3    H239512   1.543   2.375   4.800  1.4283 -0.1455 -1.2960
 6033TIP3   OH239513   1.084   5.409   1.333 -0.2738 -0.3937 -0.0650
 6033TIP3    H139514   1.050   5.490   1.372  0.7259 -0.4313  0.9487
 6033TIP3    H239515   1.168   5.433   1.295 -0.2185 -0.8452 -0.2383
 6034TIP3   OH239516   4.912   0.673  12.542  0.2833 -0.2016  0.0109
 6034TIP3    H139517   4.952   0.759  12.551  1.1611 -0.4502 -1.2754
 6034TIP3    H239518   4.986   0.612  12.537 -0.3090 -0.9639  0.2092
 6035TIP3   OH239519   3.303   4.801   4.899 -0.4825 -0.0281 -0.3284
 6035TIP3    H139520   3.370   4.867   4.916 -0.5046 -0.0905  0.0106
 6035TIP3    H239521   3.304   4.745   4.977  0.4869 -1.2556 -1.1910
 6036TIP3   OH239522   5.312   2.877   0.695 -0.0356  0.2059 -0.2143
 6036TIP3    H139523   5.400   2.914   0.706  0.1596 -0.2860 -0.0907
 6036TIP3    H239524   5.296   2.829   0.777 -0.0784 -0.4003 -0.5699
 6037TIP3   OH239525   2.260   6.201   6.056  0.2094  0.4309  0.2246
 6037TIP3    H139526   2.234   6.280   6.103  0.3407  1.0809 -0.7636
 6037TIP3    H239527   2.222   6.129   6.106 -2.4407  1.2611 -0.4754
 6038TIP3   OH239528   3.553   3.159  16.824  0.0658  0.4110  0.1448
 6038TIP3    H139529   3.552   3.240  16.774  1.0784  0.1191 -0.3782
 6038TIP3    H239530   3.554   3.187  16.916  3.4465  1.1393  0.0329
 6039TIP3   OH239531   6.738   0.383  14.120 -0.1545 -0.7393  0.1291
 6039TIP3    H139532   6.769   0.422  14.201 -1.6231 -0.1087  0.4185
 6039TIP3    H239533   6.664   0.329  14.146 -1.6627  0.7167 -0.9359
 6040TIP3   OH239534   3.456   0.326   2.263 -0.1998  0.3764 -0.0311
 6040TIP3    H139535   3.402   0.269   2.318  1.2487 -0.2588  0.7727
 6040TIP3    H239536   3.515   0.370   2.323  3.0597 -2.1043 -1.1439
 6041TIP3   OH239537   4.999   4.514   5.509  0.1054 -0.2495  0.3462
 6041TIP3    H139538   5.076   4.531   5.455  1.1369  2.0002  2.3176
 6041TIP3    H239539   4.925   4.545   5.456  0.6663 -1.1298 -1.0071
 6042TIP3   OH239540   0.111   3.610   3.986 -0.5366  0.4209 -0.1859
 6042TIP3    H139541   0.146   3.600   3.897 -1.3132 -0.2630 -0.4302
 6042TIP3    H239542   0.122   3.703   4.006  1.8845  0.1439 -0.0348
 6043TIP3   OH239543   2.514   3.112  15.121  0.8358  0.0713 -0.0661
 6043TIP3    H139544   2.429   3.130  15.163  1.2582  1.2375  0.3453
 6043TIP3    H239545   2.570   3.183  15.152  2.1400 -1.0290  0.1517
 6044TIP3   OH239546   1.181   0.920  12.355 -0.2975  0.0880 -0.0910
 6044TIP3    H139547   1.187   0.824  12.359 -1.7725 -0.0042  0.7853
 6044TIP3    H239548   1.268   0.948  12.329  0.2786 -1.4761  0.0136
 6045TIP3   OH239549   2.080   5.252  16.453 -0.0553 -0.3106 -0.4701
 6045TIP3    H139550   2.095   5.185  16.519  1.4982  0.7927  0.3464
 6045TIP3    H239551   1.998   5.294  16.481  0.1835 -0.3512  0.3218
 6046TIP3   OH239552   5.894   5.127   1.838 -0.3289 -0.0708  0.1457
 6046TIP3    H139553   5.864   5.217   1.824  1.9093  1.1662  2.4129
 6046TIP3    H239554   5.967   5.117   1.776 -0.4002 -0.2246  0.0876
 6047TIP3   OH239555   1.450   6.374   4.201  0.4013  0.4881 -0.3884
 6047TIP3    H139556   1.439   6.407   4.291 -4.0161  0.5469 -0.6896
 6047TIP3    H239557   1.463   6.452   4.148 -1.2569  0.9516 -0.1716
 6048TIP3   OH239558   4.096   0.444  14.717  0.1772  0.0585 -0.1468
 6048TIP3    H139559   4.182   0.485  14.705  1.8106 -2.9788  0.1103
 6048TIP3    H239560   4.104   0.398  14.801 -1.4328 -0.8511 -0.4608
 6049TIP3   OH239561   3.275   1.119  15.817  0.2626 -0.3711  0.1527
 6049TIP3    H139562   3.204   1.071  15.858  0.7129 -0.2354  1.1287
 6049TIP3    H239563   3.261   1.109  15.723 -1.6963  0.6304  0.2947
 6050TIP3   OH239564   6.023   6.136  14.993  0.4256 -0.0759 -0.1275
 6050TIP3    H139565   6.108   6.103  14.962 -0.7650 -3.2215 -0.3670
 6050TIP3    H239566   6.028   6.129  15.088  0.4615 -0.1664 -0.1361
 6051TIP3   OH239567   0.725   0.346   0.279  0.1256 -0.1722  0.9106
 6051TIP3    H139568   0.641   0.306   0.259 -1.4356  2.2382  2.0972
 6051TIP3    H239569   0.729   0.423   0.221  1.7708 -0.4926  0.5389
 6052TIP3   OH239570   4.666   1.770   2.446  0.0124 -0.2582 -0.7117
 6052TIP3    H139571   4.680   1.821   2.526 -1.5191 -0.9252  0.0352
 6052TIP3    H239572   4.724   1.695   2.456 -0.6583 -0.6861  0.1268
 6053TIP3   OH239573   6.692   3.362   6.347  0.0788  0.5016 -0.3414
 6053TIP3    H139574   6.665   3.453   6.339 -0.2024  0.6734  1.9269
 6053TIP3    H239575   6.715   3.336   6.258 -0.3487  2.6088 -1.1262
 6054TIP3   OH239576   0.629   4.193   2.015 -0.1743  0.3053 -0.2232
 6054TIP3    H139577   0.628   4.228   1.926  0.9633 -1.1535 -0.8446
 6054TIP3    H239578   0.639   4.270   2.071  0.6137  1.1238 -1.4406
 6055TIP3   OH239579   3.286   6.313   3.945 -0.4908  0.0816 -0.7108
 6055TIP3    H139580   3.248   6.352   3.866  0.4335 -0.1641 -1.2910
 6055TIP3    H239581   3.379   6.332   3.939 -0.1927 -1.1820 -0.3940
 6056TIP3   OH239582   0.246   6.277   4.994  0.1895  0.1424  0.0161
 6056TIP3    H139583   0.290   6.212   4.939  0.4914  0.3186  0.0512
 6056TIP3    H239584   0.206   6.338   4.931  0.8013  0.5245 -0.0150
 6057TIP3   OH239585   5.882   0.341   3.539  0.0300  0.0974 -0.1500
 6057TIP3    H139586   5.844   0.339   3.451 -0.9330  2.1101  0.1481
 6057TIP3    H239587   5.814   0.381   3.594  0.8723 -0.4627  1.3821
 6058TIP3   OH239588   3.734   2.862   0.488  0.3681 -0.5031  0.1081
 6058TIP3    H139589   3.656   2.916   0.482  0.3981 -0.5408 -0.7678
 6058TIP3    H239590   3.803   2.916   0.449  0.6751 -0.6727  0.4081
 6059TIP3   OH239591   3.864   0.284  14.855  0.1350 -0.5383  0.7428
 6059TIP3    H139592   3.791   0.322  14.903  1.1671 -0.6897  2.5335
 6059TIP3    H239593   3.836   0.285  14.764 -1.9295 -0.2468  1.3230
 6060TIP3   OH239594   1.144   0.804  15.696  0.0112  0.0568 -0.1909
 6060TIP3    H139595   1.220   0.757  15.663  1.0031  2.8513 -2.2409
 6060TIP3    H239596   1.142   0.783  15.790  1.1106 -2.8758 -0.7191
 6061TIP3   OH239597   4.365   3.799   5.693  0.7352 -0.4322  0.0013
 6061TIP3    H139598   4.446   3.757   5.724  1.8635  0.2699 -1.8196
 6061TIP3    H239599   4.386   3.893   5.693  0.1843 -0.2967 -1.1562
 6062TIP3   OH239600   2.026   4.246  16.990  0.1736  0.0564 -0.5292
 6062TIP3    H139601   1.995   4.205  17.070  2.6387  0.9134  0.9734
 6062TIP3    H239602   1.959   4.226  16.925 -2.2710 -0.0961  1.8763
 6063TIP3   OH239603   4.943   6.331   4.594  0.4352  0.4901  0.5850
 6063TIP3    H139604   4.999   6.409   4.595  2.0648 -0.6243  0.3361
 6063TIP3    H239605   4.984   6.273   4.530 -0.9842 -0.4171  0.4522
 6064TIP3   OH239606   5.756   2.263   1.842  0.3918  0.1214  0.0838
 6064TIP3    H139607   5.723   2.338   1.792 -0.6541 -0.3210  0.0872
 6064TIP3    H239608   5.816   2.219   1.782 -1.5240 -0.9208 -1.1697
 6065TIP3   OH239609   2.733   5.495  11.913  0.0447 -0.4021  0.2039
 6065TIP3    H139610   2.713   5.534  11.828  0.3382  0.9432  0.7321
 6065TIP3    H239611   2.814   5.446  11.898  0.1498 -0.0903 -0.2652
 6066TIP3   OH239612   3.300   6.174  14.770 -0.2861  0.0063  0.7589
 6066TIP3    H139613   3.306   6.206  14.860 -0.3138  0.3270  0.6484
 6066TIP3    H239614   3.206   6.166  14.754 -0.3248  1.1581  0.3404
 6067TIP3   OH239615   1.809   3.936   5.948 -0.1064 -0.5017  0.5420
 6067TIP3    H139616   1.772   3.888   5.873  1.3162 -0.0645 -0.4860
 6067TIP3    H239617   1.774   4.024   5.940  1.2871 -0.0082 -0.5986
 6068TIP3   OH239618   5.711   6.451   3.357 -0.2324  0.3783 -0.7021
 6068TIP3    H139619   5.651   6.473   3.286 -0.3415 -0.0956 -0.7635
 6068TIP3    H239620   5.776   6.521   3.356 -1.2011  1.3084 -0.1448
 6069TIP3   OH239621   4.842   1.143  14.722  0.0772 -0.0472 -0.5269
 6069TIP3    H139622   4.761   1.106  14.688 -0.2136  1.9457 -2.2295
 6069TIP3    H239623   4.820   1.234  14.743  1.2247 -0.1769  1.5789
 6070TIP3   OH239624   3.718   1.036   5.081 -0.1545 -0.2859  0.4074
 6070TIP3    H139625   3.668   0.961   5.111  0.1474 -1.1411 -1.1316
 6070TIP3    H239626   3.809   1.004   5.076  0.1679  0.5242  0.8550
 6071TIP3   OH239627   5.651   2.473   1.276 -0.1049 -0.2698 -0.3071
 6071TIP3    H139628   5.697   2.533   1.335 -0.2408  1.0841 -1.5379
 6071TIP3    H239629   5.564   2.463   1.315  0.5266 -1.2850  0.9618
 6072TIP3   OH239630   1.510   0.632   2.441 -0.0222 -0.1359  0.0339
 6072TIP3    H139631   1.570   0.568   2.405  1.2201  1.6398 -1.2220
 6072TIP3    H239632   1.451   0.581   2.497  0.5062 -2.4134 -1.3650
 6073TIP3   OH239633   5.434   0.123  13.084  0.3192 -0.1501 -0.1317
 6073TIP3    H139634   5.471   0.144  12.998 -1.3346  0.1748 -0.8060
 6073TIP3    H239635   5.510   0.114  13.141  1.3907  2.2653 -1.0203
 6074TIP3   OH239636   1.934   2.744  16.409 -0.2378  0.3058 -0.1276
 6074TIP3    H139637   1.839   2.746  16.393  0.0831  1.9722 -2.1839
 6074TIP3    H239638   1.963   2.663  16.368 -0.4486  1.0621 -1.8402
 6075TIP3   OH239639   0.536   1.997   4.566  0.0673 -0.3653  0.2041
 6075TIP3    H139640   0.459   1.941   4.562 -0.0010 -0.2000 -1.7778
 6075TIP3    H239641   0.609   1.939   4.547 -0.0905  0.2354 -2.8678
 6076TIP3   OH239642   3.272   0.839   4.130 -0.1978 -0.4854 -0.0716
 6076TIP3    H139643   3.193   0.791   4.151 -0.3517  0.0692  0.6643
 6076TIP3    H239644   3.241   0.921   4.090  0.0425 -0.7277 -0.7745
 6077TIP3   OH239645   2.364   5.099   6.356  0.2813  0.2933  0.1462
 6077TIP3    H139646   2.297   5.044   6.397  1.0247 -0.2774  0.6327
 6077TIP3    H239647   2.317   5.151   6.291 -0.9749  1.3490  1.8171
 6078TIP3   OH239648   5.062   5.502   0.070 -0.0041 -0.2167  0.0166
 6078TIP3    H139649   5.056   5.429   0.009 -0.1722  0.0073 -0.2339
 6078TIP3    H239650   5.093   5.462   0.152 -1.3357 -0.7934  0.2680
 6079TIP3   OH239651   6.255   2.634   3.119  0.0483 -0.1183 -0.4555
 6079TIP3    H139652   6.181   2.643   3.179 -2.0237 -3.9746 -2.0829
 6079TIP3    H239653   6.294   2.550   3.141  0.6633 -0.5794 -3.0062
 6080TIP3   OH239654   2.603   3.434  12.213 -0.3733  0.0041  0.0146
 6080TIP3    H139655   2.594   3.412  12.306  1.4184 -0.2265  0.1735
 6080TIP3    H239656   2.659   3.365  12.177 -2.1315 -0.6803 -1.5882
 6081TIP3   OH239657   3.686   1.981  16.248 -0.3659  0.1993  0.2807
 6081TIP3    H139658   3.634   2.031  16.184  0.3307  1.2699  0.5293
 6081TIP3    H239659   3.655   1.891  16.238  2.8394 -0.7423 -4.9206
 6082TIP3   OH239660   0.281   4.004  16.056 -0.1989 -0.1970 -0.0531
 6082TIP3    H139661   0.228   4.084  16.050 -0.0293  0.1579  2.2663
 6082TIP3    H239662   0.371   4.035  16.042  0.2111  0.6298  3.4632
 6083TIP3   OH239663   1.494   4.665  14.622 -0.9147  0.0932  0.8468
 6083TIP3    H139664   1.419   4.676  14.563 -0.3600 -0.1525  0.0820
 6083TIP3    H239665   1.465   4.599  14.685 -1.1784 -0.3455  0.2770
 6084TIP3   OH239666   1.147   2.883  16.932 -0.1055 -0.1597  0.4918
 6084TIP3    H139667   1.207   2.914  16.864 -2.0596  0.3621 -1.1243
 6084TIP3    H239668   1.114   2.964  16.973  0.4881 -0.4444  1.5523
 6085TIP3   OH239669   2.644   6.683  16.405  0.1251  0.3712  0.4088
 6085TIP3    H139670   2.719   6.691  16.464  0.1913 -0.1699  0.4041
 6085TIP3    H239671   2.640   6.590  16.384  1.4325  0.8157 -2.2041
 6086TIP3   OH239672   5.967   3.602  13.409 -0.1390  0.3391 -0.1922
 6086TIP3    H139673   5.903   3.585  13.339  1.7148 -3.0042 -1.3315
 6086TIP3    H239674   5.964   3.523  13.463 -0.1098  2.0286  2.4479
 6087TIP3   OH239675   4.459   2.944   1.351  0.4245  0.8914  0.2042
 6087TIP3    H139676   4.549   2.932   1.382  0.5160 -0.2430 -0.4471
 6087TIP3    H239677   4.441   3.037   1.365  0.9623  0.7351  2.2737
 6088TIP3   OH239678   3.673   4.197   5.349  0.7158 -0.1828  0.3405
 6088TIP3    H139679   3.759   4.230   5.323  0.4307  0.1383 -0.2245
 6088TIP3    H239680   3.647   4.139   5.277  0.0847  0.4114  0.0798
 6089TIP3   OH239681   0.712   3.532  12.520 -0.1389  0.0812 -0.4923
 6089TIP3    H139682   0.770   3.482  12.462 -1.3811 -1.1595 -0.7359
 6089TIP3    H239683   0.654   3.579  12.461 -0.4467 -0.0013 -0.2559
 6090TIP3   OH239684   5.883   3.144  10.655 -0.0568 -0.2666 -0.3631
 6090TIP3    H139685   5.966   3.099  10.643 -0.6421 -1.6146  0.4621
 6090TIP3    H239686   5.886   3.217  10.593  0.6280 -1.8300 -2.2718
 6091TIP3   OH239687   5.136   1.564   4.825 -0.2215  0.0852  0.2289
 6091TIP3    H139688   5.146   1.547   4.731  1.4688 -0.9678  0.5607
 6091TIP3    H239689   5.195   1.501   4.867  0.1048  1.4731  1.9348
 6092TIP3   OH239690   2.324   6.361   2.948  0.5903 -0.3426  0.2450
 6092TIP3    H139691   2.267   6.438   2.945  1.3140  0.2047  0.1996
 6092TIP3    H239692   2.310   6.318   2.864  2.3204  1.3553 -1.0126
 6093TIP3   OH239693   4.788   1.680   1.764 -0.5686 -0.3525  0.0445
 6093TIP3    H139694   4.699   1.658   1.735 -0.2019 -0.7924 -0.7833
 6093TIP3    H239695   4.796   1.774   1.746 -0.4620 -0.5515 -1.0088
 6094TIP3   OH239696   1.949   0.120  16.743  0.6962  0.1536  0.6458
 6094TIP3    H139697   1.914   0.186  16.684  1.3204 -0.7906 -0.8262
 6094TIP3    H239698   2.044   0.129  16.738  0.7678 -0.2538  1.1322
 6095TIP3   OH239699   1.787   0.249   2.738  0.2636  0.6107 -0.1951
 6095TIP3    H139700   1.811   0.234   2.646  0.6130 -2.3043  0.2843
 6095TIP3    H239701   1.851   0.314   2.768  1.5442 -0.0179 -1.4419
 6096TIP3   OH239702   0.284   2.718  12.342 -0.9226  0.5568  0.3188
 6096TIP3    H139703   0.239   2.802  12.355 -0.6333  0.5593  1.4530
 6096TIP3    H239704   0.376   2.738  12.359 -1.0308 -0.2697  2.1475
 6097TIP3   OH239705   2.760   1.709  16.675  0.1321  0.3589  0.5486
 6097TIP3    H139706   2.734   1.797  16.647  1.1202 -0.0729 -1.9992
 6097TIP3    H239707   2.838   1.724  16.729  0.3490  1.0585  0.0620
 6098TIP3   OH239708   1.111   0.943  13.356 -0.1353  0.1012  0.5387
 6098TIP3    H139709   1.121   1.019  13.413  1.4491 -1.0700  1.9089
 6098TIP3    H239710   1.039   0.893  13.395  0.0188  0.0067  0.7044
 6099TIP3   OH239711   4.597   4.442   4.366  0.3095 -0.1912 -0.2104
 6099TIP3    H139712   4.527   4.470   4.425  0.6267  0.2021 -0.0180
 6099TIP3    H239713   4.557   4.440   4.280  0.7815  2.9062 -0.5958
 6100TIP3   OH239714   5.389   2.521   2.206 -0.4073  0.0945 -0.5965
 6100TIP3    H139715   5.339   2.547   2.283  1.2373  1.2937  0.1465
 6100TIP3    H239716   5.342   2.446   2.170 -1.7326  0.0944  1.0274
 6101TIP3   OH239717   3.334   3.967  13.501  0.1517 -0.0203 -0.3099
 6101TIP3    H139718   3.365   3.879  13.480 -0.6290 -0.3098 -0.2769
 6101TIP3    H239719   3.284   3.957  13.582  0.2728  0.5022 -0.1611
 6102TIP3   OH239720   4.604   0.015   4.601  0.2068 -0.3272 -0.4736
 6102TIP3    H139721   4.560   0.014   4.516  1.8381 -2.6725 -1.4166
 6102TIP3    H239722   4.618   0.108   4.620 -1.5344  0.3078 -2.0261
 6103TIP3   OH239723   0.297   3.573   4.880 -0.1214  0.0738 -0.0372
 6103TIP3    H139724   0.304   3.478   4.868  2.0819  0.0143  1.1820
 6103TIP3    H239725   0.283   3.584   4.974  0.7938  0.9462  0.0192
 6104TIP3   OH239726   2.543   2.357   2.078 -0.6483 -0.0300  0.4265
 6104TIP3    H139727   2.591   2.303   2.141 -2.0607 -1.2803  0.4802
 6104TIP3    H239728   2.531   2.441   2.122  1.4642  0.3337  0.3945
 6105TIP3   OH239729   0.351   2.002   3.171  0.5222  0.0648  0.1125
 6105TIP3    H139730   0.337   1.945   3.247 -1.3131 -1.5764 -1.3398
 6105TIP3    H239731   0.399   1.947   3.109 -3.8683 -1.3011 -2.5447
 6106TIP3   OH239732   2.347   4.038   3.392 -0.4797 -0.2935  0.6290
 6106TIP3    H139733   2.388   3.967   3.440 -1.5159 -1.7162 -0.5067
 6106TIP3    H239734   2.258   4.042   3.425 -0.8438 -0.4780 -0.2930
 6107TIP3   OH239735   5.300   0.300   4.999  0.2129  0.0250  0.6320
 6107TIP3    H139736   5.352   0.260   5.068 -0.1295 -0.8195  0.4152
 6107TIP3    H239737   5.249   0.367   5.043 -1.4515 -1.7859  1.6058
 6108TIP3   OH239738   2.485   0.500  17.326  0.4203  0.3323 -0.1028
 6108TIP3    H139739   2.447   0.425  17.281  1.8025 -1.1286  1.0687
 6108TIP3    H239740   2.562   0.524  17.274  1.6556 -0.9572  1.0694
 6109TIP3   OH239741   4.237   2.241   0.641 -0.1014  0.2668  0.2784
 6109TIP3    H139742   4.231   2.179   0.569  0.9472 -0.5563  0.8719
 6109TIP3    H239743   4.181   2.205   0.710 -2.9092  2.1704 -0.8223
 6110TIP3   OH239744   6.488   4.439   3.101 -0.4237 -0.4525  0.0661
 6110TIP3    H139745   6.404   4.468   3.065 -0.3866  0.9392  1.0295
 6110TIP3    H239746   6.511   4.362   3.048 -1.5066  0.0998 -1.2795
 6111TIP3   OH239747   3.082   5.517  14.809  0.1815 -0.0052 -0.7594
 6111TIP3    H139748   2.998   5.562  14.816  0.1057 -0.3807  1.0424
 6111TIP3    H239749   3.060   5.429  14.778 -0.5170 -1.1622  2.6495
 6112TIP3   OH239750   1.102   3.046   1.160  0.3990 -0.1235 -0.1951
 6112TIP3    H139751   1.186   3.000   1.166 -0.5868 -2.0687 -0.3330
 6112TIP3    H239752   1.125   3.135   1.135  2.3917 -0.7239 -0.6947
 6113TIP3   OH239753   4.715   5.613   2.231  0.0609 -0.1235 -0.2293
 6113TIP3    H139754   4.739   5.706   2.223 -0.1242  0.1993  2.2823
 6113TIP3    H239755   4.792   5.566   2.200  1.3803  0.9169  1.2806
 6114TIP3   OH239756   6.266   4.077  16.947 -0.1218  0.1636 -0.1181
 6114TIP3    H139757   6.283   4.015  16.876  0.5091 -0.4203  0.5280
 6114TIP3    H239758   6.299   4.033  17.025  0.8844  1.5521  0.2796
 6115TIP3   OH239759   1.358   5.158   5.724 -0.2742  0.4480  0.1810
 6115TIP3    H139760   1.281   5.103   5.743 -0.3046  0.0302 -1.0570
 6115TIP3    H239761   1.362   5.218   5.798 -1.5038  0.1583  0.5247
 6116TIP3   OH239762   0.763   3.584   1.314  0.5737 -0.2456  0.2404
 6116TIP3    H139763   0.694   3.586   1.247  1.1263  1.3910 -0.3519
 6116TIP3    H239764   0.778   3.491   1.331 -1.0068 -0.6525 -0.4076
 6117TIP3   OH239765   3.158   1.931   5.816 -0.0198  0.6410  0.2610
 6117TIP3    H139766   3.114   2.006   5.776  1.1153  1.3933  0.3853
 6117TIP3    H239767   3.251   1.951   5.810  0.4658 -1.7140 -1.5996
 6118TIP3   OH239768   2.817   3.279  14.543  0.0413 -0.2202 -0.0997
 6118TIP3    H139769   2.870   3.325  14.609 -1.4394 -0.5275  1.3678
 6118TIP3    H239770   2.795   3.195  14.584 -1.8744  0.0411 -0.5045
 6119TIP3   OH239771   2.925   2.227  11.315  0.2183  0.0625 -0.1676
 6119TIP3    H139772   2.861   2.167  11.351  1.2503 -0.5573  0.6594
 6119TIP3    H239773   2.982   2.173  11.260  0.5133  0.4665 -0.2713
 6120TIP3   OH239774   3.905   2.821  11.957  0.3345  0.6529  0.0085
 6120TIP3    H139775   3.852   2.864  12.024  0.7106  0.1159  0.6615
 6120TIP3    H239776   3.887   2.870  11.877  0.8321  2.1061  0.7471
 6121TIP3   OH239777   4.769   5.090   6.406  0.0800 -0.4874  0.0137
 6121TIP3    H139778   4.808   5.173   6.433 -3.2795  0.5624  2.3183
 6121TIP3    H239779   4.768   5.094   6.310 -0.7047  2.6132  0.0473
 6122TIP3   OH239780   1.866   5.456  12.039  0.3905 -0.3203  0.4072
 6122TIP3    H139781   1.880   5.412  11.955  0.5358 -1.1200  0.8384
 6122TIP3    H239782   1.771   5.459  12.051  0.3691 -0.1563  0.1892
 6123TIP3   OH239783   5.763   4.624   4.959  0.2282 -0.0585 -0.2297
 6123TIP3    H139784   5.844   4.631   5.009  0.1031 -0.5169  0.0437
 6123TIP3    H239785   5.774   4.685   4.886  0.8900 -0.2592 -0.3014
 6124TIP3   OH239786   0.891   4.000   1.584  0.0693  0.0105  0.2446
 6124TIP3    H139787   0.834   3.931   1.549  0.1053 -0.1424  0.4811
 6124TIP3    H239788   0.971   3.993   1.532  0.0917 -0.1602  0.2996
 6125TIP3   OH239789   1.758   4.145   0.111  0.0697 -0.2746  0.0106
 6125TIP3    H139790   1.679   4.180   0.153 -0.5366 -0.0114 -1.2919
 6125TIP3    H239791   1.828   4.204   0.140  0.0016 -1.0321  1.9000
 6126TIP3   OH239792   3.834   0.945   0.372  0.3570  0.4861 -0.1879
 6126TIP3    H139793   3.811   1.014   0.434  1.8250 -0.2221  1.2246
 6126TIP3    H239794   3.759   0.939   0.314 -0.2056  2.6100  0.2228
 6127TIP3   OH239795   3.974   1.528  14.769  0.4077 -0.2484  0.4785
 6127TIP3    H139796   3.942   1.592  14.706  3.9851 -0.6307 -2.0246
 6127TIP3    H239797   4.045   1.574  14.815  1.0185 -1.4951  0.8062
 6128TIP3   OH239798   4.923   0.735   6.037 -0.2083 -0.6378  0.0060
 6128TIP3    H139799   5.006   0.761   6.076 -0.8421  2.2347 -0.3893
 6128TIP3    H239800   4.875   0.695   6.110  0.7147 -0.4315  0.7573
 6129TIP3   OH239801   1.498   4.881  11.706  0.3504  0.0931 -0.0703
 6129TIP3    H139802   1.480   4.861  11.614 -1.8063  1.2880  0.0067
 6129TIP3    H239803   1.556   4.957  11.702  0.6159 -0.1281 -0.4565
 6130TIP3   OH239804   3.147   5.971   5.159  0.0530  1.0911  0.1548
 6130TIP3    H139805   3.212   6.000   5.094  0.2438  0.9381  0.2746
 6130TIP3    H239806   3.145   6.042   5.223 -0.3038  1.3484 -0.1330
 6131TIP3   OH239807   2.719   3.203  12.124 -0.2027  0.0950 -0.0267
 6131TIP3    H139808   2.649   3.200  12.059 -0.2294 -0.8627  0.0298
 6131TIP3    H239809   2.675   3.185  12.207 -0.2861  1.9855  0.3875
 6132TIP3   OH239810   2.200   6.384  14.476  0.3818 -0.2978  0.1370
 6132TIP3    H139811   2.129   6.410  14.417  0.0376 -1.6416 -0.0640
 6132TIP3    H239812   2.232   6.301  14.441  1.1976 -0.3479  0.9663
 6133TIP3   OH239813   1.213   0.726  11.633 -0.4033 -0.4104  0.1825
 6133TIP3    H139814   1.219   0.818  11.609  1.0940 -0.5001  0.1056
 6133TIP3    H239815   1.150   0.689  11.572 -1.5005  0.6759  0.6261
 6134TIP3   OH239816   5.304   4.243   3.647  0.3125  0.2657 -0.0754
 6134TIP3    H139817   5.325   4.168   3.703  0.4415 -0.3061 -0.8848
 6134TIP3    H239818   5.208   4.250   3.653  0.3781  0.6661  0.7774
 6135TIP3   OH239819   1.736   4.219   4.796 -0.7482  0.0541 -0.3888
 6135TIP3    H139820   1.790   4.203   4.719 -0.6142 -0.2041 -0.2437
 6135TIP3    H239821   1.650   4.241   4.761 -0.5991  0.2880 -0.6179
 6136TIP3   OH239822   2.572   6.377  13.543  0.8541 -0.7539 -0.1029
 6136TIP3    H139823   2.585   6.469  13.565 -1.0797 -0.2900 -0.7557
 6136TIP3    H239824   2.501   6.349  13.600  1.5436 -1.9171  0.2139
 6137TIP3   OH239825   6.476   6.449  16.658  0.0306 -0.4935  0.1366
 6137TIP3    H139826   6.449   6.534  16.692 -2.4461 -0.9086 -0.5709
 6137TIP3    H239827   6.430   6.441  16.575  1.2996 -1.9719 -0.4778
 6138TIP3   OH239828   5.428   2.814   2.463 -0.0693 -0.2282  0.1838
 6138TIP3    H139829   5.385   2.866   2.530 -1.6415 -1.4548  0.1819
 6138TIP3    H239830   5.397   2.850   2.380  0.0208 -0.2167  0.1540
 6139TIP3   OH239831   2.210   6.273   0.031 -0.1396  0.3110  0.0387
 6139TIP3    H139832   2.260   6.333   0.087  0.8033  0.0892 -0.5340
 6139TIP3    H239833   2.180   6.327  -0.042  2.5397 -0.2138 -1.6417
 6140TIP3   OH239834   3.802   1.730  17.160  0.2440 -0.0992 -0.5081
 6140TIP3    H139835   3.872   1.703  17.101  1.4852  1.7644  0.0244
 6140TIP3    H239836   3.766   1.809  17.120 -0.1876  0.0912  0.2389
 6141TIP3   OH239837   2.933   1.717  13.434  0.2790 -0.4234 -0.4995
 6141TIP3    H139838   2.853   1.676  13.466  0.7908 -1.1209 -0.0638
 6141TIP3    H239839   2.958   1.779  13.503 -0.8419  1.1396 -1.4479
 6142TIP3   OH239840   3.150   4.443  14.950  0.1387  0.0156 -0.0443
 6142TIP3    H139841   3.127   4.509  15.015 -1.0006 -0.3610 -0.0567
 6142TIP3    H239842   3.101   4.365  14.975 -1.6008  0.3154 -2.2192
 6143TIP3   OH239843   1.995   4.172  13.897 -0.4833 -0.2670  0.3882
 6143TIP3    H139844   2.030   4.253  13.860 -0.7062 -0.0455  0.6614
 6143TIP3    H239845   1.977   4.192  13.988  0.6223 -0.9863  0.7970
 6144TIP3   OH239846   3.339   0.925   2.380 -0.3530 -0.4687 -0.5111
 6144TIP3    H139847   3.378   0.984   2.316  1.1568 -0.0044  0.7742
 6144TIP3    H239848   3.361   0.838   2.349 -1.2057 -0.3408 -1.5567
 6145TIP3   OH239849   1.322   3.795   1.268 -0.0346 -0.3033 -0.4099
 6145TIP3    H139850   1.240   3.759   1.302 -1.2806  0.9485 -1.8779
 6145TIP3    H239851   1.347   3.734   1.198  0.9142 -1.2700  0.7353
 6146TIP3   OH239852   6.687   6.446  17.343 -0.0849  0.6212 -0.1740
 6146TIP3    H139853   6.734   6.467  17.262  0.9077 -0.3621  0.1230
 6146TIP3    H239854   6.709   6.355  17.361 -0.1075  0.8749  1.3182
 6147TIP3   OH239855   4.015   4.776  14.859  0.2018  0.3301  0.5197
 6147TIP3    H139856   4.008   4.796  14.766  0.0057  1.5659  0.7941
 6147TIP3    H239857   3.981   4.853  14.904 -1.2380 -0.8691  1.6099
 6148TIP3   OH239858   5.804   5.531   2.066  0.5184 -0.5852 -0.5452
 6148TIP3    H139859   5.844   5.585   2.134 -0.3083 -1.2181  0.4652
 6148TIP3    H239860   5.771   5.594   2.002  0.6548  0.0558  0.0016
 6149TIP3   OH239861   4.806   1.530  15.941 -0.6509  0.4858 -0.1013
 6149TIP3    H139862   4.852   1.603  15.901  2.0385 -1.6801 -1.3113
 6149TIP3    H239863   4.836   1.453  15.892 -2.5162 -1.5519  1.7411
 6150TIP3   OH239864   5.818   1.582   1.534 -0.0648 -0.4383  0.0415
 6150TIP3    H139865   5.801   1.528   1.457 -2.1199 -0.1953  0.2826
 6150TIP3    H239866   5.818   1.520   1.607 -0.9052 -0.3270  0.1446
 6151TIP3   OH239867   5.049   3.174  14.428 -0.2594 -0.2674  0.3779
 6151TIP3    H139868   5.128   3.122  14.415 -0.0068  0.0022  0.8089
 6151TIP3    H239869   5.022   3.154  14.518  0.4290  1.1144  0.9307
 6152TIP3   OH239870   6.410   6.445   3.279 -0.4465 -0.9810  0.2573
 6152TIP3    H139871   6.426   6.371   3.220 -1.1042 -0.5726 -0.4624
 6152TIP3    H239872   6.320   6.472   3.259  0.1250  0.6787 -0.2514
 6153TIP3   OH239873   3.969   2.801   5.922 -0.7095 -0.5828  0.8443
 6153TIP3    H139874   3.957   2.888   5.884 -2.3995 -0.7724  0.8695
 6153TIP3    H239875   4.042   2.763   5.872 -1.4503 -0.0131 -0.7615
 6154TIP3   OH239876   4.668   1.147  15.817  0.1962 -0.3896 -1.3066
 6154TIP3    H139877   4.755   1.130  15.781  0.6075 -1.1503 -0.0429
 6154TIP3    H239878   4.682   1.146  15.912 -0.9895  0.6362 -1.0916
 6155TIP3   OH239879   6.162   2.965   5.757  0.1476  0.0435  0.7387
 6155TIP3    H139880   6.190   3.054   5.736 -0.4664 -0.0493 -0.5785
 6155TIP3    H239881   6.222   2.909   5.708 -1.5070 -0.1772 -1.1355
 6156TIP3   OH239882   2.296   1.262   1.950  0.0850  0.0793 -0.1422
 6156TIP3    H139883   2.253   1.326   2.007  0.7753 -0.1244  0.6181
 6156TIP3    H239884   2.234   1.250   1.877  0.8924  3.3542 -1.5627
 6157TIP3   OH239885   6.587   0.657  13.704 -0.2159 -0.0880  0.2277
 6157TIP3    H139886   6.564   0.749  13.708 -2.5690 -0.6368  1.1498
 6157TIP3    H239887   6.642   0.642  13.781 -0.4364  0.3947  0.4804
 6158TIP3   OH239888   6.260   6.712  16.508  1.0789  0.0276  0.3887
 6158TIP3    H139889   6.280   6.646  16.442  0.9239  1.0094 -0.6894
 6158TIP3    H239890   6.327   6.701  16.575  0.6395 -1.6461  0.5799
 6159TIP3   OH239891   4.415   0.912   0.682  0.0811 -0.6541 -0.1825
 6159TIP3    H139892   4.493   0.879   0.639  0.4848 -1.1369  0.9023
 6159TIP3    H239893   4.366   0.956   0.612  1.5613  0.1141 -0.7726
 6160TIP3   OH239894   3.699   1.465  13.820  0.5710  0.0352 -0.8481
 6160TIP3    H139895   3.666   1.524  13.752 -3.3280  2.8888  3.0464
 6160TIP3    H239896   3.628   1.404  13.836  0.1333  1.1942  2.3506
 6161TIP3   OH239897   3.857   3.838   1.542 -0.1325  0.3222 -0.1673
 6161TIP3    H139898   3.786   3.892   1.506  0.3949  0.6438 -0.7293
 6161TIP3    H239899   3.902   3.804   1.465 -1.1217 -1.8450  0.1307
 6162TIP3   OH239900   2.860   2.174   0.945  0.0837 -1.1877  0.3338
 6162TIP3    H139901   2.772   2.171   0.983 -0.0104  1.4253  0.5373
 6162TIP3    H239902   2.914   2.125   1.007 -0.5041  0.8627  2.6255
 6163TIP3   OH239903   1.026   2.942   0.807  0.1091  0.0819  0.2494
 6163TIP3    H139904   0.966   3.015   0.817 -2.0720 -1.5758 -0.0196
 6163TIP3    H239905   1.013   2.912   0.717  0.5567 -0.9626  0.5098
 6164TIP3   OH239906   2.469   4.081   2.792  0.4375 -0.4840 -0.3370
 6164TIP3    H139907   2.481   3.990   2.819 -0.4379 -1.1265 -1.9562
 6164TIP3    H239908   2.405   4.077   2.721  0.6338  1.3682 -0.6833
 6165TIP3   OH239909   4.497   5.109  17.254  0.4106 -0.4744 -0.0656
 6165TIP3    H139910   4.483   5.194  17.214  2.2691  0.0835  0.4003
 6165TIP3    H239911   4.449   5.113  17.337 -0.4163 -0.3119 -0.5376
 6166TIP3   OH239912   4.712   0.327   5.910  0.5893 -0.1111  0.4879
 6166TIP3    H139913   4.793   0.350   5.955  1.5160 -1.1349 -0.5877
 6166TIP3    H239914   4.729   0.344   5.817 -1.4018  2.3015  0.4528
 6167TIP3   OH239915   5.596   2.690  15.847  0.0697 -0.5112 -0.2781
 6167TIP3    H139916   5.649   2.611  15.859 -0.3831 -0.7023  0.5038
 6167TIP3    H239917   5.508   2.665  15.874  0.0221  0.3967  0.4623
 6168TIP3   OH239918   3.231   5.566  15.577 -0.4164 -1.0203  0.8622
 6168TIP3    H139919   3.156   5.527  15.623  0.6054 -1.2660  2.4073
 6168TIP3    H239920   3.294   5.494  15.568  0.1458 -0.5240  0.7320
 6169TIP3   OH239921   0.609   2.130  15.171  0.3171  0.1158  0.2004
 6169TIP3    H139922   0.600   2.225  15.183 -1.2913 -0.1337  1.4186
 6169TIP3    H239923   0.531   2.105  15.123  0.6373 -0.6272  0.0613
 6170TIP3   OH239924   3.814   3.966  14.333  0.2292 -0.0653 -0.0617
 6170TIP3    H139925   3.742   3.998  14.278  0.4152 -0.2984 -0.4451
 6170TIP3    H239926   3.781   3.883  14.369  0.7474 -0.8021 -1.2103
 6171TIP3   OH239927   6.715   6.297   1.016  0.3665 -0.2826  0.6339
 6171TIP3    H139928   6.623   6.307   0.995  0.7135  0.7461 -0.4757
 6171TIP3    H239929   6.738   6.209   0.984  0.2926  0.3181 -1.1662
 6172TIP3   OH239930   1.412   3.654   5.564  0.0082 -0.1126  0.2643
 6172TIP3    H139931   1.495   3.608   5.573 -0.1268 -0.6621 -1.0974
 6172TIP3    H239932   1.422   3.708   5.485 -0.9081 -0.1601  0.1021
 6173TIP3   OH239933   4.716   3.604   6.038  0.6038  0.1160 -0.4793
 6173TIP3    H139934   4.634   3.654   6.039  0.2434 -0.4317  1.1707
 6173TIP3    H239935   4.753   3.617   6.125  0.3751 -2.6331  0.1264
 6174TIP3   OH239936   3.391   2.590   2.852 -0.2326  0.2960  0.6683
 6174TIP3    H139937   3.298   2.594   2.872 -0.7945 -2.6101 -0.8543
 6174TIP3    H239938   3.395   2.551   2.765  2.4142 -1.7700  1.5774
 6175TIP3   OH239939   3.183   0.717   2.786  0.3817  0.5178  0.3232
 6175TIP3    H139940   3.182   0.738   2.879 -2.3558  0.5029  0.3862
 6175TIP3    H239941   3.095   0.683   2.769  1.0486 -0.1518 -2.1333
 6176TIP3   OH239942   3.168   0.178   5.345 -0.3784  0.0442 -0.1360
 6176TIP3    H139943   3.190   0.179   5.252  1.3690  0.8098  0.2378
 6176TIP3    H239944   3.114   0.256   5.358  0.1927  0.4765 -0.3373
 6177TIP3   OH239945   6.512   0.590  12.947 -0.0491  0.6564 -0.1864
 6177TIP3    H139946   6.425   0.598  12.907 -0.5939  1.0435  1.0287
 6177TIP3    H239947   6.504   0.517  13.007  0.4037  0.8256  0.0833
 6178TIP3   OH239948   1.780   0.157  13.466 -0.8183  0.1072  0.0036
 6178TIP3    H139949   1.839   0.099  13.418  1.8711  0.7426  2.2640
 6178TIP3    H239950   1.839   0.218  13.512 -3.3652  2.2264  0.7029
 6179TIP3   OH239951   1.401   2.040   3.607  0.0570  0.5567  0.6083
 6179TIP3    H139952   1.456   2.118   3.597  0.4560  0.3635  1.2408
 6179TIP3    H239953   1.336   2.048   3.537  1.0017  0.6977 -0.2959
 6180TIP3   OH239954   2.763   4.783   0.854 -0.2457 -0.0523  0.2795
 6180TIP3    H139955   2.763   4.688   0.857  1.5482 -0.0652  1.0402
 6180TIP3    H239956   2.840   4.806   0.801 -1.2827  0.9832 -0.8571
 6181TIP3   OH239957   0.957   1.906  13.851  0.2321 -0.1291 -0.5892
 6181TIP3    H139958   1.034   1.962  13.844  0.3577 -0.3817 -1.2734
 6181TIP3    H239959   0.992   1.820  13.871 -0.0153  0.2016  1.4220
 6182TIP3   OH239960   1.085   5.665  15.844 -0.4160 -0.0759 -0.0637
 6182TIP3    H139961   1.022   5.734  15.868 -1.6578 -2.1696  3.3526
 6182TIP3    H239962   1.168   5.694  15.882 -0.9784 -0.5103  1.5398
 6183TIP3   OH239963   0.038   2.315  13.798 -0.6521 -0.3672  0.0995
 6183TIP3    H139964  -0.034   2.251  13.804 -1.5562  0.6457  0.4337
 6183TIP3    H239965  -0.003   2.394  13.763  0.3770  0.1385  0.0063
 6184TIP3   OH239966   0.948   2.880  13.605  0.3811  0.3125 -0.4619
 6184TIP3    H139967   0.972   2.951  13.664 -0.7451 -0.1755  0.6131
 6184TIP3    H239968   1.032   2.842  13.578  0.9131  0.3033  1.1307
 6185TIP3   OH239969   3.774   5.637   3.635 -0.0784 -0.4712  0.2178
 6185TIP3    H139970   3.686   5.675   3.626  0.5478  1.0434  0.2087
 6185TIP3    H239971   3.811   5.679   3.712  1.3271  0.3445 -0.8609
 6186TIP3   OH239972   5.524   6.032  15.105  0.2202  0.2901 -0.2490
 6186TIP3    H139973   5.478   5.974  15.044  0.7295 -1.5690  1.0387
 6186TIP3    H239974   5.536   5.978  15.184 -0.7636  2.6905  1.6634
 6187TIP3   OH239975   1.223   6.091  15.369 -0.3185 -0.4544 -0.6440
 6187TIP3    H139976   1.217   6.029  15.296 -1.4000  0.0398 -0.9932
 6187TIP3    H239977   1.315   6.087  15.396  0.0206 -0.8995 -1.8015
 6188TIP3   OH239978   6.237   0.415   0.264  0.0572  0.3882 -0.8713
 6188TIP3    H139979   6.297   0.343   0.281  0.7649  0.9759 -0.8264
 6188TIP3    H239980   6.245   0.472   0.341 -0.7486  0.3448 -0.7495
 6189TIP3   OH239981   0.744   4.900  12.830 -0.0430 -0.0332 -0.3424
 6189TIP3    H139982   0.830   4.881  12.793  0.5694 -0.0346  1.0165
 6189TIP3    H239983   0.753   4.985  12.872 -0.6817 -0.0598 -0.1286
 6190TIP3   OH239984   1.934   6.196   5.372 -0.1989 -0.0848  0.1751
 6190TIP3    H139985   2.013   6.156   5.337 -1.6121 -0.7789 -2.5273
 6190TIP3    H239986   1.930   6.166   5.463  2.9021  0.5038  0.5878
 6191TIP3   OH239987   4.842   3.325   5.514  0.1684 -0.0516  0.2048
 6191TIP3    H139988   4.890   3.258   5.465  1.2014  0.5100  0.4188
 6191TIP3    H239989   4.799   3.377   5.447  1.2679  0.4838 -0.1108
 6192TIP3   OH239990   2.259   2.938  14.497 -0.0582  0.6380  0.1309
 6192TIP3    H139991   2.255   2.847  14.470  0.4433  0.3326  1.0423
 6192TIP3    H239992   2.188   2.981  14.450 -0.9676 -0.4322  0.5073
 6193TIP3   OH239993   3.212   4.161  13.377 -0.3518  0.0394 -0.3705
 6193TIP3    H139994   3.267   4.094  13.419  0.3925  0.0546 -1.2870
 6193TIP3    H239995   3.137   4.170  13.436  1.2712  1.0458  1.6781
 6194TIP3   OH239996   0.399   4.340   5.932  0.4197  0.6226 -0.2136
 6194TIP3    H139997   0.415   4.418   5.984 -0.2032  0.3519  0.3898
 6194TIP3    H239998   0.347   4.371   5.857 -2.3144  0.3970  1.4486
 6195TIP3   OH239999   3.814   5.986  15.970 -0.1790  0.3529 -0.1428
 6195TIP3    H140000   3.725   5.980  15.934  0.2584  0.3054 -1.2615
 6195TIP3    H240001   3.838   5.895  15.987  0.2373  0.2064 -1.3732
 6196TIP3   OH240002   3.047   1.335   1.756  0.2189 -0.5973 -0.1504
 6196TIP3    H140003   3.104   1.306   1.826  1.5393 -1.1591 -1.4136
 6196TIP3    H240004   3.069   1.427   1.743  1.7239 -1.0724 -1.3666
 6197TIP3   OH240005   2.869   6.172   1.278  0.2903 -0.0106  0.2093
 6197TIP3    H140006   2.803   6.106   1.256  0.6768 -0.6192  0.8121
 6197TIP3    H240007   2.908   6.195   1.194  0.1527 -0.5619 -0.0126
 6198TIP3   OH240008   0.204   5.866  14.941  0.3111 -0.0184 -0.2402
 6198TIP3    H140009   0.131   5.910  14.984 -0.3502  0.1455 -1.4802
 6198TIP3    H240010   0.179   5.773  14.940 -1.1657  0.3100 -2.9360
 6199TIP3   OH240011   3.433   0.894   5.620  0.3968 -0.1487 -0.2093
 6199TIP3    H140012   3.382   0.814   5.609 -0.6502  0.4224  0.3126
 6199TIP3    H240013   3.393   0.938   5.695 -0.7410  2.0933 -1.9852
 6200TIP3   OH240014   4.456   4.543   0.579 -0.0866 -0.4779 -0.1864
 6200TIP3    H140015   4.367   4.509   0.590  0.1532 -0.6341  1.5031
 6200TIP3    H240016   4.453   4.630   0.618  0.1895  0.0406 -1.3008
 6201TIP3   OH240017   3.884   4.229  16.754  0.8982  0.2230 -0.0245
 6201TIP3    H140018   3.865   4.316  16.719  0.6165  0.4452  0.6642
 6201TIP3    H240019   3.978   4.218  16.738  0.5257 -0.2813 -2.1094
 6202TIP3   OH240020   0.764   3.390   5.300 -0.1291 -0.2732 -0.3931
 6202TIP3    H140021   0.709   3.390   5.221  0.9135 -2.9536 -1.2619
 6202TIP3    H240022   0.702   3.373   5.371 -0.7824 -0.5356 -1.0031
 6203TIP3   OH240023   6.060   3.852  13.554 -0.0841  0.6550 -0.5095
 6203TIP3    H140024   6.003   3.791  13.508 -0.4716  0.5523  0.0968
 6203TIP3    H240025   6.119   3.797  13.604 -0.9163  0.7579  0.6266
 6204TIP3   OH240026   0.755   0.195   1.522  0.0260 -0.5378 -0.8186
 6204TIP3    H140027   0.822   0.163   1.462  1.1935  0.5395 -0.1331
 6204TIP3    H240028   0.803   0.249   1.585 -1.5539  0.6728 -0.5938
 6205TIP3   OH240029   5.389   4.529  14.501 -0.5154  0.1440 -0.5273
 6205TIP3    H140030   5.412   4.436  14.506  0.6221  0.4772  0.9935
 6205TIP3    H240031   5.325   4.541  14.571  0.2446  0.7385  0.0770
 6206TIP3   OH240032   4.577   3.704   0.603  0.3399 -0.1891  0.1470
 6206TIP3    H140033   4.606   3.680   0.515  0.3404  0.8547 -0.1565
 6206TIP3    H240034   4.635   3.776   0.629  0.6758 -0.8230  1.2233
 6207TIP3   OH240035   1.119   0.283   4.881  0.8738 -0.3306 -0.4084
 6207TIP3    H140036   1.130   0.207   4.938  0.4252 -0.2697 -0.2318
 6207TIP3    H240037   1.048   0.258   4.821  1.2944 -0.3682 -0.8966
 6208TIP3   OH240038   5.192   3.564  17.103 -0.8220  0.6937  0.1334
 6208TIP3    H140039   5.271   3.569  17.049 -0.3944  1.1004  0.7728
 6208TIP3    H240040   5.175   3.470  17.111 -0.9497  0.6297 -0.7668
 6209TIP3   OH240041   0.345   3.365   0.786 -0.7723 -0.0769  0.5677
 6209TIP3    H140042   0.272   3.427   0.781 -0.3021  0.5071  0.8257
 6209TIP3    H240043   0.329   3.304   0.714 -1.5813 -0.0299  0.6963
 6210TIP3   OH240044   0.630   1.819   3.318  0.0379  0.0587  0.2303
 6210TIP3    H140045   0.710   1.766   3.312 -0.7349 -0.9931 -1.2324
 6210TIP3    H240046   0.590   1.813   3.232 -0.2825  2.7933  0.0993
 6211TIP3   OH240047   1.849   3.950  11.952  0.6337 -0.1888  0.2570
 6211TIP3    H140048   1.889   3.972  12.037 -0.2615 -0.4660  0.7684
 6211TIP3    H240049   1.905   3.881  11.917  0.5676 -0.6402  1.0072
 6212TIP3   OH240050   0.551   6.493   2.344  0.0032 -0.3384 -0.2275
 6212TIP3    H140051   0.497   6.572   2.342 -0.2315 -0.4905  0.0124
 6212TIP3    H240052   0.531   6.448   2.262 -0.3996 -0.5014 -0.0423
 6213TIP3   OH240053   3.239   2.920  13.108 -0.2151  0.1546 -0.3551
 6213TIP3    H140054   3.157   2.968  13.116 -0.1810  0.5985 -2.1873
 6213TIP3    H240055   3.244   2.895  13.015  1.8382  0.4001 -0.3725
 6214TIP3   OH240056   2.736   1.379   4.441  0.0654  0.0169 -0.0316
 6214TIP3    H140057   2.742   1.467   4.403 -0.2070  0.2561  0.4575
 6214TIP3    H240058   2.817   1.336   4.416 -0.2440  0.0553 -1.1418
 6215TIP3   OH240059   5.608   6.465   4.167 -0.8774 -0.0900 -0.1475
 6215TIP3    H140060   5.575   6.386   4.124 -1.9705  1.0182 -1.4577
 6215TIP3    H240061   5.701   6.446   4.184 -1.5662 -2.3868  1.4476
 6216TIP3   OH240062   3.429   3.219   2.431  0.3396 -0.3976  0.5989
 6216TIP3    H140063   3.521   3.194   2.443  0.6252 -0.4250 -1.4150
 6216TIP3    H240064   3.425   3.310   2.462  1.4150  0.1256 -0.7093
 6217TIP3   OH240065   3.884   5.988  14.902 -0.2576  0.0996 -0.2141
 6217TIP3    H140066   3.858   5.905  14.942  0.2773  0.2516  0.4591
 6217TIP3    H240067   3.801   6.033  14.885 -0.5277 -0.3408 -0.0901
 6218TIP3   OH240068   3.146   1.163   1.237 -0.6016  0.3140 -0.6505
 6218TIP3    H140069   3.151   1.168   1.333  3.0000 -1.0001 -0.6316
 6218TIP3    H240070   3.185   1.245   1.207  1.1627 -0.5774 -0.9001
 6219TIP3   OH240071   0.374   2.430   5.968 -0.4447 -0.2125 -0.1841
 6219TIP3    H140072   0.399   2.354   6.021 -0.9251  0.0281  0.3944
 6219TIP3    H240073   0.456   2.458   5.927  0.4237  0.9323  2.1512
 6220TIP3   OH240074   6.140   2.804   3.818 -0.5794 -0.0657 -0.4706
 6220TIP3    H140075   6.122   2.879   3.761  0.1901 -1.0272 -2.0775
 6220TIP3    H240076   6.108   2.729   3.768  1.7089 -1.1316 -0.4566
 6221TIP3   OH240077   2.015   4.989  15.299  0.3270  0.4293 -0.3238
 6221TIP3    H140078   2.100   5.029  15.317 -0.8810  2.2563  1.8434
 6221TIP3    H240079   1.988   4.950  15.382 -0.7198 -0.6343 -1.1242
 6222TIP3   OH240080   5.834   3.123   2.514 -0.3023  0.0379  0.0929
 6222TIP3    H140081   5.891   3.198   2.534  1.3774 -0.7162 -1.5176
 6222TIP3    H240082   5.746   3.161   2.509  0.5154  1.9659 -0.8301
 6223TIP3   OH240083   1.376   0.138  15.697 -0.3379  0.0144 -0.1351
 6223TIP3    H140084   1.416   0.084  15.629 -0.3488  1.0377 -0.9881
 6223TIP3    H240085   1.327   0.077  15.751  0.9570 -1.0320 -0.1052
 6224TIP3   OH240086   6.126   4.455   3.302  0.0176 -0.1587  0.4361
 6224TIP3    H140087   6.109   4.513   3.228  2.3595 -0.0802 -0.1501
 6224TIP3    H240088   6.075   4.376   3.284 -2.3044  1.2188  0.6624
 6225TIP3   OH240089   4.204   4.475   5.319 -0.6447  0.2950 -0.3440
 6225TIP3    H140090   4.273   4.524   5.274  0.1786  1.5076  2.0309
 6225TIP3    H240091   4.136   4.541   5.336 -0.0083  0.4389  1.9359
 6226TIP3   OH240092   5.451   1.451   4.208 -0.5729 -0.1066  0.1263
 6226TIP3    H140093   5.478   1.455   4.117  0.1657 -0.8320  0.3006
 6226TIP3    H240094   5.357   1.469   4.206 -0.4546  0.4812 -0.7033
 6227TIP3   OH240095   2.269   0.457  11.700  0.0138  0.3199  0.3470
 6227TIP3    H140096   2.325   0.438  11.775 -1.4409 -2.1619  0.9328
 6227TIP3    H240097   2.326   0.444  11.624  0.4551 -1.5406  0.9389
 6228TIP3   OH240098   3.541   4.373   3.760 -0.0890  0.3322  0.1785
 6228TIP3    H140099   3.483   4.302   3.789 -1.8017  1.1967 -0.9209
 6228TIP3    H240100   3.620   4.328   3.729 -1.6104 -1.2663 -1.6505
 6229TIP3   OH240101   4.043   2.902  15.994  0.1768  0.4012 -0.3894
 6229TIP3    H140102   3.998   2.847  15.930  0.5943  0.8851 -1.1143
 6229TIP3    H240103   4.108   2.949  15.943  0.6012  0.7058  0.4228
 6230TIP3   OH240104   1.559   3.805  15.556 -0.6853 -0.0151  0.2499
 6230TIP3    H140105   1.625   3.836  15.494 -0.3076  0.6578  0.9715
 6230TIP3    H240106   1.481   3.791  15.502 -0.6629  1.5136 -0.2381
 6231TIP3   OH240107   1.196   1.799   5.239  0.0894  0.4267  0.3091
 6231TIP3    H140108   1.263   1.795   5.171 -0.3360  0.9056 -0.1403
 6231TIP3    H240109   1.246   1.803   5.321  0.6188  1.4816 -0.0532
 6232TIP3   OH240110   0.033   5.415  14.549 -0.7556 -0.4144  0.3541
 6232TIP3    H140111  -0.007   5.328  14.556 -1.3924 -0.1434  0.1465
 6232TIP3    H240112  -0.041   5.475  14.538 -0.2554 -0.0062 -1.0344
 6233TIP3   OH240113   4.913   5.637   2.796  0.1451 -0.4589  0.4971
 6233TIP3    H140114   5.004   5.647   2.768 -0.4975  2.4223 -0.9573
 6233TIP3    H240115   4.918   5.588   2.878  3.2247  1.3800  1.5624
 6234TIP3   OH240116   4.850   4.906   0.839 -0.3191  0.3674 -0.5362
 6234TIP3    H140117   4.925   4.920   0.897 -0.4924  0.1163 -0.2513
 6234TIP3    H240118   4.795   4.984   0.850 -0.4527  0.2257 -0.2140
 6235TIP3   OH240119   1.075   6.591  12.589 -0.1263 -0.0273  0.0410
 6235TIP3    H140120   0.986   6.572  12.559 -0.0788 -1.6284  0.8199
 6235TIP3    H240121   1.104   6.664  12.534 -1.1737 -0.7945 -1.5928
 6236TIP3   OH240122   4.904   5.992   1.265 -0.0611 -0.0214  0.1525
 6236TIP3    H140123   4.872   6.009   1.176  0.1640  2.7594  0.5244
 6236TIP3    H240124   4.825   5.988   1.319 -0.1234 -0.2767  0.0445
 6237TIP3   OH240125   1.386   4.042   4.793 -0.5366 -0.3013 -0.2734
 6237TIP3    H140126   1.417   4.131   4.776 -0.5523 -0.2281  0.0828
 6237TIP3    H240127   1.294   4.052   4.818 -0.1042 -0.2386  1.4436
 6238TIP3   OH240128   4.441   6.193   5.140 -0.3674  0.1075  0.6535
 6238TIP3    H140129   4.534   6.214   5.125 -0.9265  2.4472  0.0363
 6238TIP3    H240130   4.402   6.198   5.053 -0.8555 -2.5548  0.6239
 6239TIP3   OH240131   4.430   2.218  15.219 -0.4903 -0.1738 -0.0147
 6239TIP3    H140132   4.418   2.313  15.212 -0.1076 -0.2110 -1.6067
 6239TIP3    H240133   4.345   2.182  15.196 -0.9208 -0.2326  1.5454
 6240TIP3   OH240134   3.522   4.365  15.905 -0.1824 -0.3608 -0.1044
 6240TIP3    H140135   3.581   4.364  15.980 -0.3671 -0.6713  0.0418
 6240TIP3    H240136   3.442   4.406  15.939 -1.0447 -2.3976  0.4907
 6241TIP3   OH240137   2.036   4.970   1.913  0.4937 -0.3950  0.1863
 6241TIP3    H140138   1.999   5.058   1.900 -1.8604 -1.3903 -0.5087
 6241TIP3    H240139   2.108   4.964   1.851  0.0923  0.7466 -0.4161
 6242TIP3   OH240140   0.644   3.780   5.139 -0.5635 -0.2957  0.1149
 6242TIP3    H140141   0.586   3.765   5.064  0.2047 -3.2383  0.0024
 6242TIP3    H240142   0.586   3.779   5.215 -0.9764 -0.4963 -0.2001
 6243TIP3   OH240143   0.562   4.235   4.098 -0.1496  0.2273 -0.2982
 6243TIP3    H140144   0.538   4.160   4.042 -0.4669  0.4120 -0.4170
 6243TIP3    H240145   0.493   4.237   4.165  0.5864 -0.3881  0.4960
 6244TIP3   OH240146   4.555   2.507  10.942 -0.0060 -0.6445  0.2755
 6244TIP3    H140147   4.543   2.600  10.921 -0.1438 -0.2265  2.0602
 6244TIP3    H240148   4.626   2.479  10.885  0.0459  0.5621 -0.2903
 6245TIP3   OH240149   0.332   0.851  16.155  0.1624  0.2182  0.3324
 6245TIP3    H140150   0.257   0.908  16.136  0.0761 -0.1377 -0.4393
 6245TIP3    H240151   0.409   0.906  16.139  0.1551 -0.5053 -2.8164
 6246TIP3   OH240152   3.213   5.437   5.243  0.2627 -0.4394 -0.0512
 6246TIP3    H140153   3.256   5.377   5.304 -0.0017  0.6398  1.2553
 6246TIP3    H240154   3.145   5.385   5.200 -0.8894 -0.7842  2.0666
 6247TIP3   OH240155   0.457   4.842  12.752 -0.6194  0.4760 -0.0706
 6247TIP3    H140156   0.519   4.909  12.780 -1.9866  2.2272 -1.0107
 6247TIP3    H240157   0.509   4.782  12.698  0.3677  1.6045 -0.4258
 6248TIP3   OH240158   0.239   5.505   3.922 -0.5666 -0.4794  0.0916
 6248TIP3    H140159   0.281   5.421   3.902  1.7426 -0.2074  3.1019
 6248TIP3    H240160   0.148   5.482   3.942 -0.0580 -2.2450  0.5454
 6249TIP3   OH240161   3.321   0.840  13.719 -0.1270 -0.5771  0.1536
 6249TIP3    H140162   3.266   0.766  13.745 -0.1245 -0.1152  1.5362
 6249TIP3    H240163   3.322   0.898  13.795  2.7241 -0.8293  0.4012
 6250TIP3   OH240164   2.825   1.160   2.879  1.0761 -0.1018  0.3372
 6250TIP3    H140165   2.730   1.167   2.889  0.7738 -1.1765 -1.3427
 6250TIP3    H240166   2.860   1.189   2.963 -0.7606 -0.2657  1.2150
 6251TIP3   OH240167   3.783   5.733   4.821 -0.2836 -0.6109  0.0131
 6251TIP3    H140168   3.711   5.736   4.884  0.7340 -2.4511  1.3544
 6251TIP3    H240169   3.859   5.706   4.872  1.0374 -0.2374 -1.6646
 6252TIP3   OH240170   0.122   3.339   2.861 -0.3192 -0.0360 -0.0293
 6252TIP3    H140171   0.028   3.323   2.864 -0.3694  0.3964  2.3825
 6252TIP3    H240172   0.132   3.413   2.801 -1.3671 -0.7469 -1.1267
 6253TIP3   OH240173   4.130   2.055  16.211 -0.3266 -0.0141  0.6273
 6253TIP3    H140174   4.092   1.978  16.252 -1.1202 -0.1001 -0.2459
 6253TIP3    H240175   4.057   2.114  16.196  0.0464  0.3065 -0.0116
 6254TIP3   OH240176   4.200   1.647  10.417 -0.2301 -0.7984 -0.4846
 6254TIP3    H140177   4.284   1.668  10.376 -0.3844 -0.5968 -0.7003
 6254TIP3    H240178   4.188   1.716  10.483 -0.1213 -0.9557 -0.2977
 6255TIP3   OH240179   3.251   1.297  14.229 -0.1908 -0.3084  0.1437
 6255TIP3    H140180   3.271   1.217  14.181  0.9791  0.5076 -0.7670
 6255TIP3    H240181   3.238   1.268  14.320 -1.2456 -1.7036 -0.4212
 6256TIP3   OH240182   3.672   5.279  15.591 -0.7652  1.2121  0.1285
 6256TIP3    H140183   3.719   5.200  15.566 -2.9625 -0.7925  1.8092
 6256TIP3    H240184   3.622   5.303  15.514  0.0845  1.0889 -0.4700
 6257TIP3   OH240185   2.111   0.145  13.396 -0.4356 -0.3353 -0.2340
 6257TIP3    H140186   2.197   0.177  13.370 -0.2359  0.0053  0.8011
 6257TIP3    H240187   2.119   0.128  13.490 -1.5332 -0.1866 -0.1040
 6258TIP3   OH240188   6.263   3.031  14.487 -0.4751 -0.7728 -0.3287
 6258TIP3    H140189   6.172   3.003  14.491 -0.3472 -1.0755  0.8600
 6258TIP3    H240190   6.304   2.972  14.424 -0.6961 -1.9054  0.5413
 6259TIP3   OH240191   1.230   1.325  11.713  0.4508 -0.0133  0.3281
 6259TIP3    H140192   1.136   1.313  11.728 -0.2945  1.2513 -2.6719
 6259TIP3    H240193   1.260   1.239  11.683 -0.3829  0.2455 -1.3260
 6260TIP3   OH240194   0.232   2.440  11.852  0.7827 -0.4556 -0.5480
 6260TIP3    H140195   0.271   2.373  11.795 -1.9122 -2.7298  0.0706
 6260TIP3    H240196   0.171   2.392  11.907 -3.0112  2.7526 -1.5240
 6261TIP3   OH240197   3.442   1.510   2.881 -0.0480 -0.7179  0.3098
 6261TIP3    H140198   3.442   1.580   2.948 -0.6277  0.7932 -1.1918
 6261TIP3    H240199   3.457   1.556   2.799 -0.0927 -2.4440 -0.6971
 6262TIP3   OH240200   4.882   1.948   3.613 -0.2616 -0.0918  0.3662
 6262TIP3    H140201   4.947   2.017   3.630  1.1186 -0.7627 -1.7310
 6262TIP3    H240202   4.836   1.978   3.534 -0.7355 -0.8324  0.3542
 6263TIP3   OH240203   1.291   6.411  13.181 -0.0952 -0.2657 -0.0795
 6263TIP3    H140204   1.345   6.393  13.258  0.3432 -0.5497 -0.4458
 6263TIP3    H240205   1.354   6.427  13.111 -0.4742 -1.2160 -0.6536
 6264TIP3   OH240206   5.439   1.321   1.337 -0.3104  0.2822  0.5745
 6264TIP3    H140207   5.484   1.397   1.374 -0.1183 -0.1738  1.2917
 6264TIP3    H240208   5.347   1.347   1.333 -0.0890  0.9679 -0.2569
 6265TIP3   OH240209   2.736   4.275   0.035 -0.1931  0.4262  0.2886
 6265TIP3    H140210   2.741   4.228  -0.049 -1.0187 -0.8560  0.9286
 6265TIP3    H240211   2.668   4.341   0.021 -0.4550  0.1007 -0.0024
 6266TIP3   OH240212   4.418   4.623   5.786 -0.7890  0.3711  0.2846
 6266TIP3    H140213   4.447   4.685   5.719  1.6790 -0.4397  0.4962
 6266TIP3    H240214   4.365   4.559   5.739 -1.2616  1.2397 -0.3896
 6267TIP3   OH240215   3.299   6.436  16.669  0.2156 -0.0718 -0.1601
 6267TIP3    H140216   3.347   6.507  16.711  2.2675 -0.9406 -0.9045
 6267TIP3    H240217   3.218   6.428  16.721  1.3606  0.7122  1.8740
 6268TIP3   OH240218   6.503   1.871   5.922  0.1470  0.5120 -0.1196
 6268TIP3    H140219   6.465   1.905   5.841  0.5329 -0.0757 -0.5545
 6268TIP3    H240220   6.568   1.808   5.894 -0.0369 -0.0439  0.6622
 6269TIP3   OH240221   3.067   3.738   2.127  0.4161  0.0337 -0.0427
 6269TIP3    H140222   2.983   3.738   2.173 -0.4439  0.9329 -1.5356
 6269TIP3    H240223   3.118   3.670   2.171 -1.4023 -1.1622  0.3557
 6270TIP3   OH240224   4.934   6.086   6.111  0.3982 -0.1520  0.4534
 6270TIP3    H140225   4.972   6.059   6.194  1.0912 -1.5091 -0.2685
 6270TIP3    H240226   4.906   6.176   6.125  1.5207  0.0144  1.8169
 6271TIP3   OH240227   5.073   6.003  17.289  0.3655 -0.4070  0.4941
 6271TIP3    H140228   4.987   5.972  17.318  0.5883 -0.5490  1.0245
 6271TIP3    H240229   5.109   5.929  17.241  0.4603 -0.5930  0.8461
 6272TIP3   OH240230   4.899   1.601   4.660 -0.9142 -0.8536  0.6105
 6272TIP3    H140231   4.827   1.590   4.722 -0.7251 -0.7117  0.8596
 6272TIP3    H240232   4.977   1.608   4.715 -0.8199 -0.0720  0.3947
 6273TIP3   OH240233   5.343   1.724  15.914  0.0849 -0.3876 -0.3974
 6273TIP3    H140234   5.393   1.668  15.854 -0.3055 -0.8540 -0.2987
 6273TIP3    H240235   5.310   1.795  15.859 -1.7398 -1.7339 -1.1549
 6274TIP3   OH240236   0.855   4.153  12.494  0.0787 -0.6594 -0.0267
 6274TIP3    H140237   0.860   4.234  12.442 -0.4226 -0.5944  0.0243
 6274TIP3    H240238   0.845   4.183  12.584 -0.0464 -0.7755 -0.0016
 6275TIP3   OH240239   2.012   3.713  15.265  0.0803  0.3438 -0.3424
 6275TIP3    H140240   1.940   3.722  15.202  0.1346 -0.0342 -0.4563
 6275TIP3    H240241   2.088   3.749  15.220  0.1522 -0.0679 -0.5491
 6276TIP3   OH240242   1.801   1.066   1.619 -0.8309 -0.0065 -0.2921
 6276TIP3    H140243   1.800   1.005   1.546 -0.6251  0.6341 -0.8424
 6276TIP3    H240244   1.890   1.101   1.620 -1.0713  0.6277 -0.2783
 6277TIP3   OH240245   0.744   1.763  13.642 -0.5100 -0.4229  0.3620
 6277TIP3    H140246   0.767   1.826  13.711  0.5060 -0.5239  0.1337
 6277TIP3    H240247   0.678   1.808  13.589 -1.5126 -0.4514  1.5484
 6278TIP3   OH240248   5.466   5.194   5.010  0.1371  0.4366  0.0910
 6278TIP3    H140249   5.448   5.100   5.004  0.3629  0.4133 -0.2011
 6278TIP3    H240250   5.456   5.227   4.921 -1.8499  1.0373  0.4740
 6279TIP3   OH240251   3.810   2.846  12.400 -0.2324  0.1490 -0.1029
 6279TIP3    H140252   3.884   2.865  12.459  1.2818 -0.3398 -1.7495
 6279TIP3    H240253   3.835   2.764  12.357 -0.4514  1.3615 -2.6569
 6280TIP3   OH240254   1.747   6.164   6.781  0.2609 -0.1700 -0.0671
 6280TIP3    H140255   1.669   6.211   6.752  0.1425 -0.2524  0.1169
 6280TIP3    H240256   1.808   6.232   6.807 -0.7377 -0.1221  2.4144
 6281TIP3   OH240257   5.548   4.988  16.796  0.5164 -0.2514 -0.0153
 6281TIP3    H140258   5.561   4.930  16.721 -2.1052  1.0654 -1.6391
 6281TIP3    H240259   5.536   5.075  16.757  2.4154  1.1209  2.1932
 6282TIP3   OH240260   1.312   3.441  10.833  0.0926 -0.2093 -0.2012
 6282TIP3    H140261   1.403   3.422  10.811 -0.1148  0.8242 -2.1637
 6282TIP3    H240262   1.272   3.355  10.848  1.0555 -0.7557 -0.7032
 6283TIP3   OH240263   2.348   6.254   1.687 -0.3708 -0.1594  0.3367
 6283TIP3    H140264   2.389   6.323   1.740 -1.2209  1.4273 -0.9707
 6283TIP3    H240265   2.259   6.285   1.673 -0.8335 -1.6447 -0.1335
 6284TIP3   OH240266   5.581   2.944   4.367 -0.0473  0.2540  0.0672
 6284TIP3    H140267   5.540   2.901   4.442  0.7629  0.5893  0.7201
 6284TIP3    H240268   5.674   2.929   4.379  0.5507  4.0669  1.6135
 6285TIP3   OH240269   5.456   0.416  13.361 -0.1923  0.6924  0.7252
 6285TIP3    H140270   5.507   0.386  13.437  0.8908 -2.0544 -0.9063
 6285TIP3    H240271   5.467   0.511  13.360  2.4185  0.4981  2.2244
 6286TIP3   OH240272   6.382   3.064  11.356  0.5113  0.4532  0.3247
 6286TIP3    H140273   6.393   3.042  11.264  1.7797 -1.0081  0.7827
 6286TIP3    H240274   6.458   3.118  11.378  0.2071  0.8103  0.5022
 6287TIP3   OH240275   5.285   3.879  11.396  0.3502 -0.1630  0.0025
 6287TIP3    H140276   5.378   3.901  11.402 -0.0019  0.9192  2.2227
 6287TIP3    H240277   5.240   3.951  11.441 -1.8209  0.7254 -3.2296
 6288TIP3   OH240278   2.703   0.357   4.669  0.3340  0.6355  0.1961
 6288TIP3    H140279   2.721   0.264   4.681 -1.5957  0.2104  0.1861
 6288TIP3    H240280   2.638   0.360   4.598 -0.4043  1.8844  0.8790
 6289TIP3   OH240281   5.281   0.353  13.138 -0.1011  0.8619 -0.3784
 6289TIP3    H140282   5.328   0.274  13.110 -0.3351  0.6831 -0.2620
 6289TIP3    H240283   5.337   0.393  13.204 -0.7490 -0.0844  0.7750
 6290TIP3   OH240284   0.167   6.185   4.245  0.1732  0.1658 -0.3259
 6290TIP3    H140285   0.144   6.148   4.330 -0.8745 -0.2465 -0.7717
 6290TIP3    H240286   0.186   6.277   4.263 -1.0182  0.3226  0.2033
 6291TIP3   OH240287   6.257   2.789  14.933  0.0171 -0.5312 -0.3219
 6291TIP3    H140288   6.263   2.765  15.025 -2.1589  1.0758  0.3205
 6291TIP3    H240289   6.175   2.749  14.902  0.6107 -0.8837 -1.5042
 6292TIP3   OH240290   5.819   2.823   6.328  0.6213 -0.2821  0.9373
 6292TIP3    H140291   5.880   2.876   6.276 -1.4092 -0.0709 -1.4531
 6292TIP3    H240292   5.767   2.887   6.376 -0.2409 -0.2021 -0.0719
 6293TIP3   OH240293   3.147   4.043  14.818  0.1337 -0.8349  0.3752
 6293TIP3    H140294   3.240   4.020  14.808 -0.0815 -1.9883  0.9285
 6293TIP3    H240295   3.136   4.058  14.912  0.4408  2.4536  0.0064
 6294TIP3   OH240296   6.288   1.973  14.122  0.3048 -0.2615 -0.3839
 6294TIP3    H140297   6.254   1.984  14.033  1.3114 -0.5082 -0.8104
 6294TIP3    H240298   6.210   1.971  14.177 -0.3127  0.3939 -1.2016
 6295TIP3   OH240299   4.251   4.541   2.173 -0.2677 -0.0341 -0.3775
 6295TIP3    H140300   4.288   4.619   2.132 -1.6030 -0.4267 -2.4875
 6295TIP3    H240301   4.232   4.482   2.100 -3.1147 -0.6445  0.6953
 6296TIP3   OH240302   1.957   1.484   6.341  0.1550 -0.0140  0.8417
 6296TIP3    H140303   1.900   1.561   6.339  2.4966  1.8816  1.9877
 6296TIP3    H240304   1.958   1.458   6.433  0.0033 -0.9342  0.5898
 6297TIP3   OH240305   3.474   0.122  14.785  0.0416 -0.2978 -0.6588
 6297TIP3    H140306   3.522   0.198  14.754  0.8225 -0.0223  1.1031
 6297TIP3    H240307   3.456   0.141  14.878 -0.6818 -1.7925 -0.4588
 6298TIP3   OH240308   0.839   1.527  15.286  0.1097  0.0371  0.1194
 6298TIP3    H140309   0.801   1.483  15.362 -1.6368  0.3117 -0.5477
 6298TIP3    H240310   0.931   1.498  15.285  0.5312  0.9869  3.0008
 6299TIP3   OH240311   1.945   4.467  10.490 -0.4388  0.6545 -0.1342
 6299TIP3    H140312   2.027   4.434  10.527 -0.8118  0.3816  0.4613
 6299TIP3    H240313   1.884   4.393  10.499 -0.7398  0.8460 -0.6019
 6300TIP3   OH240314   2.277   1.093   3.760 -0.0891  0.1197 -0.0730
 6300TIP3    H140315   2.351   1.154   3.762 -1.8343  2.3470 -0.3523
 6300TIP3    H240316   2.204   1.144   3.725 -1.7044 -2.0970 -0.1337
 6301TIP3   OH240317   1.567   1.410  13.339  0.5832  0.1138  0.1153
 6301TIP3    H140318   1.512   1.345  13.383  1.4210 -0.2084  0.7050
 6301TIP3    H240319   1.627   1.358  13.285  0.2093  0.4704 -0.6722
 6302TIP3   OH240320   1.487   6.163  14.210 -0.3395  0.1901  0.1251
 6302TIP3    H140321   1.506   6.255  14.189  0.8497  0.0399  0.4952
 6302TIP3    H240322   1.472   6.122  14.125 -0.0099  0.5490 -0.1107
 6303TIP3   OH240323   1.787   3.495  16.033 -0.6899 -0.4851 -0.0133
 6303TIP3    H140324   1.710   3.512  15.978 -1.2247 -1.7036  0.3169
 6303TIP3    H240325   1.839   3.433  15.982  0.0476  0.2785 -0.2009
 6304TIP3   OH240326   3.384   2.791   6.417 -0.4089  0.7546 -0.2219
 6304TIP3    H140327   3.329   2.747   6.352 -0.2540  0.5059 -0.1885
 6304TIP3    H240328   3.325   2.810   6.490 -0.0949 -1.1992  0.6211
 6305TIP3   OH240329   2.036   5.893   2.308 -0.7651 -0.2082  0.2635
 6305TIP3    H140330   1.979   5.950   2.256 -0.7081 -1.9027 -1.8204
 6305TIP3    H240331   1.991   5.808   2.309  0.0923 -0.6803  1.5404
 6306TIP3   OH240332   1.829   5.074  11.789 -0.0723 -0.3582  0.0876
 6306TIP3    H140333   1.744   5.103  11.755  0.1904  1.3404  0.7605
 6306TIP3    H240334   1.893   5.119  11.734  0.3677  0.1673  1.0043
 6307TIP3   OH240335   6.410   2.698   2.202  0.0822 -0.6499 -0.5722
 6307TIP3    H140336   6.328   2.735   2.170 -0.1310  0.5136  1.2092
 6307TIP3    H240337   6.445   2.765   2.260  1.5706 -1.7496 -0.1572
 6308TIP3   OH240338   0.289   5.959  14.472 -0.0428 -0.2170 -0.2707
 6308TIP3    H140339   0.236   5.958  14.392 -0.7096 -0.0534  0.1645
 6308TIP3    H240340   0.329   5.872  14.475  0.1169 -0.1736 -0.8596
 6309TIP3   OH240341   1.986   3.427   4.961 -0.0690 -0.1522  0.1062
 6309TIP3    H140342   2.053   3.403   5.024  0.0325 -1.8968 -0.6042
 6309TIP3    H240343   1.903   3.402   5.003 -0.0784 -0.3801 -0.0482
 6310TIP3   OH240344   4.507   1.414  14.942  0.1155  0.0748  0.1528
 6310TIP3    H140345   4.590   1.407  14.991  0.2199  4.2469  0.9421
 6310TIP3    H240346   4.446   1.453  15.004 -2.0090 -1.3031 -0.9591
 6311TIP3   OH240347   5.892   5.577  16.568 -0.4644  0.4085 -0.0333
 6311TIP3    H140348   5.980   5.566  16.605 -0.7042 -0.8258  0.2228
 6311TIP3    H240349   5.857   5.654  16.613  0.3986  0.7707  0.0373
 6312TIP3   OH240350   0.486   2.087  15.469 -0.2698 -0.2091  0.2482
 6312TIP3    H140351   0.504   2.131  15.386  2.6376 -0.8110  0.4550
 6312TIP3    H240352   0.538   2.136  15.533  1.6107 -2.6935  0.7839
 6313TIP3   OH240353   6.189   5.487   6.668 -0.7423 -0.3901 -0.4861
 6313TIP3    H140354   6.276   5.456   6.691 -0.9283 -0.0852  0.7124
 6313TIP3    H240355   6.204   5.572   6.625 -0.4959  0.2367  0.8020
 6314TIP3   OH240356   5.450   3.904   2.712 -0.1143  0.1359  0.1950
 6314TIP3    H140357   5.390   3.837   2.679 -0.1493 -0.8725  2.1497
 6314TIP3    H240358   5.519   3.908   2.645 -1.3521 -0.0718 -1.1416
 6315TIP3   OH240359   4.239   0.782   1.718  0.5322 -0.0984  0.4236
 6315TIP3    H140360   4.291   0.784   1.638 -0.8881  2.1597 -0.5538
 6315TIP3    H240361   4.184   0.704   1.709  0.2477  0.2309 -0.9542
 6316TIP3   OH240362   5.036   3.987   4.186  0.5554 -0.7110  0.2431
 6316TIP3    H140363   5.089   3.977   4.265 -0.4229 -2.3320  0.7388
 6316TIP3    H240364   4.956   3.938   4.204 -1.7228  2.5538  0.0111
 6317TIP3   OH240365   0.428   0.291  11.948  0.3226  0.0882 -0.3275
 6317TIP3    H140366   0.360   0.329  12.005  0.9288  2.1926 -0.9355
 6317TIP3    H240367   0.385   0.279  11.864  0.5137  0.8461 -0.5419
 6318TIP3   OH240368   3.457   0.387  12.363 -0.0770 -0.4591 -0.0268
 6318TIP3    H140369   3.365   0.370  12.345 -0.2009  1.7730 -2.0862
 6318TIP3    H240370   3.468   0.481  12.347  2.6878 -0.7679 -0.5788
 6319TIP3   OH240371   1.523   5.375  15.477 -0.0569 -0.3903  0.5065
 6319TIP3    H140372   1.510   5.330  15.561 -0.5074  0.3713  0.8568
 6319TIP3    H240373   1.434   5.398  15.449  0.2093  1.1814  0.8574
 6320TIP3   OH240374   1.905   1.638  15.974 -0.1470 -1.0250  0.2502
 6320TIP3    H140375   1.822   1.671  15.940  0.6911 -1.1119 -2.0572
 6320TIP3    H240376   1.881   1.594  16.056 -2.0308  0.7543  0.7546
 6321TIP3   OH240377   2.502   1.273  16.629  0.1818 -0.1720 -0.0553
 6321TIP3    H140378   2.424   1.307  16.673  0.0521 -0.4712 -0.0550
 6321TIP3    H240379   2.493   1.304  16.539  0.6522  0.7885  0.2171
 6322TIP3   OH240380   4.520   6.460   0.268 -0.0835  0.7926 -0.7552
 6322TIP3    H140381   4.522   6.366   0.283 -3.3981  0.9895  2.1913
 6322TIP3    H240382   4.611   6.488   0.279  0.8242 -1.9166 -0.7020
 6323TIP3   OH240383   5.365   6.418  11.100 -0.1086  0.4019 -1.1408
 6323TIP3    H140384   5.302   6.488  11.117 -0.0229  0.0122  1.2111
 6323TIP3    H240385   5.439   6.462  11.058  0.3556  2.0021  1.1323
 6324TIP3   OH240386   1.522   4.742  16.010 -0.1368  0.2227 -0.0481
 6324TIP3    H140387   1.563   4.668  15.965 -1.3318  0.1947 -1.1479
 6324TIP3    H240388   1.433   4.712  16.030 -1.0871  1.7589 -1.6575
 6325TIP3   OH240389   2.600   1.874   1.549 -0.5915  0.1088 -0.4752
 6325TIP3    H140390   2.528   1.817   1.522 -0.8138  0.6399 -1.0239
 6325TIP3    H240391   2.644   1.898   1.467  1.4669 -1.8026 -0.0400
 6326TIP3   OH240392   1.076   5.146   1.459  0.4847  0.1636 -0.2297
 6326TIP3    H140393   1.047   5.237   1.452  1.5015  0.4778 -0.5291
 6326TIP3    H240394   1.046   5.117   1.545 -1.0383  0.3402 -0.6759
 6327TIP3   OH240395   2.902   4.481  17.259 -0.1417 -0.0446  0.1502
 6327TIP3    H140396   2.899   4.571  17.291  1.0045 -0.0412  0.2969
 6327TIP3    H240397   2.846   4.432  17.319  1.0291  0.1829  1.4905
 6328TIP3   OH240398   2.282   6.582   4.321  0.1918 -0.7337 -0.0921
 6328TIP3    H140399   2.207   6.640   4.315  0.0532 -0.7732  1.0366
 6328TIP3    H240400   2.357   6.637   4.298  0.1758  0.1821  1.8720
 6329TIP3   OH240401   3.994   3.617   0.191 -0.6109  0.3303 -0.1971
 6329TIP3    H140402   3.979   3.556   0.118  2.1061  0.0256 -0.5901
 6329TIP3    H240403   3.974   3.703   0.154  2.0646  0.3546 -1.8852
 6330TIP3   OH240404   2.788   0.550  14.686 -0.0006  0.3302 -0.6733
 6330TIP3    H140405   2.746   0.531  14.602  0.1109  2.0059 -1.1445
 6330TIP3    H240406   2.716   0.548  14.750 -1.0375  3.6004 -1.5284
 6331TIP3   OH240407   6.703   6.171  16.347  0.1926 -0.0643  0.2804
 6331TIP3    H140408   6.790   6.143  16.319 -0.8828 -1.3622 -1.9861
 6331TIP3    H240409   6.671   6.225  16.275 -1.6699 -1.3135  0.1232
 6332TIP3   OH240410   4.918   0.753   5.343 -0.3009 -0.6196  0.3981
 6332TIP3    H140411   4.844   0.812   5.356 -0.2115 -0.1906 -0.8550
 6332TIP3    H240412   4.893   0.673   5.387 -2.5318 -1.2616 -1.7972
 6333TIP3   OH240413   6.209   6.645   4.310 -0.5734 -0.8096  0.3657
 6333TIP3    H140414   6.276   6.710   4.330 -2.2308  0.1811  3.1671
 6333TIP3    H240415   6.190   6.602   4.393 -1.6394 -2.8719 -0.8364
 6334TIP3   OH240416   3.544   0.984   0.269 -0.4830  0.1887 -0.4418
 6334TIP3    H140417   3.543   1.039   0.190 -0.3365 -0.7929 -1.1418
 6334TIP3    H240418   3.452   0.965   0.286 -0.4761 -0.1739 -0.7925
 6335TIP3   OH240419   6.540   0.657   4.470 -0.2157  0.7941  0.3129
 6335TIP3    H140420   6.452   0.656   4.432  0.2208  2.0197 -0.7688
 6335TIP3    H240421   6.599   0.642   4.396  0.5610  1.5328  0.7618
 6336TIP3   OH240422   6.103   4.027   5.336 -0.5665  0.1773  0.4423
 6336TIP3    H140423   6.089   4.106   5.284 -0.4111  0.2456  0.5034
 6336TIP3    H240424   6.108   4.059   5.426 -1.2385  0.0178  0.5434
 6337TIP3   OH240425   2.342   2.683  11.931  0.2974 -0.0590  0.1469
 6337TIP3    H140426   2.415   2.622  11.920  0.0059 -0.3536 -0.1705
 6337TIP3    H240427   2.268   2.641  11.888  0.1472  0.6316 -0.2908
 6338TIP3   OH240428   0.129   2.815   5.213  0.1358 -0.0629 -0.4827
 6338TIP3    H140429   0.203   2.778   5.164  1.1093  0.0630  0.8167
 6338TIP3    H240430   0.151   2.907   5.224 -0.0474 -0.0974  0.2071
 6339TIP3   OH240431   0.212   5.184  15.557 -0.2550 -0.3032  0.0302
 6339TIP3    H140432   0.239   5.275  15.567 -0.2305 -0.3343  0.2539
 6339TIP3    H240433   0.121   5.183  15.587  0.3529 -0.7380  2.0150
 6340TIP3   OH240434   1.831   0.541   2.171  0.2390 -0.2488 -0.1411
 6340TIP3    H140435   1.781   0.473   2.127 -0.5795 -0.2046  0.7052
 6340TIP3    H240436   1.825   0.618   2.114 -0.3793 -0.3457 -0.2011
 6341TIP3   OH240437   1.057   0.173  16.286  0.0556 -0.0967 -0.1473
 6341TIP3    H140438   1.009   0.198  16.207 -1.9062  0.3054  1.0970
 6341TIP3    H240439   1.149   0.168  16.258 -0.5486  0.2316 -2.3750
 6342TIP3   OH240440   3.602   5.594  16.662 -0.4802  0.0687  0.1831
 6342TIP3    H140441   3.674   5.544  16.624 -0.4111  0.3354 -0.0464
 6342TIP3    H240442   3.590   5.668  16.601 -1.9241 -0.7653 -0.6240
 6343TIP3   OH240443   1.087   4.121  14.836 -0.0370 -0.1306  0.0000
 6343TIP3    H140444   1.154   4.065  14.796 -0.3876 -1.3127  1.0122
 6343TIP3    H240445   1.004   4.083  14.808 -0.2798 -0.3840  1.0269
 6344TIP3   OH240446   6.147   3.180   2.971  0.2535  0.0255 -0.0037
 6344TIP3    H140447   6.071   3.171   3.029  0.7875  2.2074  1.1504
 6344TIP3    H240448   6.221   3.148   3.022  0.5063  0.5109 -0.0561
 6345TIP3   OH240449   6.277   4.015   2.734  0.6281  0.5274  0.0431
 6345TIP3    H140450   6.328   4.029   2.814  0.3683  3.1913 -0.1415
 6345TIP3    H240451   6.298   3.926   2.707  2.3658  0.2869  1.9183
 6346TIP3   OH240452   0.523   1.738  12.192  0.1818  0.1686 -0.5629
 6346TIP3    H140453   0.529   1.728  12.097  1.7622  0.1216 -0.4870
 6346TIP3    H240454   0.608   1.774  12.217  0.5244 -1.6563  1.0526
 6347TIP3   OH240455   2.216   4.756   4.606 -0.1479  0.1980  0.6076
 6347TIP3    H140456   2.162   4.790   4.677 -0.3718  2.0540 -0.4111
 6347TIP3    H240457   2.197   4.812   4.532  1.9171 -0.1655 -0.2601
 6348TIP3   OH240458   5.648   5.280   4.683  0.2043 -0.4924 -0.2745
 6348TIP3    H140459   5.678   5.191   4.699  2.2767 -0.3263 -2.6475
 6348TIP3    H240460   5.725   5.326   4.649 -0.9900  2.0213  0.1700
 6349TIP3   OH240461   2.885   2.489   1.741  0.8553 -0.0226  0.3838
 6349TIP3    H140462   2.802   2.534   1.757  0.3569 -0.5712 -0.5822
 6349TIP3    H240463   2.937   2.505   1.820 -0.1218  0.4260  0.9458
 6350TIP3   OH240464   0.633   4.220  15.476 -0.1776  0.1911  0.5095
 6350TIP3    H140465   0.609   4.308  15.446  0.1053  0.9189  2.3215
 6350TIP3    H240466   0.726   4.227  15.498  0.5284 -1.2657 -1.6724
 6351TIP3   OH240467   0.176   5.190  13.859  0.4056  0.0989  0.4760
 6351TIP3    H140468   0.230   5.128  13.809  0.4747  1.3194 -1.0778
 6351TIP3    H240469   0.189   5.273  13.813  0.9111  1.4407  2.9165
 6352TIP3   OH240470   3.841   4.283   6.276  0.1119 -0.0780 -0.0421
 6352TIP3    H140471   3.827   4.378   6.278  0.9712  0.0767 -0.5637
 6352TIP3    H240472   3.924   4.273   6.229  0.4833 -1.0458  0.7940
 6353TIP3   OH240473   2.196   3.621  12.106  0.0292 -0.5199 -0.0921
 6353TIP3    H140474   2.122   3.675  12.081  0.3703  0.1301  0.2799
 6353TIP3    H240475   2.201   3.629  12.201  0.2878 -0.9381 -0.0650
 6354TIP3   OH240476   4.885   3.671   3.103 -0.2360 -0.4749 -0.2031
 6354TIP3    H140477   4.807   3.725   3.118 -0.1384 -0.3433 -0.1709
 6354TIP3    H240478   4.865   3.621   3.024  0.0732  0.3290 -0.8000
 6355TIP3   OH240479   0.631   5.314  11.897  0.2808 -0.1479  0.2987
 6355TIP3    H140480   0.688   5.305  11.974  0.6115 -0.1458  0.0559
 6355TIP3    H240481   0.592   5.227  11.887  1.9941 -0.8276 -0.8892
 6356TIP3   OH240482   4.590   1.272  12.849 -0.1691  0.1373  0.3286
 6356TIP3    H140483   4.659   1.325  12.807 -1.0475  1.1410  0.1204
 6356TIP3    H240484   4.544   1.334  12.905 -0.7894 -0.5710  0.6040
 6357TIP3   OH240485   0.306   3.699   3.664  0.8336 -0.2246 -0.1821
 6357TIP3    H140486   0.252   3.755   3.720 -2.9260 -2.9058 -0.7043
 6357TIP3    H240487   0.274   3.715   3.576  2.2241 -0.6187 -0.7843
 6358TIP3   OH240488   0.329   6.658  11.481 -0.0181  0.0425 -0.0667
 6358TIP3    H140489   0.252   6.624  11.435  0.5806 -0.2709 -0.8666
 6358TIP3    H240490   0.371   6.716  11.418  0.3167  0.3398  0.4220
 6359TIP3   OH240491   0.211   4.555  16.884  0.3993 -0.3958  0.2341
 6359TIP3    H140492   0.121   4.579  16.860  1.1092  1.2060 -0.9735
 6359TIP3    H240493   0.248   4.636  16.919  1.8102 -0.6532 -0.6145
 6360TIP3   OH240494   4.475   1.536  13.528  0.1185  0.0302 -0.2244
 6360TIP3    H140495   4.527   1.507  13.453 -0.6060 -1.5022 -0.1974
 6360TIP3    H240496   4.537   1.576  13.588  1.0857 -0.8220 -0.6393
 6361TIP3   OH240497   5.156   1.939   2.243  0.2185  0.0506 -0.3843
 6361TIP3    H140498   5.204   1.868   2.286 -0.1649  1.3279  2.3738
 6361TIP3    H240499   5.071   1.901   2.221  0.3586 -0.6123  0.1855
 6362TIP3   OH240500   5.826   4.875   4.052 -0.0086  0.5918  0.2514
 6362TIP3    H140501   5.881   4.926   3.993  0.6677  0.4426  0.7382
 6362TIP3    H240502   5.882   4.803   4.081 -1.0203 -0.5649 -0.5865
 6363TIP3   OH240503   4.889   6.366   6.175  0.4737  0.4561 -0.0710
 6363TIP3    H140504   4.952   6.438   6.168 -0.8430  1.6366 -0.1392
 6363TIP3    H240505   4.822   6.398   6.235 -1.1935  0.1075 -1.6472
 6364TIP3   OH240506   6.289   0.187  12.925  0.0285  0.2189  0.9007
 6364TIP3    H140507   6.322   0.250  12.989 -1.3624  0.1686  1.7048
 6364TIP3    H240508   6.197   0.176  12.948  0.2025 -2.0099  0.6905
 6365TIP3   OH240509   1.090   2.483  15.188 -0.0500 -0.1662  0.5939
 6365TIP3    H140510   1.103   2.393  15.218  1.1252 -0.7860 -1.6011
 6365TIP3    H240511   1.179   2.515  15.169 -0.4269  1.5448  1.4797
 6366TIP3   OH240512   3.008   3.714   1.226  0.5502 -0.1285  0.2312
 6366TIP3    H140513   3.075   3.646   1.231  2.3517  1.5854  0.6256
 6366TIP3    H240514   2.969   3.717   1.313  1.0065 -0.1593  0.4395
 6367TIP3   OH240515   5.193   2.832   5.954 -0.1045  0.2434  0.1055
 6367TIP3    H140516   5.119   2.784   5.918  0.8829  0.1440 -1.9042
 6367TIP3    H240517   5.241   2.767   6.006 -2.1907  0.6794  2.8204
 6368TIP3   OH240518   6.441   6.506  15.971 -0.1057  0.1581  0.0794
 6368TIP3    H140519   6.405   6.569  16.034 -0.4526  0.3141 -0.2714
 6368TIP3    H240520   6.426   6.546  15.886  0.1904 -0.1427 -0.1166
 6369TIP3   OH240521   4.755   6.671  13.730  0.4414 -0.0514  0.0073
 6369TIP3    H140522   4.819   6.733  13.767 -2.0339  1.4843  2.1461
 6369TIP3    H240523   4.800   6.587  13.728  3.3699  1.4200 -1.2871
 6370TIP3   OH240524   5.366   1.139  14.216  0.1442 -0.0706 -0.0508
 6370TIP3    H140525   5.447   1.168  14.175  1.1431  0.6970  2.3103
 6370TIP3    H240526   5.321   1.220  14.241 -0.2786 -0.5105  0.6479
 6371TIP3   OH240527   4.448   0.057   3.300  0.3425 -0.1541  0.6856
 6371TIP3    H140528   4.482  -0.017   3.250  0.5001  0.9087 -0.8323
 6371TIP3    H240529   4.526   0.099   3.338  0.2141 -1.0324  1.9879
 6372TIP3   OH240530   0.208   3.337  12.883  0.1227  0.0258 -0.0869
 6372TIP3    H140531   0.260   3.383  12.949  1.2329  1.2968 -1.7597
 6372TIP3    H240532   0.226   3.244  12.898 -0.9550  0.1278  2.3838
 6373TIP3   OH240533   3.882   2.519  13.136  0.0551 -0.4176 -0.1237
 6373TIP3    H140534   3.874   2.520  13.231 -1.3925 -1.2644 -0.2078
 6373TIP3    H240535   3.848   2.433  13.110  0.7950 -0.3571 -1.3896
 6374TIP3   OH240536   1.486   5.472   1.596 -0.8568 -0.4285 -0.0826
 6374TIP3    H140537   1.442   5.390   1.574 -0.5443 -0.5525 -0.2465
 6374TIP3    H240538   1.507   5.464   1.689 -2.3267  0.1647  0.3277
 6375TIP3   OH240539   6.656   2.958  11.097  0.2149  0.2337 -0.6039
 6375TIP3    H140540   6.674   2.995  11.183  1.1731 -0.7239 -0.3848
 6375TIP3    H240541   6.565   2.984  11.079 -0.4407 -0.6187  1.2461
 6376TIP3   OH240542   0.043   6.694   1.589 -0.6514 -0.2563 -0.1616
 6376TIP3    H140543  -0.018   6.751   1.635 -0.7655 -0.2166 -0.3626
 6376TIP3    H240544   0.038   6.722   1.497 -1.7168 -1.4705 -0.4986
 6377TIP3   OH240545   2.741   1.840  12.167 -0.1495  0.2600  0.4735
 6377TIP3    H140546   2.781   1.777  12.107  1.0746  3.1684 -2.0555
 6377TIP3    H240547   2.674   1.790  12.213  1.2121 -3.0085 -0.7899
 6378TIP3   OH240548   0.209   6.423   6.020 -0.5352 -0.4159 -0.3910
 6378TIP3    H140549   0.248   6.377   5.946 -1.0842 -3.5976  1.1220
 6378TIP3    H240550   0.209   6.359   6.091 -1.2998  2.0155  2.0036
 6379TIP3   OH240551   1.226   5.147  12.452  0.0303  1.0116  0.0383
 6379TIP3    H140552   1.210   5.169  12.544 -0.0722  0.8790  0.0531
 6379TIP3    H240553   1.197   5.056  12.444 -1.2016  1.4284 -0.4373
 6380TIP3   OH240554   1.251   0.493  14.766 -0.2075  0.0032 -0.0970
 6380TIP3    H140555   1.220   0.532  14.847 -0.8977 -0.6098 -0.0524
 6380TIP3    H240556   1.342   0.521  14.759 -0.0911 -0.0640  0.9698
 6381TIP3   OH240557   1.936   4.341   0.242 -0.2285  0.7793 -0.2704
 6381TIP3    H140558   1.932   4.348   0.337  1.9595 -1.2439  0.0752
 6381TIP3    H240559   1.927   4.431   0.211  0.1998  1.6477  1.9274
 6382TIP3   OH240560   1.040   5.756  13.384 -0.6664  0.3031 -0.1042
 6382TIP3    H140561   1.100   5.820  13.345 -0.1050  0.0659  0.3505
 6382TIP3    H240562   0.974   5.741  13.317 -0.3760  0.7869 -0.5070
 6383TIP3   OH240563   3.895   6.724   5.878 -0.4267 -0.5060 -0.5611
 6383TIP3    H140564   3.873   6.808   5.918  0.3231 -0.0150 -1.1340
 6383TIP3    H240565   3.812   6.679   5.869 -0.7716 -0.0543  0.2748
 6384TIP3   OH240566   2.378   4.900   6.071 -0.2812  0.0823  0.0241
 6384TIP3    H140567   2.338   4.953   6.140  1.2124  0.7188  0.4317
 6384TIP3    H240568   2.395   4.962   6.000 -2.8339 -0.7562 -1.4606
 6385TIP3   OH240569   1.481   4.951   0.431 -0.1500  0.4090 -0.1982
 6385TIP3    H140570   1.509   4.985   0.516 -1.1132 -1.4941  0.9723
 6385TIP3    H240571   1.399   4.997   0.413  0.1104  0.8944 -0.1656
 6386TIP3   OH240572   6.330   5.832   5.105 -0.6146  0.0638 -0.1658
 6386TIP3    H140573   6.350   5.925   5.108  1.4307 -0.3597  0.9785
 6386TIP3    H240574   6.382   5.798   5.033 -1.5251 -0.1709 -0.7232
 6387TIP3   OH240575   6.711   4.351   2.223 -0.8666  0.1036  0.5237
 6387TIP3    H140576   6.685   4.332   2.133  2.2742  1.5222 -0.8666
 6387TIP3    H240577   6.642   4.407   2.258 -1.3972  0.8772 -1.6309
 6388TIP3   OH240578   3.107   1.508  13.561  0.0577  0.2119  0.2836
 6388TIP3    H140579   3.085   1.519  13.653  0.6806  1.9634  0.2596
 6388TIP3    H240580   3.024   1.515  13.515  0.1493  3.8353  0.4130
 6389TIP3   OH240581   4.135   5.590  13.546  0.0179  0.1715  0.5508
 6389TIP3    H140582   4.068   5.621  13.607  0.6974 -1.5754  2.2767
 6389TIP3    H240583   4.085   5.551  13.474 -0.7912  2.0525  0.0097
 6390TIP3   OH240584   4.539   6.647   4.929 -0.7665 -0.5896  0.2908
 6390TIP3    H140585   4.575   6.660   4.841 -0.1041 -1.4170  0.4256
 6390TIP3    H240586   4.444   6.649   4.916 -0.7065  1.1287 -0.1485
 6391TIP3   OH240587   4.550   0.589  15.540  0.1320  0.4385  0.2922
 6391TIP3    H140588   4.484   0.581  15.609  0.3960 -0.7100  0.4308
 6391TIP3    H240589   4.614   0.651  15.574  0.5271 -0.4979  1.3264
 6392TIP3   OH240590   0.560   4.119   0.668 -0.5069 -0.3966  0.1357
 6392TIP3    H140591   0.607   4.096   0.748 -0.1882 -0.4770 -0.0737
 6392TIP3    H240592   0.598   4.204   0.642  0.3881 -1.0278 -0.6956
 6393TIP3   OH240593   1.847   6.112   0.288 -0.5413 -0.1166 -0.4558
 6393TIP3    H140594   1.773   6.166   0.319  0.9166  2.1869 -0.7113
 6393TIP3    H240595   1.883   6.162   0.215  0.2479 -2.0573 -1.4372
 6394TIP3   OH240596   2.306   4.174   2.043 -0.4079 -0.0589  0.3422
 6394TIP3    H140597   2.276   4.265   2.044 -1.5287 -0.4027 -0.1739
 6394TIP3    H240598   2.248   4.128   2.103  0.3894 -0.3786  0.8890
 6395TIP3   OH240599   4.850   2.319   0.494 -0.6232  0.1745  0.4980
 6395TIP3    H140600   4.893   2.334   0.409 -0.4800  1.6095  0.8000
 6395TIP3    H240601   4.843   2.406   0.533 -1.6258 -0.3396  1.5227
 6396TIP3   OH240602   3.583   4.718   4.758  1.1249 -0.1170  0.2942
 6396TIP3    H140603   3.533   4.637   4.743 -1.7215  1.7719 -1.2872
 6396TIP3    H240604   3.557   4.746   4.846  1.0935 -0.2374  0.3236
 6397TIP3   OH240605   5.936   0.993  12.964 -0.0112 -0.5096  0.1810
 6397TIP3    H140606   5.848   0.970  12.936 -1.4304  3.0272  1.0590
 6397TIP3    H240607   5.928   1.002  13.060  0.5938  1.9409  0.0757
 6398TIP3   OH240608   3.524   6.011   6.979 -0.6265 -0.1735 -0.4576
 6398TIP3    H140609   3.584   5.939   6.958 -2.0777 -1.1318 -1.5521
 6398TIP3    H240610   3.580   6.077   7.020  1.1326 -1.0859 -1.2384
 6399TIP3   OH240611   4.674   4.644   0.865 -0.2817 -0.5999  0.4261
 6399TIP3    H140612   4.690   4.637   0.771 -1.6097 -1.4138  0.2372
 6399TIP3    H240613   4.696   4.735   0.886  0.1071 -0.4298 -0.6538
 6400TIP3   OH240614   1.746   1.822  13.709  0.4049 -0.3242 -0.7192
 6400TIP3    H140615   1.694   1.886  13.661 -0.7163 -0.6701 -0.0018
 6400TIP3    H240616   1.832   1.823  13.666  0.6615  2.1545 -0.2752
 6401TIP3   OH240617   3.033   2.551   5.165 -0.3910 -0.0897 -0.5838
 6401TIP3    H140618   2.958   2.507   5.125 -2.0108  1.4792  0.5257
 6401TIP3    H240619   3.001   2.580   5.250  1.1394  1.5714 -0.5013
 6402TIP3   OH240620   2.687   1.176  12.490 -0.5731  0.3316  0.2321
 6402TIP3    H140621   2.632   1.239  12.537 -1.3353 -0.3532  0.2755
 6402TIP3    H240622   2.691   1.210  12.401  1.2551  1.8851  0.8293
 6403TIP3   OH240623   2.822   0.857  16.281  0.3617  0.0432 -0.4854
 6403TIP3    H140624   2.743   0.842  16.228 -1.6173 -0.6965  2.4236
 6403TIP3    H240625   2.798   0.929  16.340  1.2161 -1.2589  1.5632
 6404TIP3   OH240626   4.207   6.199  15.305  0.8894 -0.3817  0.2128
 6404TIP3    H140627   4.140   6.131  15.294  1.4981 -1.0238  0.3989
 6404TIP3    H240628   4.196   6.255  15.228 -1.9384  1.4059  1.7590
 6405TIP3   OH240629   6.542   5.009   4.232  0.6357 -0.3391  0.1351
 6405TIP3    H140630   6.481   5.058   4.177  1.9458  1.2319 -0.0294
 6405TIP3    H240631   6.501   5.007   4.318 -0.4576 -0.9304 -0.3878
 6406TIP3   OH240632   0.230   1.472   1.605 -0.5704  0.3825  0.1353
 6406TIP3    H140633   0.184   1.390   1.619 -1.5154  1.0181  0.8835
 6406TIP3    H240634   0.171   1.539   1.639  0.3925  1.3320  0.0011
 6407TIP3   OH240635   2.080   6.036   0.397  0.3221 -0.1407 -0.1125
 6407TIP3    H140636   1.996   6.054   0.353  0.1668  1.2571  0.7296
 6407TIP3    H240637   2.094   6.110   0.454  0.9917 -1.4721  1.5334
 6408TIP3   OH240638   3.324   5.250   5.398  0.4002  0.0459 -0.1644
 6408TIP3    H140639   3.286   5.169   5.431  0.6156  0.5327  1.3640
 6408TIP3    H240640   3.369   5.288   5.474  2.5220  0.3136 -1.4693
 6409TIP3   OH240641   3.314   2.953   0.239 -0.0963  0.7781 -0.2199
 6409TIP3    H140642   3.300   2.957   0.145 -1.2617 -1.9748 -0.2423
 6409TIP3    H240643   3.401   2.992   0.251  0.8726 -0.3990 -2.6597
 6410TIP3   OH240644   0.575   0.557  16.390 -0.4678  0.2781  0.0167
 6410TIP3    H140645   0.553   0.501  16.464 -3.1171  0.7092 -0.3249
 6410TIP3    H240646   0.561   0.502  16.313  1.3207  0.1160 -0.2148
 6411TIP3   OH240647   1.353   1.478   2.176  0.4326 -0.2166  0.2175
 6411TIP3    H140648   1.345   1.481   2.271  0.8145 -1.3446  0.3031
 6411TIP3    H240649   1.345   1.569   2.148  0.7248  0.1782  1.3658
 6412TIP3   OH240650   0.882   0.454   5.480  0.2954 -0.0408 -0.0091
 6412TIP3    H140651   0.816   0.385   5.491 -0.2442  0.7690  2.6121
 6412TIP3    H240652   0.964   0.408   5.467 -0.0247 -1.2397  1.8998
 6413TIP3   OH240653   4.032   4.530  14.705  0.1670 -0.1954  0.1806
 6413TIP3    H140654   3.948   4.483  14.703  0.2751 -0.6622  2.7073
 6413TIP3    H240655   4.019   4.599  14.771  1.5678  0.1194  0.1612
 6414TIP3   OH240656   5.281   3.443   2.225  0.0011  0.5752  0.6952
 6414TIP3    H140657   5.290   3.350   2.245  0.1238  0.2087 -0.9134
 6414TIP3    H240658   5.251   3.445   2.134  0.4046  2.1248  0.5685
 6415TIP3   OH240659   3.359   6.396   5.972 -0.5936 -0.1063 -0.0744
 6415TIP3    H140660   3.384   6.451   6.047  0.7082  1.0431 -1.3005
 6415TIP3    H240661   3.440   6.352   5.946 -1.2654 -1.3260 -0.1700
 6416TIP3   OH240662   2.847   4.017   4.495  0.1226  0.3430 -0.2891
 6416TIP3    H140663   2.909   3.996   4.565 -1.1356  1.3660  1.1809
 6416TIP3    H240664   2.771   4.054   4.540 -1.5214 -0.7151 -2.0352
 6417TIP3   OH240665   5.247   2.197  11.306  0.0747  0.1286 -0.1724
 6417TIP3    H140666   5.243   2.283  11.264 -0.9927  0.2828  0.2112
 6417TIP3    H240667   5.310   2.148  11.253  0.7772  1.1618 -0.3405
 6418TIP3   OH240668   4.143   1.234   3.987  0.1868  0.2604 -0.0903
 6418TIP3    H140669   4.141   1.142   3.959 -1.8949  0.2406 -0.0882
 6418TIP3    H240670   4.231   1.264   3.964  0.0533 -0.9845 -2.6721
 6419TIP3   OH240671   3.650   5.436   4.628 -0.4693  0.5653  0.0585
 6419TIP3    H140672   3.680   5.362   4.680 -0.2089  0.7302  0.1415
 6419TIP3    H240673   3.599   5.490   4.689  0.9623  1.4630  0.4974
 6420TIP3   OH240674   1.366   1.662  15.758  0.2968  0.1304  0.5401
 6420TIP3    H140675   1.323   1.590  15.804  0.7145 -0.7687 -0.4336
 6420TIP3    H240676   1.302   1.690  15.693  1.6893 -2.3961 -2.1332
 6421TIP3   OH240677   4.891   2.939  12.115 -0.6016 -0.2963  0.1195
 6421TIP3    H140678   4.911   2.949  12.208 -2.2134 -0.7294  0.5372
 6421TIP3    H240679   4.870   3.027  12.085 -1.5121 -0.3722  0.5237
 6422TIP3   OH240680   3.184   4.769  15.930 -0.3395  0.5423  0.4406
 6422TIP3    H140681   3.162   4.770  16.023 -2.0364  1.2774  0.0621
 6422TIP3    H240682   3.147   4.686  15.898 -0.0571  0.4491  0.3547
 6423TIP3   OH240683   3.004   5.979  14.259  0.0186 -0.1722 -0.1669
 6423TIP3    H140684   2.944   5.997  14.331 -0.6240 -0.3967 -0.6388
 6423TIP3    H240685   2.995   5.885  14.242  3.3646 -1.1455  2.2901
 6424TIP3   OH240686   1.043   4.957   3.793  0.2667 -0.3124 -0.0581
 6424TIP3    H140687   1.050   4.886   3.857  1.5344 -0.3161 -0.1846
 6424TIP3    H240688   1.012   4.914   3.713  0.6624 -0.6643 -0.0254
 6425TIP3   OH240689   1.300   5.703   0.393 -0.1370  0.0626 -0.4123
 6425TIP3    H140690   1.348   5.769   0.442  0.1480 -0.0475 -0.5432
 6425TIP3    H240691   1.326   5.717   0.302  0.8372 -0.9876 -0.3150
 6426TIP3   OH240692   5.230   0.324  12.031  0.0654 -0.5009 -0.3615
 6426TIP3    H140693   5.281   0.260  11.981 -0.5331 -0.6603 -0.7806
 6426TIP3    H240694   5.157   0.273  12.068 -0.3892 -0.0794 -0.6560
 6427TIP3   OH240695   2.635   5.720  12.885 -0.1666 -0.0595 -0.1742
 6427TIP3    H140696   2.701   5.676  12.939 -0.9406 -0.3366  0.5762
 6427TIP3    H240697   2.565   5.656  12.877  0.5037 -0.5718 -2.7350
 6428TIP3   OH240698   1.847   3.338   5.358 -0.2049 -0.2280  0.5405
 6428TIP3    H140699   1.878   3.247   5.363  2.2296  0.5960  2.0202
 6428TIP3    H240700   1.926   3.389   5.345 -1.5270  1.7399 -0.1727
 6429TIP3   OH240701   1.163   5.450  14.623  0.0350 -0.3867  0.1448
 6429TIP3    H140702   1.228   5.510  14.586 -0.6495 -0.2716 -0.9043
 6429TIP3    H240703   1.179   5.453  14.717  0.7405  0.5841  0.0132
 6430TIP3   OH240704   6.353   2.003   3.047 -0.0254  0.5528  0.6197
 6430TIP3    H140705   6.346   1.952   2.966 -0.7413  1.9916 -0.2673
 6430TIP3    H240706   6.435   1.973   3.087 -0.6067 -1.5127  0.3321
 6431TIP3   OH240707   2.452   5.523  14.609  0.8207 -0.1803  0.0770
 6431TIP3    H140708   2.508   5.601  14.619 -1.4506  1.7484 -1.3517
 6431TIP3    H240709   2.430   5.499  14.699  1.3965  0.9384  0.5460
 6432TIP3   OH240710   6.409   3.836  13.880  1.2128 -0.0062  0.6107
 6432TIP3    H140711   6.408   3.743  13.904  0.0022 -0.2174 -0.2011
 6432TIP3    H240712   6.482   3.844  13.819  2.3931 -0.0620  1.9453
 6433TIP3   OH240713   4.381   5.847   4.244  0.4891  0.0767  0.4852
 6433TIP3    H140714   4.449   5.913   4.248 -0.0164  0.6626 -0.2733
 6433TIP3    H240715   4.318   5.881   4.180  0.4721 -1.3580 -0.3237
 6434TIP3   OH240716   1.100   1.067  14.081  0.4544 -0.0476 -0.1170
 6434TIP3    H140717   1.103   1.125  14.158 -1.0981 -0.4266  0.2608
 6434TIP3    H240718   1.059   0.987  14.113 -1.4830  0.2759 -1.6181
 6435TIP3   OH240719   4.495   6.697  15.173 -0.2138 -0.3455 -0.1968
 6435TIP3    H140720   4.441   6.676  15.250 -0.7421  0.0996 -0.4379
 6435TIP3    H240721   4.549   6.772  15.202  0.6129 -1.0719  0.1894
 6436TIP3   OH240722   2.143   3.484   3.249  0.0407 -0.6736  0.0650
 6436TIP3    H140723   2.050   3.484   3.227  0.2967  0.4963 -1.1965
 6436TIP3    H240724   2.146   3.505   3.342 -0.9586 -0.7864  0.1322
 6437TIP3   OH240725   1.986   2.243   6.468 -0.0310  0.4277 -0.0037
 6437TIP3    H140726   1.900   2.226   6.430  0.0708 -0.4762  0.1452
 6437TIP3    H240727   2.036   2.163   6.450  1.7623  2.0082 -2.8058
 6438TIP3   OH240728   0.123   2.178  17.135 -0.3937 -0.1772 -0.6098
 6438TIP3    H140729   0.218   2.169  17.131 -0.3676 -0.7640  0.7575
 6438TIP3    H240730   0.105   2.196  17.228 -1.6641 -0.8826 -0.7012
 6439TIP3   OH240731   2.067   4.557   3.099 -0.1948 -0.3831 -0.1272
 6439TIP3    H140732   1.971   4.550   3.093 -0.3345  0.7477  0.6127
 6439TIP3    H240733   2.095   4.472   3.133 -0.8490 -1.0253 -1.1446
 6440TIP3   OH240734   1.668   3.481   2.846 -0.2338 -0.5453  0.0538
 6440TIP3    H140735   1.675   3.439   2.760  1.1961  1.3244 -0.8221
 6440TIP3    H240736   1.694   3.571   2.830  1.6101 -0.5041  2.7387
 6441TIP3   OH240737   3.308   1.310   0.043 -0.1418 -0.3511  0.2337
 6441TIP3    H140738   3.262   1.301  -0.040  1.5753 -1.0885 -0.6667
 6441TIP3    H240739   3.288   1.400   0.071  2.0201  1.2240 -2.7305
 6442TIP3   OH240740   6.677   6.295  11.402 -0.2614 -0.2449 -0.1884
 6442TIP3    H140741   6.770   6.318  11.413 -0.7956  1.4299  1.4188
 6442TIP3    H240742   6.663   6.296  11.308  1.0245  0.9889 -0.4032
 6443TIP3   OH240743   6.145   3.826   2.077  0.0946  0.2214 -0.5349
 6443TIP3    H140744   6.054   3.796   2.073 -0.4498  1.9025 -2.1216
 6443TIP3    H240745   6.182   3.799   1.993  1.3010 -1.0720  0.3826
 6444TIP3   OH240746   0.738   1.556   1.042 -0.5553  0.3934  0.5451
 6444TIP3    H140747   0.707   1.584   1.128 -1.0953  0.2636  0.4004
 6444TIP3    H240748   0.658   1.532   0.995 -0.2053 -0.2065  0.2476
 6445TIP3   OH240749   2.385   6.159   3.532 -0.5519 -0.0677 -0.6296
 6445TIP3    H140750   2.420   6.108   3.605 -2.1120  0.7996  0.7915
 6445TIP3    H240751   2.314   6.105   3.497 -1.3697  0.5215  0.0649
 6446TIP3   OH240752   2.996   3.362  15.307 -0.2986  0.3219 -0.1283
 6446TIP3    H140753   2.930   3.431  15.301 -1.0621 -0.2819  0.9126
 6446TIP3    H240754   3.052   3.387  15.380 -1.5673 -0.9143  1.3474
 6447TIP3   OH240755   3.324   0.943  13.477 -0.2183  0.1447  0.3479
 6447TIP3    H140756   3.363   1.020  13.519 -1.6508  1.0208  0.1770
 6447TIP3    H240757   3.307   0.882  13.548  0.7785  0.0477  0.5110
 6448TIP3   OH240758   4.904   1.349   5.562  0.5650 -0.3242  0.2316
 6448TIP3    H140759   4.848   1.425   5.577  0.2945 -0.3002 -0.8189
 6448TIP3    H240760   4.993   1.383   5.573  0.4424  0.1378 -0.1591
 6449TIP3   OH240761   4.514   2.235  14.871 -0.2094 -0.1292  0.5215
 6449TIP3    H140762   4.554   2.176  14.806 -0.7124  1.9122 -1.7660
 6449TIP3    H240763   4.427   2.198  14.886 -0.9472  0.4964 -1.7320
 6450TIP3   OH240764   3.678   6.402   6.360 -0.3604 -0.0372 -0.4358
 6450TIP3    H140765   3.686   6.308   6.377  0.2412 -0.0884 -0.9796
 6450TIP3    H240766   3.766   6.436   6.376 -0.6451  0.4901  0.0537
 6451TIP3   OH240767   3.222   2.673   1.789  0.3719  0.1296  0.2854
 6451TIP3    H140768   3.203   2.585   1.756 -1.5235  0.3158  0.7338
 6451TIP3    H240769   3.317   2.681   1.785  0.6239 -2.1123  0.6647
 6452TIP3   OH240770   4.689   1.416   0.985 -0.4674  0.1924 -0.0602
 6452TIP3    H140771   4.688   1.362   0.907  2.0074 -0.4765  0.3008
 6452TIP3    H240772   4.757   1.481   0.970  0.2019 -0.0631  1.5661
 6453TIP3   OH240773   3.240   0.962   4.790  0.6853  0.2351  0.1407
 6453TIP3    H140774   3.281   0.959   4.704 -0.3092  0.1774 -0.3512
 6453TIP3    H240775   3.150   0.991   4.772  0.9765  2.0744  1.3524
 6454TIP3   OH240776   2.490   0.434  12.132 -0.3077  0.8646 -0.1059
 6454TIP3    H140777   2.584   0.424  12.123 -0.4381 -0.4943 -0.1053
 6454TIP3    H240778   2.471   0.405  12.222 -0.5311  2.8232  0.5373
 6455TIP3   OH240779   3.110   0.308  12.693 -0.4009  0.4402 -0.4109
 6455TIP3    H140780   3.107   0.309  12.789  0.1470  1.0388 -0.3943
 6455TIP3    H240781   3.203   0.312  12.671 -0.5418  0.8423 -0.9708
 6456TIP3   OH240782   2.858   1.068   3.777 -0.3538  0.1585  0.1493
 6456TIP3    H140783   2.875   1.108   3.862  0.2514 -1.3580  0.7814
 6456TIP3    H240784   2.764   1.084   3.762 -0.2970  1.1095  0.7260
 6457TIP3   OH240785   3.475   5.046   2.322  0.0244 -0.2984 -0.4542
 6457TIP3    H140786   3.510   4.958   2.338 -0.2089 -0.0214  1.9248
 6457TIP3    H240787   3.546   5.105   2.349 -0.1226  0.2605 -1.2518
 6458TIP3   OH240788   0.573   1.409   5.155 -0.3819  0.0129 -0.4128
 6458TIP3    H140789   0.662   1.443   5.153  0.1775 -1.3906 -1.1393
 6458TIP3    H240790   0.557   1.387   5.246 -0.1433  0.6654 -0.2107
 6459TIP3   OH240791   3.889   5.030   0.904  0.1251  0.0545 -0.0070
 6459TIP3    H140792   3.884   4.936   0.884 -0.2292  0.1062 -0.1626
 6459TIP3    H240793   3.894   5.073   0.819  0.0387  0.1920  0.0569
 6460TIP3   OH240794   2.928   4.258   0.290  0.4506  0.3543  0.2372
 6460TIP3    H140795   2.977   4.313   0.351 -0.2011 -0.1711  1.2621
 6460TIP3    H240796   2.892   4.319   0.226  1.0285  0.9311  0.4585
 6461TIP3   OH240797   6.097   1.592  12.754  0.1192  0.3609 -0.7141
 6461TIP3    H140798   6.079   1.558  12.666 -3.6751  1.0306 -0.3501
 6461TIP3    H240799   6.090   1.515  12.811  0.1923  0.3296 -0.7463
 6462TIP3   OH240800   1.778   0.992  16.236 -0.7586 -0.2022  0.1132
 6462TIP3    H140801   1.739   1.078  16.249  0.0792  0.0170  1.3788
 6462TIP3    H240802   1.839   1.004  16.162 -1.8872 -0.1677 -0.8422
 6463TIP3   OH240803   0.956   4.189  10.727  0.3083  0.0481  0.5091
 6463TIP3    H140804   0.873   4.229  10.751  0.1500 -0.7363  1.3157
 6463TIP3    H240805   0.932   4.112  10.675  0.4676 -0.6964  1.4977
 6464TIP3   OH240806   5.681   5.503   1.652  0.4688 -0.3746  0.0100
 6464TIP3    H140807   5.774   5.513   1.673  0.7204  0.8935 -1.4838
 6464TIP3    H240808   5.635   5.538   1.729  1.2445 -0.4518  0.5103
 6465TIP3   OH240809   5.695   1.392  13.344  0.0955 -0.0721 -0.2287
 6465TIP3    H140810   5.710   1.470  13.399 -0.6308 -0.4556  0.5342
 6465TIP3    H240811   5.665   1.325  13.406  0.1193 -0.7842 -0.9745
 6466TIP3   OH240812   4.110   6.753   3.752  0.1438  0.8112  0.0385
 6466TIP3    H140813   4.083   6.719   3.838 -0.6797 -0.7114 -0.7830
 6466TIP3    H240814   4.062   6.700   3.689  1.4859  1.2427 -1.4096
 6467TIP3   OH240815   5.278   2.340  13.005  0.3868  0.4559  0.4691
 6467TIP3    H140816   5.340   2.268  13.014  2.4416  1.6910 -2.5638
 6467TIP3    H240817   5.314   2.410  13.060  0.4040  0.4177  0.5065
 6468TIP3   OH240818   6.024   3.500  14.034  0.0455  0.4098  1.0503
 6468TIP3    H140819   6.037   3.594  14.032  0.6886  0.3521 -1.4236
 6468TIP3    H240820   5.972   3.481  13.955  0.8846 -1.3945  0.8654
 6469TIP3   OH240821   4.160   3.990  11.904  0.0142  0.1626 -0.1636
 6469TIP3    H140822   4.231   3.986  11.968 -1.0077 -0.8979  0.9538
 6469TIP3    H240823   4.082   4.008  11.956 -0.4252  2.6798 -1.4982
 6470TIP3   OH240824   5.500   0.729   5.643 -0.0730  0.3788 -0.4046
 6470TIP3    H140825   5.582   0.697   5.683  0.0879 -0.2136 -1.1696
 6470TIP3    H240826   5.433   0.671   5.679  0.3058 -1.3536 -2.2973
 6471TIP3   OH240827   5.337   5.457   2.538 -0.3095 -0.1341  0.5531
 6471TIP3    H140828   5.419   5.456   2.488 -1.5232 -1.5831 -1.5658
 6471TIP3    H240829   5.345   5.383   2.599  0.6040  0.7735  1.5750
 6472TIP3   OH240830   1.861   2.351  15.798  0.2343 -0.4382 -0.7168
 6472TIP3    H140831   1.903   2.338  15.713 -0.4755 -1.5161 -0.9209
 6472TIP3    H240832   1.847   2.446  15.804  0.3353 -0.3513 -1.7697
 6473TIP3   OH240833   4.870   3.340  11.789  0.5195 -0.6252  0.5627
 6473TIP3    H140834   4.815   3.390  11.848 -1.5316 -1.0157 -0.9107
 6473TIP3    H240835   4.903   3.267  11.842 -1.9798 -1.4844  1.0734
 6474TIP3   OH240836   5.980   3.965   0.699 -0.1930  0.2611 -0.1777
 6474TIP3    H140837   6.053   3.974   0.760  0.1993 -1.0151 -0.4211
 6474TIP3    H240838   6.008   3.896   0.638 -1.8694 -0.7770  0.1558
 6475TIP3   OH240839   3.909   0.964   3.167 -0.0646 -0.7958  0.4429
 6475TIP3    H140840   3.977   0.935   3.106 -0.6054 -1.3445  0.1034
 6475TIP3    H240841   3.863   0.884   3.193 -2.2396 -0.2101 -1.2983
 6476TIP3   OH240842   1.629   6.414   4.848  0.2864  0.3847 -0.4257
 6476TIP3    H140843   1.640   6.468   4.770 -1.4149 -0.2468 -1.1439
 6476TIP3    H240844   1.715   6.417   4.891  1.2121  0.9007 -2.1984
 6477TIP3   OH240845   4.823   4.343  12.494  0.6512  0.4553  0.4741
 6477TIP3    H140846   4.885   4.399  12.541 -1.3774 -0.0930  4.1751
 6477TIP3    H240847   4.877   4.274  12.456  2.5410  1.2204  1.6255
 6478TIP3   OH240848   5.616   3.164   0.477 -0.3031 -0.1861 -0.1272
 6478TIP3    H140849   5.697   3.216   0.478  0.0934 -0.7840  1.2136
 6478TIP3    H240850   5.567   3.198   0.402  1.5138 -0.3080 -1.4342
 6479TIP3   OH240851   6.377   3.116   1.556 -0.2944  0.4104 -0.1548
 6479TIP3    H140852   6.377   3.027   1.593 -2.8138  1.0351  1.6384
 6479TIP3    H240853   6.413   3.170   1.626 -1.5678  1.1310 -0.0182
 6480TIP3   OH240854   1.277   3.404   3.733  0.3815  0.3431 -0.3302
 6480TIP3    H140855   1.329   3.325   3.743 -1.1043 -0.9851 -2.1794
 6480TIP3    H240856   1.235   3.416   3.818  0.9791 -0.5923  0.1144
 6481TIP3   OH240857   2.932   1.214   0.273 -0.2037  0.1391  0.9043
 6481TIP3    H140858   2.918   1.226   0.367  0.1855  1.0182  0.8579
 6481TIP3    H240859   3.010   1.159   0.267 -0.5733 -0.4131  1.0977
 6482TIP3   OH240860   4.074   3.354  16.716  0.0340  0.0034  0.1721
 6482TIP3    H140861   3.986   3.341  16.752  1.0346  1.4819  3.6629
 6482TIP3    H240862   4.107   3.266  16.699 -1.9612 -0.5905 -1.0082
 6483TIP3   OH240863   2.353   3.755  13.386 -0.5213  0.2827  0.7467
 6483TIP3    H140864   2.279   3.772  13.444 -0.5145  0.2370  0.7679
 6483TIP3    H240865   2.397   3.680  13.424 -0.8088 -0.0624  0.4047
 6484TIP3   OH240866   5.778   4.147   2.568  0.3127 -0.6038 -0.4783
 6484TIP3    H140867   5.750   4.239   2.572 -1.8104 -1.2626  1.5149
 6484TIP3    H240868   5.860   4.145   2.617  0.5015  0.2503 -0.7354
 6485TIP3   OH240869   3.137   0.716   3.421  0.5675  0.0173 -0.3198
 6485TIP3    H140870   3.058   0.671   3.392  1.9449 -2.9437  0.1858
 6485TIP3    H240871   3.109   0.770   3.495 -1.9263  3.4239 -3.3713
 6486TIP3   OH240872   5.792   3.074   6.099  0.2243  0.1351 -0.1965
 6486TIP3    H140873   5.722   3.008   6.101  0.8309 -0.5479  2.4913
 6486TIP3    H240874   5.865   3.030   6.057  0.4081 -0.7453  0.9773
 6487TIP3   OH240875   4.409   4.045  15.625 -0.6951  0.7440  0.1367
 6487TIP3    H140876   4.438   4.023  15.537  0.4541  0.6029  0.5312
 6487TIP3    H240877   4.448   3.977  15.681 -3.1220 -0.4096  0.5278
 6488TIP3   OH240878   0.581   3.635   4.871  0.2376 -0.0743  0.0293
 6488TIP3    H140879   0.608   3.587   4.793 -0.6075 -0.0020 -0.3207
 6488TIP3    H240880   0.486   3.642   4.863  0.3236  1.5800  0.1172
 6489TIP3   OH240881   5.817   5.501  13.145 -0.0467 -0.2112 -0.2587
 6489TIP3    H140882   5.734   5.521  13.101  0.2633 -0.4639 -0.9705
 6489TIP3    H240883   5.856   5.587  13.163 -0.7090 -0.0755  0.5678
 6490TIP3   OH240884   5.799   2.848   2.965 -0.1490  0.1556 -0.0128
 6490TIP3    H140885   5.784   2.881   2.876 -2.9105  1.0163  0.6763
 6490TIP3    H240886   5.742   2.771   2.972 -0.3022  0.3596  1.1407
 6491TIP3   OH240887   1.004   0.761  16.152  0.7504  0.2188  0.6148
 6491TIP3    H140888   0.965   0.732  16.234 -1.3783  1.8122  0.2300
 6491TIP3    H240889   1.034   0.850  16.170  1.2822  0.1780 -0.0320
 6492TIP3   OH240890   1.859   1.548   6.027 -0.2855  0.0845 -0.0793
 6492TIP3    H140891   1.931   1.485   6.026  1.6333  2.1289  0.5065
 6492TIP3    H240892   1.780   1.495   6.020  1.2135 -2.3501  0.3583
 6493TIP3   OH240893   5.650   2.406   2.988  0.1152 -0.6861 -0.3404
 6493TIP3    H140894   5.575   2.419   2.930  0.4740 -0.6212 -0.7920
 6493TIP3    H240895   5.667   2.311   2.984  0.7064 -0.5558 -1.0544
 6494TIP3   OH240896   4.278   1.566   1.303 -0.1401 -0.2960  0.2520
 6494TIP3    H140897   4.367   1.577   1.336  0.4566 -1.1133 -1.0051
 6494TIP3    H240898   4.277   1.613   1.219 -0.6875 -0.8269 -0.0507
 6495TIP3   OH240899   3.452   1.281  16.614 -0.1974 -0.0230  0.5693
 6495TIP3    H140900   3.514   1.298  16.685  0.0359 -1.8982  0.8687
 6495TIP3    H240901   3.504   1.243  16.544 -0.8956 -1.0699  0.5987
 6496TIP3   OH240902   1.840   3.462   3.236 -0.4342 -0.8136 -0.2660
 6496TIP3    H140903   1.844   3.521   3.161  0.1324 -1.9882 -1.2044
 6496TIP3    H240904   1.842   3.520   3.312  0.2370  0.3652 -1.1381
 6497TIP3   OH240905   5.604   4.494   3.552  0.8879  0.0696 -0.0726
 6497TIP3    H140906   5.587   4.417   3.605  0.0059  0.9377  0.9512
 6497TIP3    H240907   5.658   4.551   3.608 -0.7736  1.3742  0.2880
 6498TIP3   OH240908   3.486   2.625   1.748 -0.3241  0.0794  0.1442
 6498TIP3    H140909   3.464   2.531   1.745 -1.0231  0.1855  1.2186
 6498TIP3    H240910   3.540   2.639   1.671  1.2119 -1.5792  0.8195
 6499TIP3   OH240911   6.206   4.519   0.692 -0.4750  0.1445 -0.4287
 6499TIP3    H140912   6.250   4.604   0.699 -0.6051  0.1292  0.8025
 6499TIP3    H240913   6.124   4.531   0.741  0.2740 -1.1780  1.2335
 6500TIP3   OH240914   0.767   3.382  10.964 -0.1650  0.0291  0.0263
 6500TIP3    H140915   0.736   3.395  10.874  0.6202  3.0153  0.0508
 6500TIP3    H240916   0.862   3.370  10.955 -0.2942 -1.4540  0.3948
 6501TIP3   OH240917   2.512   3.961  13.008  0.3284  1.1488  0.4507
 6501TIP3    H140918   2.558   4.045  13.007 -0.6666  1.6999  0.2861
 6501TIP3    H240919   2.482   3.951  13.098 -0.4365  1.4674  0.2380
 6502TIP3   OH240920   4.012   4.508   1.424 -0.2157 -0.2761 -0.6442
 6502TIP3    H140921   4.103   4.530   1.444  0.0456 -1.7159 -0.1422
 6502TIP3    H240922   3.968   4.505   1.509 -0.7690  0.4887 -0.8885
 6503TIP3   OH240923   0.575   1.483   5.463  0.4963  0.3815  0.3360
 6503TIP3    H140924   0.583   1.574   5.433 -0.2584 -0.2126 -1.8346
 6503TIP3    H240925   0.482   1.462   5.451  0.5542 -0.5471  1.3180
 6504TIP3   OH240926   3.287   1.547   1.976 -0.0790  0.2538 -0.9971
 6504TIP3    H140927   3.269   1.589   2.060  0.8377 -1.7432  0.2747
 6504TIP3    H240928   3.363   1.490   1.994  0.8619  0.6096 -3.4647
 6505TIP3   OH240929   4.283   5.517  16.791 -0.0489 -0.2009 -0.1845
 6505TIP3    H140930   4.264   5.606  16.820 -1.7548 -0.7147  0.4191
 6505TIP3    H240931   4.259   5.517  16.698  0.9358  0.2249 -0.4456
 6506TIP3   OH240932   4.998   1.602   4.101 -0.0237  0.3617 -0.4885
 6506TIP3    H140933   4.932   1.654   4.056 -0.9960 -1.1275 -0.8700
 6506TIP3    H240934   4.979   1.613   4.194  1.7394  3.1289 -0.3480
 6507TIP3   OH240935   5.157   1.707  16.845  0.1439  0.3638  0.4210
 6507TIP3    H140936   5.093   1.651  16.890  0.3933 -0.1645  0.1266
 6507TIP3    H240937   5.125   1.796  16.861 -1.8894  0.0681 -1.4862
 6508TIP3   OH240938   5.600   3.793   4.858  0.0166  0.1214  0.4459
 6508TIP3    H140939   5.624   3.886   4.861 -0.8818  0.3361  1.7404
 6508TIP3    H240940   5.564   3.774   4.945 -1.5743 -0.9485 -0.3888
 6509TIP3   OH240941   3.219   0.555   0.446 -0.6157  0.0836 -0.0239
 6509TIP3    H140942   3.282   0.484   0.461 -0.7868 -0.3766 -1.3658
 6509TIP3    H240943   3.242   0.621   0.512  0.9602 -0.2867 -0.1480
 6510TIP3   OH240944   0.759   1.140  13.474 -0.5514  0.0761 -0.4783
 6510TIP3    H140945   0.800   1.223  13.497  2.1639 -0.8239 -1.6195
 6510TIP3    H240946   0.792   1.120  13.386 -1.8210 -1.7860 -0.6025
 6511TIP3   OH240947   3.326   6.233  13.149 -0.4008  0.2100 -0.3977
 6511TIP3    H140948   3.301   6.163  13.089  0.3731 -0.8505  0.4742
 6511TIP3    H240949   3.396   6.196  13.202 -0.2694  1.5040  0.3971
 6512TIP3   OH240950   4.278   2.847  15.510 -0.4007  0.2040 -0.4883
 6512TIP3    H140951   4.235   2.764  15.489 -1.2811  0.3238  0.7206
 6512TIP3    H240952   4.368   2.836  15.480 -0.5294 -1.1492 -0.4417
 6513TIP3   OH240953   3.010   4.663   2.446 -0.1381  0.2585 -0.0442
 6513TIP3    H140954   3.077   4.637   2.383 -1.3325 -1.6550 -0.6094
 6513TIP3    H240955   2.975   4.745   2.410 -0.4199 -0.5116 -1.6283
 6514TIP3   OH240956   5.451   6.735   5.650  0.1875  0.4168  0.1661
 6514TIP3    H140957   5.482   6.683   5.724  1.6274  1.3100  0.2389
 6514TIP3    H240958   5.356   6.732   5.656  0.1649 -2.5789 -0.1187
 6515TIP3   OH240959   0.570   0.226   1.290  0.7671  0.2277  0.0157
 6515TIP3    H140960   0.498   0.241   1.351  1.2989 -2.6098  1.5514
 6515TIP3    H240961   0.649   0.242   1.342  1.2605  1.4492 -1.0820
 6516TIP3   OH240962   6.006   2.898  15.113  0.4952 -0.0033 -0.0744
 6516TIP3    H140963   6.067   2.960  15.071  0.5960 -0.1798 -0.1900
 6516TIP3    H240964   5.934   2.890  15.050 -0.0690  0.8656  0.4376
 6517TIP3   OH240965   2.580   3.724   0.872  0.0476  0.0059 -1.0683
 6517TIP3    H140966   2.587   3.715   0.967  0.6085  0.9808 -1.0074
 6517TIP3    H240967   2.595   3.635   0.839  2.0448  0.0080 -0.3438
 6518TIP3   OH240968   1.567   4.377   3.176  0.1447 -0.1710 -0.3596
 6518TIP3    H140969   1.659   4.377   3.150  0.3904 -1.4160  0.4609
 6518TIP3    H240970   1.555   4.462   3.221  0.9876 -0.1554 -0.1465
 6519TIP3   OH240971   3.467   5.830  15.613 -0.1981 -0.2413 -0.3503
 6519TIP3    H140972   3.505   5.793  15.533 -1.5656 -3.7359  0.4179
 6519TIP3    H240973   3.504   5.778  15.684 -0.9253  1.0950  1.0690
 6520TIP3   OH240974   4.612   3.911  16.446 -0.5625  0.7470  0.2506
 6520TIP3    H140975   4.599   3.996  16.489 -2.2415  0.3435  0.6279
 6520TIP3    H240976   4.538   3.904  16.385  0.4551  0.2459 -0.9727
 6521TIP3   OH240977   5.266   1.312   3.047  0.2975 -0.8299 -0.4477
 6521TIP3    H140978   5.316   1.260   2.983  0.2755  0.2557 -1.3717
 6521TIP3    H240979   5.238   1.389   2.998 -0.8354 -0.5966  0.5323
 6522TIP3   OH240980   1.885   4.872  13.351 -0.3944 -0.6382  0.5608
 6522TIP3    H140981   1.797   4.898  13.377 -0.4029 -0.1777  0.0880
 6522TIP3    H240982   1.919   4.824  13.426 -0.8491 -0.3491  0.9570
 6523TIP3   OH240983   1.382   4.931   3.758  0.1730  0.0636 -0.1604
 6523TIP3    H140984   1.370   4.860   3.695  0.6004  0.3196 -0.5364
 6523TIP3    H240985   1.335   5.005   3.720 -0.3738 -0.0435  0.2884
 6524TIP3   OH240986   3.270   6.554  12.245 -0.1791  0.5511  0.5594
 6524TIP3    H140987   3.242   6.600  12.323 -1.5119  1.2720 -0.3064
 6524TIP3    H240988   3.339   6.495  12.275  0.6935  2.1871  1.9296
 6525TIP3   OH240989   6.386   3.387   1.189 -0.0816  0.2713  0.0295
 6525TIP3    H140990   6.431   3.359   1.109  0.5368  0.8630  0.1589
 6525TIP3    H240991   6.454   3.385   1.257 -0.7913 -1.0855  0.7531
 6526TIP3   OH240992   0.916   3.483   2.552  0.3123  0.2041 -0.4196
 6526TIP3    H140993   0.833   3.515   2.516  0.4410  2.0633  0.8266
 6526TIP3    H240994   0.983   3.535   2.507  0.8090 -0.8780 -0.9846
 6527TIP3   OH240995   1.922   5.300  12.529  0.4038  0.0278 -0.0400
 6527TIP3    H140996   1.871   5.224  12.556 -0.7400  0.9856  0.6070
 6527TIP3    H240997   1.981   5.267  12.461  0.1268 -1.4775  0.4097
 6528TIP3   OH240998   3.628   0.320   0.072 -0.6049 -0.4041 -0.2906
 6528TIP3    H140999   3.696   0.376   0.109 -0.4031  0.1218 -1.4222
 6528TIP3    H241000   3.600   0.366  -0.007 -0.3924 -1.9371 -1.2809
 6529TIP3   OH241001   2.564   6.570   2.795 -0.1217  0.5318 -0.0855
 6529TIP3    H141002   2.606   6.488   2.767  1.1954  0.7100  1.2692
 6529TIP3    H241003   2.580   6.574   2.889  0.7044  2.8354 -0.2764
 6530TIP3   OH241004   2.783   0.379   0.225 -0.0396  0.9815 -0.6224
 6530TIP3    H141005   2.695   0.362   0.260  0.5880 -1.4210 -0.0517
 6530TIP3    H241006   2.811   0.459   0.270 -0.8263  0.1698  1.4451
 6531TIP3   OH241007   0.759   3.289  14.250 -0.4177  0.3994  0.0192
 6531TIP3    H141008   0.676   3.246  14.228 -0.0565  0.6574 -2.0905
 6531TIP3    H241009   0.822   3.217  14.259 -0.6805  0.2560  0.8316
 6532TIP3   OH241010   6.296   4.752   5.470  0.6804 -0.3313  0.0518
 6532TIP3    H141011   6.310   4.830   5.524  0.6845  0.0437 -0.4867
 6532TIP3    H241012   6.337   4.681   5.520  1.1299  0.1011  0.3038
 6533TIP3   OH241013   6.270   2.239  15.872 -0.2244  0.3112  0.0911
 6533TIP3    H141014   6.344   2.180  15.878 -1.4312 -1.3193 -0.4297
 6533TIP3    H241015   6.301   2.311  15.817  0.5709 -1.0167 -1.2709
 6534TIP3   OH241016   5.077   5.688  12.024 -0.2183  0.5692  0.2996
 6534TIP3    H141017   5.030   5.764  12.057 -1.2780  1.1073 -2.1719
 6534TIP3    H241018   5.148   5.725  11.971 -0.4648 -0.1411 -0.5554
 6535TIP3   OH241019   3.443   4.657   0.367  0.4259  0.6583  0.1742
 6535TIP3    H141020   3.387   4.582   0.346  2.0153  0.2371 -3.0989
 6535TIP3    H241021   3.393   4.733   0.335  0.1556  0.7003  0.6790
 6536TIP3   OH241022   5.532   1.250  15.279  0.4827  0.5569  0.5660
 6536TIP3    H141023   5.605   1.195  15.307  0.6185 -0.4641 -1.6185
 6536TIP3    H241024   5.462   1.230  15.340  0.8998 -1.2167  0.5180
 6537TIP3   OH241025   5.257   3.461  16.514  0.1279 -0.6078 -0.2098
 6537TIP3    H141026   5.216   3.428  16.593 -0.6321  0.4434 -0.1572
 6537TIP3    H241027   5.209   3.419  16.442 -0.4131 -0.1142 -0.1359
 6538TIP3   OH241028   0.128   4.960   5.690  0.4505 -0.5293 -0.4182
 6538TIP3    H141029   0.161   4.997   5.608 -0.1025 -0.7994 -0.7621
 6538TIP3    H241030   0.158   4.869   5.689  1.5067 -0.2140  0.2658
 6539TIP3   OH241031   5.486   3.566   5.550 -0.8400  0.6762  0.1451
 6539TIP3    H141032   5.462   3.500   5.485  2.5581  1.4918 -2.2201
 6539TIP3    H241033   5.472   3.650   5.506 -2.8888  1.5627  2.2800
 6540TIP3   OH241034   4.549   5.308  13.323  0.0686  0.5556 -0.6841
 6540TIP3    H141035   4.605   5.246  13.370 -0.1122 -0.4695 -1.7706
 6540TIP3    H241036   4.585   5.311  13.235 -0.9868  0.6431 -1.1288
 6541TIP3   OH241037   3.813   4.290  15.833 -0.2048  0.5340  0.2300
 6541TIP3    H141038   3.729   4.259  15.800  0.9555  0.1321 -2.5372
 6541TIP3    H241039   3.859   4.211  15.862  0.8757  0.1292 -2.3727
 6542TIP3   OH241040   5.251   6.562   2.786  0.4057 -0.0689  0.1472
 6542TIP3    H141041   5.207   6.477   2.786  1.6179 -0.7301  1.2619
 6542TIP3    H241042   5.314   6.557   2.714  0.7119 -0.2569  0.4240
 6543TIP3   OH241043   2.306   6.404  12.301  0.4884  0.1457 -0.4542
 6543TIP3    H141044   2.310   6.500  12.300 -0.1617  0.1830 -1.8828
 6543TIP3    H241045   2.213   6.384  12.289  0.7542 -0.6618 -1.2304
 6544TIP3   OH241046   2.249   2.557  11.261 -0.4241 -0.3267 -0.1154
 6544TIP3    H141047   2.273   2.620  11.194 -2.0088 -0.3964 -0.7974
 6544TIP3    H241048   2.233   2.476  11.213 -0.1828 -0.7597  0.5257
 6545TIP3   OH241049   0.688   5.852   0.988 -0.5042  0.6954 -0.7743
 6545TIP3    H141050   0.694   5.769   1.035 -0.9411 -0.7526 -3.0702
 6545TIP3    H241051   0.665   5.826   0.898 -1.8020  3.3804 -1.3092
 6546TIP3   OH241052   3.373   3.680  13.409  0.8546  0.2488  0.3435
 6546TIP3    H141053   3.457   3.678  13.455  0.9735 -1.7079  0.1117
 6546TIP3    H241054   3.396   3.691  13.317  0.7895  0.7335  0.3817
 6547TIP3   OH241055   1.510   0.023   5.285 -0.3833 -0.3700  0.0026
 6547TIP3    H141056   1.478  -0.018   5.366  0.4852 -0.7524  0.1567
 6547TIP3    H241057   1.468  -0.027   5.215 -1.3413  0.1222  0.2038
 6548TIP3   OH241058   1.369   3.763   4.876 -0.1319  0.0092 -0.2195
 6548TIP3    H141059   1.340   3.847   4.839 -0.1293  1.3965  2.6120
 6548TIP3    H241060   1.299   3.739   4.937  0.0474 -1.9219 -0.7251
 6549TIP3   OH241061   5.416   2.576  14.857 -0.0409  0.0765 -0.7239
 6549TIP3    H141062   5.326   2.580  14.826  0.0568  3.3759 -0.9002
 6549TIP3    H241063   5.454   2.500  14.813 -1.6632  0.8692 -3.6938
 6550TIP3   OH241064   5.411   5.587   0.017  0.7399 -0.9968  0.2566
 6550TIP3    H141065   5.382   5.623   0.102 -0.8105  0.6681 -0.9013
 6550TIP3    H241066   5.468   5.655  -0.019  0.2818 -1.0760 -0.6345
 6551TIP3   OH241067   6.273   0.329   3.387 -0.4290  0.0768 -0.1350
 6551TIP3    H141068   6.356   0.366   3.358  0.7208 -2.2992 -0.1761
 6551TIP3    H241069   6.298   0.258   3.446 -2.4661 -0.3636  0.2871
 6552TIP3   OH241070   4.308   4.892   6.488 -0.3671  0.3581  0.3171
 6552TIP3    H141071   4.298   4.797   6.497  1.1417  0.0758 -0.5003
 6552TIP3    H241072   4.343   4.921   6.572 -0.0675  0.0421  0.3069
 6553TIP3   OH241073   4.466   2.618  16.196 -0.0589  0.4799 -0.2407
 6553TIP3    H141074   4.476   2.591  16.105 -1.2633  0.1081 -0.2820
 6553TIP3    H241075   4.373   2.604  16.215  0.0657  1.0594  0.8827
 6554TIP3   OH241076   2.760   1.827  11.774  0.1745  0.3949  0.0692
 6554TIP3    H141077   2.723   1.776  11.846 -0.4256  0.8036  0.0614
 6554TIP3    H241078   2.853   1.805  11.774  0.1082  0.0930  0.7196
 6555TIP3   OH241079   4.653   3.335  16.030  0.0975  0.1667  0.1105
 6555TIP3    H141080   4.723   3.312  15.969 -0.0018  1.2438 -0.4425
 6555TIP3    H241081   4.630   3.253  16.074 -1.5048 -1.1953 -2.9930
 6556TIP3   OH241082   4.816   2.732  12.770  0.4187 -0.1237 -0.3095
 6556TIP3    H141083   4.865   2.813  12.782  0.9048 -0.6687  1.6985
 6556TIP3    H241084   4.849   2.697  12.687  3.9031 -0.7200  1.1349
 6557TIP3   OH241085   1.590   3.118  11.849 -0.3943 -0.0068 -0.6334
 6557TIP3    H141086   1.573   3.181  11.919  1.3883 -0.2655  0.0720
 6557TIP3    H241087   1.616   3.038  11.894 -0.3961 -0.5550 -1.5775
 6558TIP3   OH241088   3.196   2.541   5.696  0.0712  0.0618  0.2368
 6558TIP3    H141089   3.134   2.481   5.655  0.2707  0.4675 -0.6801
 6558TIP3    H241090   3.158   2.628   5.681  1.3274  0.3916 -1.1881
 6559TIP3   OH241091   1.573   3.943  15.788 -0.1869  0.7162  0.6403
 6559TIP3    H141092   1.567   3.906  15.700 -0.7363  1.4215  0.3707
 6559TIP3    H241093   1.658   3.915  15.820 -0.7118 -1.0421  0.5738
 6560TIP3   OH241094   0.060   5.949  13.949  0.2890 -0.2368 -0.4278
 6560TIP3    H141095   0.098   5.954  14.036  0.6824 -0.4836 -0.5861
 6560TIP3    H241096  -0.001   6.023  13.946 -3.4215 -2.8444  1.8089
 6561TIP3   OH241097   0.597   2.929   0.111 -0.3347 -0.3951 -0.1101
 6561TIP3    H141098   0.568   2.911   0.022 -1.7066  1.3431 -0.0724
 6561TIP3    H241099   0.669   2.992   0.100  0.6650 -1.4718 -0.0137
 6562TIP3   OH241100   1.809   4.259  16.330  0.2490  0.5967  0.2143
 6562TIP3    H141101   1.773   4.194  16.391  1.2680 -0.8379 -0.6386
 6562TIP3    H241102   1.880   4.213  16.286  0.4860  2.0663 -1.0104
 6563TIP3   OH241103   6.271   3.566  11.286  0.1342  0.2749  0.6003
 6563TIP3    H141104   6.297   3.479  11.317  1.5705  1.0506  1.7029
 6563TIP3    H241105   6.196   3.550  11.229  0.4923 -1.6987  0.6193
 6564TIP3   OH241106   3.300   2.812  16.819 -0.4908  0.1832 -0.0574
 6564TIP3    H141107   3.311   2.719  16.838  0.6662  0.6000  1.4912
 6564TIP3    H241108   3.246   2.814  16.740  1.0967 -1.8417 -1.2955
 6565TIP3   OH241109   1.092   4.852   5.615 -0.0350  0.2122 -0.4514
 6565TIP3    H141110   1.123   4.770   5.576 -0.2630  0.2976 -0.8217
 6565TIP3    H241111   1.006   4.830   5.651  0.4808 -0.0462  0.6501
 6566TIP3   OH241112   1.344   4.941  14.347  0.3934 -0.1333  0.0459
 6566TIP3    H141113   1.385   4.923  14.262 -0.1934 -0.2263 -0.2255
 6566TIP3    H241114   1.263   4.987  14.324  0.3814  0.1105  0.5746
 6567TIP3   OH241115   0.954   0.422  16.440  0.3561  0.7053  0.0259
 6567TIP3    H141116   1.018   0.430  16.370  0.8044 -0.4837  0.2907
 6567TIP3    H241117   0.869   0.431  16.396  0.5707 -1.4082 -0.9105
 6568TIP3   OH241118   3.158   4.621  15.378 -0.2695 -0.3883 -0.5005
 6568TIP3    H141119   3.179   4.686  15.445 -0.4122  0.2721 -1.0913
 6568TIP3    H241120   3.113   4.551  15.426 -0.1039 -0.0592  0.1400
 6569TIP3   OH241121   1.878   3.451  17.272 -0.4152  0.0914  0.0195
 6569TIP3    H141122   1.938   3.387  17.232 -0.6202  1.1969 -2.1980
 6569TIP3    H241123   1.855   3.510  17.200 -2.4650  0.9962  1.3401
 6570TIP3   OH241124   2.225   6.522  16.831 -0.3954 -0.1421 -0.3357
 6570TIP3    H141125   2.219   6.561  16.919 -0.4921  1.5658 -1.0586
 6570TIP3    H241126   2.316   6.533  16.806 -0.6478  0.6230 -0.9673
 6571TIP3   OH241127   1.891   6.277  15.673 -0.0586 -0.2939 -0.2467
 6571TIP3    H141128   1.861   6.257  15.584  1.7310 -1.7375 -0.5935
 6571TIP3    H241129   1.881   6.194  15.720 -0.0896  0.2058  0.6513
 6572TIP3   OH241130   5.860   0.517   3.857 -0.3664 -0.5945 -0.5078
 6572TIP3    H141131   5.820   0.431   3.869 -0.4861 -0.5461 -0.5571
 6572TIP3    H241132   5.891   0.542   3.944 -0.5525 -0.5774 -0.4467
 6573TIP3   OH241133   0.272   4.385   6.728  0.8313  0.2159 -0.0945
 6573TIP3    H141134   0.196   4.393   6.785  0.4517 -0.7937 -0.4358
 6573TIP3    H241135   0.345   4.421   6.780 -0.0070  2.0160 -0.1075
 6574TIP3   OH241136   0.166   1.898   3.588  0.1810 -0.6361 -0.1776
 6574TIP3    H141137   0.087   1.924   3.540  1.0756  0.1034 -1.3250
 6574TIP3    H241138   0.199   1.980   3.625  0.1212 -1.0264  0.7492
 6575TIP3   OH241139   4.148   4.716  17.211 -0.3750 -0.1793 -0.3121
 6575TIP3    H141140   4.149   4.663  17.290 -1.2261  0.1071 -0.0983
 6575TIP3    H241141   4.166   4.653  17.140  0.3834 -0.4328  0.1014
 6576TIP3   OH241142   1.657   6.250  16.496  0.0218 -0.5089 -0.3032
 6576TIP3    H141143   1.708   6.184  16.449 -0.9857 -0.8072 -1.0358
 6576TIP3    H241144   1.669   6.330  16.445 -1.9897 -1.0885 -1.8464
 6577TIP3   OH241145   4.307   4.090   2.774  0.3066 -0.3614 -0.4861
 6577TIP3    H141146   4.346   4.155   2.832  1.3631 -1.8845  0.5839
 6577TIP3    H241147   4.322   4.126   2.686  0.0054  1.2734  0.0892
 6578TIP3   OH241148   1.792   0.941   4.135  0.1169  0.3177  0.4820
 6578TIP3    H141149   1.877   0.948   4.092  0.9950 -1.9692  1.7011
 6578TIP3    H241150   1.758   1.031   4.136  2.0259  1.1207 -0.9501
 6579TIP3   OH241151   3.827   5.484  13.919 -0.2183 -0.8360 -0.6890
 6579TIP3    H141152   3.809   5.406  13.973 -0.7292  0.3646  0.9669
 6579TIP3    H241153   3.921   5.479  13.902  0.8584  0.5077  3.4800
 6580TIP3   OH241154   5.807   3.217   4.362 -0.2602 -0.3566  0.4184
 6580TIP3    H141155   5.812   3.250   4.272  0.1452  0.3553  0.6926
 6580TIP3    H241156   5.844   3.129   4.357 -1.3474 -0.7812 -0.3264
 6581TIP3   OH241157   3.810   3.900  13.760  0.0441  0.1464 -0.2850
 6581TIP3    H141158   3.735   3.958  13.753  0.4679  0.7441 -0.0289
 6581TIP3    H241159   3.871   3.930  13.693 -0.8852 -1.8569 -2.1753
 6582TIP3   OH241160   4.615   1.910  15.900  0.1115 -0.7768 -0.3376
 6582TIP3    H141161   4.539   1.959  15.930  0.7930 -0.3597  0.7601
 6582TIP3    H241162   4.667   1.895  15.979  1.2447 -0.9350 -1.0866
 6583TIP3   OH241163   5.485   4.736  13.271  0.4028 -0.0558 -0.2137
 6583TIP3    H141164   5.461   4.823  13.240 -1.6812 -0.4395  0.1810
 6583TIP3    H241165   5.402   4.695  13.297  1.1935 -2.4956 -1.1960
 6584TIP3   OH241166   0.397   4.196  12.307  0.2259 -0.0498  0.3830
 6584TIP3    H141167   0.443   4.263  12.257 -0.7380 -0.9892 -1.8738
 6584TIP3    H241168   0.306   4.225  12.310 -0.5395 -1.9117 -2.0136
 6585TIP3   OH241169   6.565   0.940   1.671 -0.4795  0.2674  0.4881
 6585TIP3    H141170   6.568   0.903   1.760 -0.8393  1.5000  1.0411
 6585TIP3    H241171   6.473   0.934   1.645 -0.6551  1.2577  0.8226
 6586TIP3   OH241172   3.810   4.462   4.176 -0.0570  0.4117  0.3417
 6586TIP3    H141173   3.868   4.476   4.251  0.5720 -1.6802  0.3030
 6586TIP3    H241174   3.849   4.514   4.106  1.0989 -0.0281  0.6371
 6587TIP3   OH241175   5.406   1.957   0.571  0.8639 -0.2413 -0.0474
 6587TIP3    H141176   5.345   1.917   0.509  1.1328 -0.6461 -0.0584
 6587TIP3    H241177   5.386   2.051   0.568  0.1659 -0.3839  0.0414
 6588TIP3   OH241178   3.472   1.728  14.923 -0.0115 -0.0748  0.3091
 6588TIP3    H141179   3.511   1.815  14.929  0.0178  0.1480 -2.0539
 6588TIP3    H241180   3.378   1.743  14.938 -0.1135  0.5100 -0.8283
 6589TIP3   OH241181   4.848   0.463  11.488  0.2075 -0.0619 -0.0985
 6589TIP3    H141182   4.804   0.548  11.495  1.6834  0.6354  1.6062
 6589TIP3    H241183   4.941   0.483  11.502  0.7798 -1.8083 -1.0156
 6590TIP3   OH241184   4.546   2.300  13.733 -0.2562  0.0620 -0.3785
 6590TIP3    H141185   4.463   2.338  13.762 -2.0006 -3.1027 -0.8221
 6590TIP3    H241186   4.600   2.299  13.812 -1.0315  1.1295  0.1982
 6591TIP3   OH241187   1.100   6.733  14.494  0.2507 -0.1619  0.3815
 6591TIP3    H141188   1.068   6.662  14.549 -0.1682 -0.3489 -0.0970
 6591TIP3    H241189   1.196   6.728  14.501  0.2514 -1.2576 -0.2468
 6592TIP3   OH241190   5.160   1.862   0.943  0.5484  0.1031  0.3189
 6592TIP3    H141191   5.244   1.908   0.941  1.6287 -1.7408  1.0518
 6592TIP3    H241192   5.149   1.830   0.854  0.0302  1.3291 -0.0714
 6593TIP3   OH241193   4.150   3.318  16.289  0.1577  0.4464 -0.0147
 6593TIP3    H141194   4.212   3.336  16.360  1.5203 -0.0956 -1.0248
 6593TIP3    H241195   4.200   3.265  16.227 -1.1946  0.3999 -1.0944
 6594TIP3   OH241196   1.906   1.790  13.009  0.4235 -0.1265 -0.0019
 6594TIP3    H141197   1.843   1.776  12.939  0.2565 -0.0188  0.1269
 6594TIP3    H241198   1.918   1.885  13.013 -1.6950  0.1616  1.9583
 6595TIP3   OH241199   1.836   6.321  12.519 -0.1077  0.1531  0.1765
 6595TIP3    H141200   1.752   6.327  12.563 -0.8658 -2.1296 -0.8065
 6595TIP3    H241201   1.901   6.320  12.589 -0.5373  4.5483  0.9139
 6596TIP3   OH241202   6.292   2.134   1.813  0.4540 -0.2464  0.2996
 6596TIP3    H141203   6.344   2.053   1.820  0.6895  0.0190  2.0628
 6596TIP3    H241204   6.269   2.155   1.903 -0.7280  0.9564 -0.2554
 6597TIP3   OH241205   0.972   1.628  14.636 -0.1809  0.1663 -0.6427
 6597TIP3    H141206   1.054   1.660  14.597 -0.1001  0.7185 -0.0315
 6597TIP3    H241207   0.995   1.608  14.726 -0.8441  0.8310 -0.3200
 6598TIP3   OH241208   4.419   3.556   5.462  0.4788  0.6472 -0.0591
 6598TIP3    H141209   4.326   3.572   5.449  0.5177  1.3229  0.4119
 6598TIP3    H241210   4.424   3.513   5.548  0.5710  0.2387 -0.2667
 6599TIP3   OH241211   4.323   2.683   2.696  0.3530 -0.0417  1.1600
 6599TIP3    H141212   4.231   2.664   2.717  0.2118  0.5912  1.1100
 6599TIP3    H241213   4.370   2.663   2.777  0.4559 -2.2841  0.6188
 6600TIP3   OH241214   4.185   3.895   3.589  0.0177  0.6054  0.0735
 6600TIP3    H141215   4.210   3.987   3.595 -1.9930  1.0875  3.5265
 6600TIP3    H241216   4.261   3.847   3.622  0.5904  1.0940 -0.5012
 6601TIP3   OH241217   5.952   3.494   1.272  0.3547  0.6000  0.4964
 6601TIP3    H141218   5.913   3.576   1.301 -0.6878  0.6878 -0.9955
 6601TIP3    H241219   6.026   3.520   1.217 -0.5418  0.6104 -0.7506
 6602TIP3   OH241220   5.922   1.837   5.406 -0.7418 -0.2000 -0.1912
 6602TIP3    H141221   5.973   1.805   5.332  0.3147  1.1858 -0.1200
 6602TIP3    H241222   5.978   1.904   5.446 -2.9896  2.1245 -0.6793
 6603TIP3   OH241223   5.424   1.861   0.833 -0.6661  0.1816 -0.7563
 6603TIP3    H141224   5.498   1.800   0.833 -1.1405 -0.4474  0.6826
 6603TIP3    H241225   5.409   1.881   0.741  0.2278 -0.9893 -1.1780
 6604TIP3   OH241226   3.182   1.589   1.731 -0.2860  0.0130  0.0795
 6604TIP3    H141227   3.246   1.564   1.798  0.0826  1.2851  0.2306
 6604TIP3    H241228   3.135   1.663   1.770  0.6236  1.4528 -1.4397
 6605TIP3   OH241229   0.140   2.995   3.464  0.2957  0.0249 -0.3928
 6605TIP3    H141230   0.196   3.049   3.408  0.5132  0.8272  0.5585
 6605TIP3    H241231   0.200   2.956   3.528 -0.1357  0.4356  0.2818
 6606TIP3   OH241232   6.688   4.640   1.251  0.0722  0.4322 -0.1030
 6606TIP3    H141233   6.603   4.679   1.271  1.0443  2.8248 -0.3382
 6606TIP3    H241234   6.734   4.639   1.334  0.0119 -0.4469 -0.0668
 6607TIP3   OH241235   1.146   0.412   3.514  0.8703  0.2247 -0.6356
 6607TIP3    H141236   1.228   0.365   3.527  0.2762 -0.2954  1.6826
 6607TIP3    H241237   1.111   0.426   3.602 -1.3048  0.8713 -1.5100
 6608TIP3   OH241238   2.376   3.065  13.049  0.2367 -0.5952  0.1075
 6608TIP3    H141239   2.324   2.988  13.070 -1.0818  0.2474  0.0323
 6608TIP3    H241240   2.313   3.129  13.017  1.3885  0.3024 -0.4561
 6609TIP3   OH241241   3.674   5.261   5.832  0.3444 -0.3895 -0.1262
 6609TIP3    H141242   3.692   5.344   5.877 -1.9501 -0.9503  2.0832
 6609TIP3    H241243   3.718   5.195   5.885 -1.2551 -0.9293  0.5860
 6610TIP3   OH241244   4.415   3.652  14.664  0.5184  0.7717  0.6965
 6610TIP3    H141245   4.353   3.687  14.728  0.1088  1.4458 -0.0529
 6610TIP3    H241246   4.497   3.697  14.684  0.1740  1.6416  0.2036
 6611TIP3   OH241247   0.768   2.011  11.646 -0.0018  0.0479 -0.7325
 6611TIP3    H141248   0.780   1.974  11.558  0.7280 -0.8515 -0.2717
 6611TIP3    H241249   0.849   1.990  11.692 -0.3757  0.5159  0.1641
 6612TIP3   OH241250   1.170   6.334  12.265 -0.3455  0.4537  0.1258
 6612TIP3    H141251   1.191   6.327  12.172  0.0323 -2.2404  0.3571
 6612TIP3    H241252   1.251   6.314  12.311 -1.1464 -0.8892  1.0236
 6613TIP3   OH241253   4.257   5.656  10.690 -0.1388  0.2367 -0.4301
 6613TIP3    H141254   4.198   5.667  10.764  0.2660  0.0812 -0.0804
 6613TIP3    H241255   4.322   5.726  10.699 -0.8368  1.0451 -1.3806
 6614TIP3   OH241256   1.587   6.571  11.226  0.1496 -0.3577  0.4334
 6614TIP3    H141257   1.597   6.636  11.294  0.1012 -0.2125  0.3024
 6614TIP3    H241258   1.617   6.614  11.146  1.3206 -0.9112  0.5586
 6615TIP3   OH241259   2.871   0.586  16.316  0.7828 -0.3639  0.7476
 6615TIP3    H141260   2.805   0.598  16.384 -0.6279 -2.4241 -0.1632
 6615TIP3    H241261   2.900   0.674  16.294 -2.2923  0.7112  0.6009
 6616TIP3   OH241262   6.142   2.937  17.088 -0.0435  0.1754  0.1892
 6616TIP3    H141263   6.047   2.928  17.093 -0.1628  1.2826  0.2176
 6616TIP3    H241264   6.167   2.972  17.174  0.5224 -1.0143  0.5362
 6617TIP3   OH241265   5.961   5.184  16.317 -0.6327 -0.2686 -0.5513
 6617TIP3    H141266   5.932   5.157  16.404 -4.1333  1.3727 -1.0101
 6617TIP3    H241267   6.004   5.268  16.331 -2.2693  0.5939 -0.4199
 6618TIP3   OH241268   1.656   2.284  15.163 -0.1413  0.5713  0.4723
 6618TIP3    H141269   1.610   2.363  15.134 -0.1732  0.9631  1.5308
 6618TIP3    H241270   1.687   2.305  15.251 -0.6712 -0.8006  1.0283
 6619TIP3   OH241271   6.456   3.478  16.591  0.1959  0.3168 -0.3562
 6619TIP3    H141272   6.384   3.468  16.653  0.4368  1.0710  0.0553
 6619TIP3    H241273   6.526   3.520  16.642  1.2450 -1.1702 -0.5151
 6620TIP3   OH241274   3.093   2.788   2.484  0.2435 -0.0903  0.1886
 6620TIP3    H141275   3.166   2.841   2.450  0.7156 -1.4449 -0.9995
 6620TIP3    H241276   3.032   2.784   2.411  0.2799 -1.2795  0.2137
 6621TIP3   OH241277   4.053   4.867   3.724  0.0471  0.3458 -0.2148
 6621TIP3    H141278   4.072   4.781   3.760 -2.0542 -0.0444  0.0429
 6621TIP3    H241279   4.074   4.860   3.630 -2.9537 -1.4398 -0.8516
 6622TIP3   OH241280   3.273   2.961   3.500  0.3827  0.5442  0.5953
 6622TIP3    H141281   3.204   2.999   3.554 -1.4549  0.1903 -1.3775
 6622TIP3    H241282   3.338   3.032   3.491 -0.8499  1.7181  0.5960
 6623TIP3   OH241283   0.108   2.501   1.082 -0.0462 -0.1542  0.4374
 6623TIP3    H141284   0.102   2.407   1.095  0.3665 -0.1598  0.6032
 6623TIP3    H241285   0.124   2.512   0.988 -1.2122 -0.1943  0.2200
 6624TIP3   OH241286   0.929   1.048  15.537  0.2888  0.3242 -0.0612
 6624TIP3    H141287   0.925   1.143  15.523 -1.2142  0.2069 -0.6410
 6624TIP3    H241288   0.946   1.012  15.450  1.4402  0.0667  0.2517
 6625TIP3   OH241289   3.486   4.438   4.798  0.0997  0.1109  0.2324
 6625TIP3    H141290   3.398   4.406   4.817  0.3186 -0.4646  0.2920
 6625TIP3    H241291   3.543   4.361   4.808  0.5232  0.3286 -0.4250
 6626TIP3   OH241292   5.100   4.046   0.551 -0.3799  0.1990 -0.7946
 6626TIP3    H141293   5.155   4.102   0.497  0.0176 -0.2561 -0.8664
 6626TIP3    H241294   5.123   3.957   0.525 -1.6842  0.0091 -1.3598
 6627TIP3   OH241295   5.489   6.196  11.809  0.3198  0.5881 -0.1149
 6627TIP3    H141296   5.524   6.212  11.722 -2.7904  1.2523 -1.3576
 6627TIP3    H241297   5.498   6.280  11.854  0.6510  0.6313 -0.2550
 6628TIP3   OH241298   3.946   5.880   2.894  0.0804  0.1664 -0.6304
 6628TIP3    H141299   3.943   5.925   2.810 -0.2062 -0.4742 -0.9737
 6628TIP3    H241300   4.016   5.816   2.884 -0.7651 -0.7564 -0.8326
 6629TIP3   OH241301   3.736   3.554   5.460  0.2977  0.1100  0.3321
 6629TIP3    H141302   3.753   3.560   5.365  0.3390 -0.7670  0.2782
 6629TIP3    H241303   3.641   3.543   5.466  0.3689 -0.4820  0.3609
 6630TIP3   OH241304   0.705   2.697  16.490 -0.4559 -0.4685  0.7994
 6630TIP3    H141305   0.662   2.736  16.566 -1.0587 -2.0551  1.3163
 6630TIP3    H241306   0.760   2.627  16.528 -0.3577 -0.9314 -0.1799
 6631TIP3   OH241307   4.220   0.341  13.075 -0.9428 -0.1896 -0.0451
 6631TIP3    H141308   4.129   0.320  13.095 -1.0399  0.1239 -0.1657
 6631TIP3    H241309   4.266   0.257  13.083 -1.3196 -0.4340 -0.4246
 6632TIP3   OH241310   3.893   0.338  15.199  0.2017  0.4998  0.5159
 6632TIP3    H141311   3.976   0.382  15.219  0.4012  0.0765  0.6487
 6632TIP3    H241312   3.914   0.280  15.126  0.5568 -1.1214  1.8407
 6633TIP3   OH241313   6.168   6.041  17.103  0.4277 -0.1949  0.0664
 6633TIP3    H141314   6.218   6.001  17.032 -1.4716 -1.1948 -0.7864
 6633TIP3    H241315   6.181   5.982  17.178 -0.7963 -1.4365 -0.6462
 6634TIP3   OH241316   6.008   2.747   5.371 -0.3220 -0.2805 -0.0341
 6634TIP3    H141317   6.068   2.737   5.297 -0.1224  0.8914 -0.0459
 6634TIP3    H241318   5.957   2.825   5.351 -0.2043  0.1102  1.1024
 6635TIP3   OH241319   0.992   3.939  14.229 -0.0494  0.3439 -0.5708
 6635TIP3    H141320   0.947   3.907  14.151 -0.9285  0.6633 -0.2116
 6635TIP3    H241321   0.981   4.034  14.225  1.2842  0.4943 -0.8838
 6636TIP3   OH241322   4.110   2.801  13.214  0.0525 -0.8293  0.0078
 6636TIP3    H141323   4.122   2.830  13.124 -0.5859  2.3550  0.8162
 6636TIP3    H241324   4.151   2.870  13.267  0.7880 -2.8097  2.1773
 6637TIP3   OH241325   6.225   4.551  13.017  0.4227  0.5523  0.4928
 6637TIP3    H141326   6.233   4.576  12.925  2.1706  0.0663  0.4814
 6637TIP3    H241327   6.133   4.524  13.026  0.3629  0.0361 -1.2502
 6638TIP3   OH241328   1.061   3.361  15.028  0.7768  0.1986  0.4312
 6638TIP3    H141329   1.046   3.332  15.118  0.8283  0.4382  0.5172
 6638TIP3    H241330   1.138   3.312  14.999 -0.0101 -0.8695  0.0604
 6639TIP3   OH241331   4.749   2.002  13.055 -0.2039  0.1777 -0.9478
 6639TIP3    H141332   4.826   2.057  13.060 -0.5466  0.6399 -0.7325
 6639TIP3    H241333   4.781   1.914  13.074  0.3710  0.2734 -1.4599
 6640TIP3   OH241334   1.485   2.354   3.293  0.4276  0.0564  0.1934
 6640TIP3    H141335   1.517   2.398   3.215 -0.0090  0.6649  0.3547
 6640TIP3    H241336   1.391   2.347   3.280  0.4786 -0.7957  0.1912
 6641TIP3   OH241337   2.881   4.103   6.615  0.5011 -0.1617  0.0166
 6641TIP3    H141338   2.963   4.070   6.651  0.5213  0.9958  1.0833
 6641TIP3    H241339   2.840   4.026   6.576  1.7732 -0.8930  0.0475
 6642TIP3   OH241340   3.465   2.154  15.760  0.2934  0.3016  0.2434
 6642TIP3    H141341   3.543   2.136  15.707 -0.6605 -1.7483 -0.5585
 6642TIP3    H241342   3.402   2.190  15.698 -0.2292 -0.4173  0.3470
 6643TIP3   OH241343   2.557   5.315   1.285  0.6967 -0.1727  0.0070
 6643TIP3    H141344   2.608   5.247   1.330 -0.9435 -1.7562 -0.3752
 6643TIP3    H241345   2.622   5.366   1.236  1.8646 -3.1841 -1.8857
 6644TIP3   OH241346   3.935   5.178  13.493 -0.5426  0.6804  0.2121
 6644TIP3    H141347   4.016   5.221  13.517 -0.6653  0.4902  0.9973
 6644TIP3    H241348   3.910   5.128  13.571 -0.5860 -0.5257 -0.5436
 6645TIP3   OH241349   3.159   4.662  12.857  0.1098  0.0023 -0.3461
 6645TIP3    H141350   3.137   4.749  12.891 -0.3562 -0.5092  0.7208
 6645TIP3    H241351   3.183   4.612  12.935  0.0120 -0.9330 -0.9084
 6646TIP3   OH241352   3.110   4.091  12.418 -0.1019  0.4953  0.3968
 6646TIP3    H141353   3.096   4.108  12.511 -0.1563 -1.8520  0.8955
 6646TIP3    H241354   3.206   4.091  12.407 -0.0912  3.0497 -0.1033
 6647TIP3   OH241355   0.243   5.977   1.115  0.2484 -0.0890  0.0816
 6647TIP3    H141356   0.282   6.064   1.120  0.1014  0.0769 -1.1934
 6647TIP3    H241357   0.163   5.990   1.064  0.6613 -1.1040 -0.8571
 6648TIP3   OH241358   3.637   5.794  17.264  0.1335  0.9086  0.5340
 6648TIP3    H141359   3.713   5.783  17.207  1.6545  4.2634  1.6424
 6648TIP3    H241360   3.650   5.732  17.335 -0.5046 -1.5616 -1.3751
 6649TIP3   OH241361   4.300   2.455   3.362 -0.0839 -0.0125  0.1651
 6649TIP3    H141362   4.230   2.519   3.347 -1.0585 -0.8707  0.9354
 6649TIP3    H241363   4.254   2.373   3.378  1.0765 -0.4577  1.3816
 6650TIP3   OH241364   5.132   3.457   4.098 -0.3953  0.1101  0.1253
 6650TIP3    H141365   5.223   3.483   4.115 -0.1906 -0.0666 -0.6423
 6650TIP3    H241366   5.124   3.462   4.003 -0.1483 -3.2451 -0.1978
 6651TIP3   OH241367   2.859   2.895  13.551 -0.0229  0.5279  0.0264
 6651TIP3    H141368   2.836   2.895  13.459  1.8464  0.6896 -0.4780
 6651TIP3    H241369   2.901   2.811  13.566 -0.8451  0.2540  0.8938
 6652TIP3   OH241370   6.140   5.011   0.925 -0.4772  0.1535 -0.4847
 6652TIP3    H141371   6.156   4.986   0.834 -0.4819  0.2758 -0.5190
 6652TIP3    H241372   6.178   4.940   0.977  1.1311  0.9389 -0.5261
 6653TIP3   OH241373   0.049   2.170   0.692  0.2835 -0.1827  0.5489
 6653TIP3    H141374  -0.012   2.243   0.686  1.0579  0.3579 -3.1850
 6653TIP3    H241375  -0.008   2.093   0.703 -0.9714  0.5486 -0.4411
 6654TIP3   OH241376   1.612   2.531  15.046  0.0616 -0.2071  0.4457
 6654TIP3    H141377   1.658   2.610  15.076  0.9940  0.2594 -1.9998
 6654TIP3    H241378   1.522   2.544  15.075  0.5130  1.0285  1.4171
 6655TIP3   OH241379   2.058   3.293  14.762 -0.6586  0.1483 -0.0215
 6655TIP3    H141380   1.991   3.282  14.695 -2.2821  0.5740  1.4345
 6655TIP3    H241381   2.141   3.278  14.717 -1.7046 -0.0590 -1.9764
 6656TIP3   OH241382   6.244   2.194   2.816  0.1007 -0.0434  0.4996
 6656TIP3    H141383   6.245   2.166   2.907  1.9620  1.4252  1.0038
 6656TIP3    H241384   6.271   2.117   2.766  0.9093 -0.3386  1.3794
 6657TIP3   OH241385   0.798   6.554  13.027 -0.1738  0.0802  0.2904
 6657TIP3    H141386   0.889   6.548  13.055  0.4605  2.4209 -1.0141
 6657TIP3    H241387   0.798   6.519  12.938 -0.8758 -1.3143  0.8211
 6658TIP3   OH241388   6.622   2.942   3.469 -0.6309  0.2305 -0.7030
 6658TIP3    H141389   6.711   2.977   3.474 -1.1199  1.4172 -0.1157
 6658TIP3    H241390   6.627   2.857   3.513 -0.1202  0.9734  0.7183
 6659TIP3   OH241391   2.613   5.779  15.080  0.4040 -0.1732  0.0709
 6659TIP3    H141392   2.523   5.747  15.076  0.1826  0.3125  0.8880
 6659TIP3    H241393   2.608   5.867  15.043  0.3246  0.2695  1.0943
 6660TIP3   OH241394   4.765   1.623  14.934  0.1663  0.5844 -0.1471
 6660TIP3    H141395   4.712   1.578  14.868  1.4332  0.9253 -1.4426
 6660TIP3    H241396   4.725   1.709  14.942 -1.6842 -0.3531  1.6385
 6661TIP3   OH241397   5.801   2.216   0.037 -0.5442  0.0084  0.0167
 6661TIP3    H141398   5.749   2.251  -0.036 -0.0125  0.7130 -0.0385
 6661TIP3    H241399   5.892   2.232   0.011 -0.3538  0.7974  1.0825
 6662TIP3   OH241400   6.740   1.501   0.711  0.0171 -0.8116 -0.5963
 6662TIP3    H141401   6.718   1.564   0.780  1.1435 -0.4035 -0.5945
 6662TIP3    H241402   6.699   1.420   0.739  0.8235 -0.7721  0.7955
 6663TIP3   OH241403   1.528   3.234   3.667  0.0604  0.0031  0.4065
 6663TIP3    H141404   1.473   3.187   3.604 -0.1008  1.5384 -0.6619
 6663TIP3    H241405   1.537   3.174   3.741 -1.4696 -1.0338 -0.2020
 6664TIP3   OH241406   3.558   0.244   2.653 -0.7852  0.0601  0.0171
 6664TIP3    H141407   3.606   0.180   2.600 -0.1668  0.4232  0.1215
 6664TIP3    H241408   3.533   0.197   2.732 -3.7346 -1.1727 -1.5184
 6665TIP3   OH241409   5.308   5.471  16.722 -0.0147  0.0728  0.1233
 6665TIP3    H141410   5.304   5.415  16.799  0.2509  1.0690  0.8944
 6665TIP3    H241411   5.321   5.559  16.758 -1.9891  0.8631 -0.9614
 6666TIP3   OH241412   1.318   5.100   3.353  0.0756 -0.5636 -0.1188
 6666TIP3    H141413   1.331   5.184   3.398  3.1022 -1.4056  0.7345
 6666TIP3    H241414   1.360   5.112   3.267 -0.4985 -0.8690 -0.4514
 6667TIP3   OH241415   6.501   1.505   5.938  0.2690 -0.6223 -0.5568
 6667TIP3    H141416   6.594   1.526   5.934  0.5354 -1.3229  1.1401
 6667TIP3    H241417   6.478   1.514   6.031 -1.1716 -1.1927 -0.8326
 6668TIP3   OH241418   4.571   0.054  11.092 -0.8324  0.3602  0.1652
 6668TIP3    H141419   4.506   0.122  11.109 -0.0859  1.4923 -1.2721
 6668TIP3    H241420   4.520  -0.026  11.078 -1.7411  0.6791  1.4822
 6669TIP3   OH241421   5.671   0.836   1.395 -0.3785 -0.1449 -0.2068
 6669TIP3    H141422   5.647   0.928   1.382  1.1014  0.1843 -0.8498
 6669TIP3    H241423   5.644   0.792   1.315 -1.8488 -0.4695  0.4334
 6670TIP3   OH241424   0.550   0.924  15.809 -0.0785  0.0696 -0.1355
 6670TIP3    H141425   0.528   0.895  15.898 -2.2331 -0.4565 -0.7789
 6670TIP3    H241426   0.479   0.984  15.786  1.1028  1.1568 -1.0834
 6671TIP3   OH241427   4.484   3.274  12.130 -0.0954  0.1351  0.2811
 6671TIP3    H141428   4.493   3.276  12.034 -1.3410 -0.6760  0.1118
 6671TIP3    H241429   4.501   3.364  12.158 -0.7517  0.6335 -0.8311
 6672TIP3   OH241430   1.726   2.789  14.723  0.0826  0.0513 -0.2904
 6672TIP3    H141431   1.732   2.811  14.816 -0.5278 -1.6183  0.1809
 6672TIP3    H241432   1.726   2.874  14.679 -2.1840  1.0499  1.3826
 6673TIP3   OH241433   1.273   4.441   2.213  0.4019  0.3685  0.6032
 6673TIP3    H141434   1.255   4.463   2.304 -0.9007  0.6224  0.3050
 6673TIP3    H241435   1.282   4.525   2.169 -0.7497  0.3071  0.1911
 6674TIP3   OH241436   0.255   4.185   1.527 -0.0074  0.1664  0.7462
 6674TIP3    H141437   0.234   4.121   1.460  2.3932 -1.5161  1.4817
 6674TIP3    H241438   0.232   4.143   1.609  0.7138  0.6024  1.1878
 6675TIP3   OH241439   6.200   0.214   5.703  0.0740 -0.4639 -0.0181
 6675TIP3    H141440   6.248   0.134   5.724 -0.1983 -0.6387 -0.0454
 6675TIP3    H241441   6.184   0.256   5.788  2.1242  0.7010 -0.1594
 6676TIP3   OH241442   3.035   1.250  15.090  0.5306 -0.4078  0.2541
 6676TIP3    H141443   2.961   1.265  15.032  0.2702 -0.8676  0.4640
 6676TIP3    H241444   3.041   1.329  15.143  1.0847  0.2275 -0.7386
 6677TIP3   OH241445   2.766   2.708  11.961  0.4254 -0.3338 -0.3943
 6677TIP3    H141446   2.783   2.765  12.036  0.1029  0.7833 -1.1232
 6677TIP3    H241447   2.737   2.625  11.998  0.0627  0.2717  0.7073
 6678TIP3   OH241448   2.694   3.294  13.795 -0.7169  0.2638 -0.0547
 6678TIP3    H141449   2.775   3.247  13.815 -0.0022  0.0324 -3.0140
 6678TIP3    H241450   2.720   3.385  13.782 -0.7562  0.0635 -1.7156
 6679TIP3   OH241451   2.006   5.795  15.655  0.2452 -0.1055 -0.4897
 6679TIP3    H141452   2.033   5.836  15.737  0.6660 -2.0703  0.4017
 6679TIP3    H241453   1.972   5.868  15.602  0.0739  1.2298  1.3556
 6680TIP3   OH241454   2.569   6.386  16.403  0.7488 -1.2036 -0.2675
 6680TIP3    H141455   2.479   6.415  16.387  0.8189 -0.5758  0.4096
 6680TIP3    H241456   2.588   6.325  16.332  0.5320  0.2767 -1.6280
 6681TIP3   OH241457   5.240   3.653   1.050  0.2593 -0.3603 -0.2176
 6681TIP3    H141458   5.315   3.603   1.081  0.2493  0.5095  1.3045
 6681TIP3    H241459   5.273   3.742   1.040 -0.4361 -0.0707  0.0066
 6682TIP3   OH241460   4.927   1.389  13.734  0.5668  0.3393 -0.1522
 6682TIP3    H141461   4.904   1.474  13.772 -0.1387 -0.1647  0.5502
 6682TIP3    H241462   5.009   1.365  13.777  0.0092 -0.0157  0.7121
 6683TIP3   OH241463   1.874   5.290   2.979 -0.3010  0.0893 -0.0579
 6683TIP3    H141464   1.791   5.256   2.946  0.5901 -1.4954 -0.7788
 6683TIP3    H241465   1.895   5.363   2.921 -1.2508  0.6186  0.2388
 6684TIP3   OH241466   5.938   1.251  14.084 -0.4081  0.0276 -0.0730
 6684TIP3    H141467   6.020   1.299  14.074 -1.2330  1.9227  1.5353
 6684TIP3    H241468   5.893   1.263  14.000 -0.1326  1.1834 -0.0730
 6685TIP3   OH241469   3.141   5.374   2.821  0.8438 -0.0102 -0.2593
 6685TIP3    H141470   3.213   5.383   2.884 -1.2229  3.1392  1.9150
 6685TIP3    H241471   3.131   5.461   2.782 -1.8946 -0.2736 -0.3365
 6686TIP3   OH241472   1.645   2.065   4.368 -0.3573  0.3019 -0.2973
 6686TIP3    H141473   1.621   1.975   4.348  1.1390 -0.6314  1.7674
 6686TIP3    H241474   1.679   2.100   4.286 -0.0121 -1.3473 -0.8791
 6687TIP3   OH241475   6.731   6.721  12.271 -0.2005  0.1244 -0.3208
 6687TIP3    H141476   6.706   6.633  12.244  1.7784 -1.0212  1.3125
 6687TIP3    H241477   6.709   6.776  12.196 -0.4487 -1.9118 -1.8207
 6688TIP3   OH241478   6.262   0.025   5.199 -0.0007  0.1137  0.3815
 6688TIP3    H141479   6.258   0.109   5.152 -0.2406 -0.0568  0.0892
 6688TIP3    H241480   6.289  -0.038   5.132  1.8191  0.2201  0.9805
 6689TIP3   OH241481   0.731   5.336   5.364 -1.0906 -0.0078  0.8975
 6689TIP3    H141482   0.776   5.286   5.296 -0.3711  1.0897  0.5483
 6689TIP3    H241483   0.792   5.406   5.388 -2.3537  1.1629  0.8499
 6690TIP3   OH241484   5.812   0.227   4.656  0.2456  0.0850 -0.2583
 6690TIP3    H141485   5.760   0.282   4.597 -1.2191  1.1358  1.8510
 6690TIP3    H241486   5.878   0.287   4.692  0.0802 -0.0986  0.3655
 6691TIP3   OH241487   2.649   4.870  13.729  0.4237  0.3350 -0.2721
 6691TIP3    H141488   2.639   4.775  13.732  0.4608  0.3403  0.0837
 6691TIP3    H241489   2.694   4.886  13.647 -0.8851  0.1729 -1.0411
 6692TIP3   OH241490   6.247   4.459   2.945  0.3087  0.2611 -0.6043
 6692TIP3    H141491   6.170   4.449   2.890 -0.0860 -0.9134  0.1308
 6692TIP3    H241492   6.242   4.549   2.979  0.6936  1.0929 -2.6330
 6693TIP3   OH241493   2.593   5.755  11.613 -0.4891  0.4417 -0.1023
 6693TIP3    H141494   2.553   5.819  11.672 -1.1858  1.6959 -1.8726
 6693TIP3    H241495   2.524   5.690  11.599  0.4085 -1.1530  2.1721
 6694TIP3   OH241496   4.061   2.456   1.477 -0.9036 -0.0448 -0.1463
 6694TIP3    H141497   4.076   2.548   1.455 -1.8218 -0.4649 -2.8408
 6694TIP3    H241498   4.122   2.438   1.549  0.0197  2.3712 -0.2477
 6695TIP3   OH241499   6.105   2.763  13.258  0.3693 -0.1958 -0.6664
 6695TIP3    H141500   6.192   2.771  13.297 -0.3097 -1.6275  1.2488
 6695TIP3    H241501   6.093   2.670  13.243 -0.3123  0.1072 -2.2546
 6696TIP3   OH241502   4.563   3.875   4.993 -0.2482  0.4332  0.1933
 6696TIP3    H141503   4.530   3.946   4.938 -2.9314 -0.1490  0.9085
 6696TIP3    H241504   4.650   3.904   5.020  1.0592  0.9625 -3.8822
 6697TIP3   OH241505   1.769   5.326   3.663  0.1448  0.4381 -0.0431
 6697TIP3    H141506   1.764   5.401   3.722  1.7714 -0.3292  1.1452
 6697TIP3    H241507   1.734   5.253   3.714  0.3532  0.0123 -0.5028
 6698TIP3   OH241508   2.548   1.024  11.784  0.1852 -0.0992 -0.1999
 6698TIP3    H141509   2.531   0.933  11.760  0.6555 -0.5237  1.0364
 6698TIP3    H241510   2.642   1.035  11.772  0.3365 -0.1595  0.8975
 6699TIP3   OH241511   2.747   4.533  15.936  0.5109  0.5399 -0.3311
 6699TIP3    H141512   2.781   4.622  15.951  0.2743  0.4880  0.5435
 6699TIP3    H241513   2.665   4.530  15.984 -0.5382  0.4987 -2.0391
 6700TIP3   OH241514   5.968   4.701   5.547  0.1590 -0.6105  0.3266
 6700TIP3    H141515   5.883   4.658   5.543 -0.3101  0.1417  1.5017
 6700TIP3    H241516   6.028   4.635   5.581 -0.3787 -0.6033  1.3315
 6701TIP3   OH241517   1.582   0.643   5.677 -0.1122  0.3476 -0.4164
 6701TIP3    H141518   1.631   0.561   5.670  2.9251  1.9666 -0.0714
 6701TIP3    H241519   1.595   0.672   5.767 -2.0749  0.7342 -0.1988
 6702TIP3   OH241520   3.510   1.637   5.087 -0.4283 -0.2423  0.3058
 6702TIP3    H141521   3.442   1.702   5.106 -0.4694  0.7019 -2.6126
 6702TIP3    H241522   3.463   1.568   5.040  0.3669 -0.2705 -0.4592
 6703TIP3   OH241523   1.337   0.643   3.192 -1.0072 -0.3204 -0.0994
 6703TIP3    H141524   1.297   0.626   3.106 -0.0837  0.1055 -0.6266
 6703TIP3    H241525   1.267   0.623   3.255 -1.9426  0.0688 -0.9805
 6704TIP3   OH241526   4.998   5.741   2.470  0.0497  1.0459  0.8440
 6704TIP3    H141527   4.997   5.813   2.406 -0.8584  0.0760 -0.2764
 6704TIP3    H241528   4.969   5.782   2.551  0.6350  2.1828  0.5081
 6705TIP3   OH241529   0.960   3.694   1.163 -0.1096 -0.2142  0.4062
 6705TIP3    H141530   1.051   3.692   1.194  0.6835 -2.2835 -1.7261
 6705TIP3    H241531   0.908   3.667   1.239  1.1105  0.3420  1.4638
 6706TIP3   OH241532   3.868   0.124  17.035 -0.2198  0.3206 -0.0555
 6706TIP3    H141533   3.952   0.134  16.990 -0.3314 -0.5761 -0.4819
 6706TIP3    H241534   3.890   0.129  17.128  0.6244 -1.9486 -0.0875
 6707TIP3   OH241535   3.257   4.668  12.370 -0.4282 -0.3678  0.1883
 6707TIP3    H141536   3.275   4.646  12.462  0.4502 -1.2653 -0.1788
 6707TIP3    H241537   3.265   4.584  12.324 -0.4483  0.1518 -0.7767
 6708TIP3   OH241538   3.209   5.554  11.588 -0.2141  0.1018  0.5639
 6708TIP3    H141539   3.192   5.469  11.548  0.8938  0.8661 -1.7512
 6708TIP3    H241540   3.123   5.591  11.606 -0.7676 -0.5617 -0.6275
 6709TIP3   OH241541   2.599   4.107   2.053 -0.1395  0.0200 -0.4881
 6709TIP3    H141542   2.577   4.017   2.030 -1.1037  0.4504 -1.3185
 6709TIP3    H241543   2.684   4.100   2.096 -0.9401 -1.4854  0.9964
 6710TIP3   OH241544   3.834   3.572   1.720  0.2054 -0.2019 -0.1044
 6710TIP3    H141545   3.847   3.654   1.674 -0.9363  0.5364  0.8454
 6710TIP3    H241546   3.824   3.506   1.651  0.6497  0.5205 -0.8702
 6711TIP3   OH241547   2.480   5.693   2.838 -0.0627 -0.2233 -0.5967
 6711TIP3    H141548   2.464   5.700   2.932 -2.1431 -0.1760 -0.8973
 6711TIP3    H241549   2.562   5.740   2.823  0.1366  0.0293  1.1416
 6712TIP3   OH241550   5.644   0.820   3.687 -0.3009  0.3296  0.8107
 6712TIP3    H141551   5.667   0.913   3.684  0.5821  0.1260  0.9741
 6712TIP3    H241552   5.647   0.792   3.596 -2.1942  0.8269  0.5669
 6713TIP3   OH241553   5.282   3.004  12.321  0.4703 -0.1686 -0.0472
 6713TIP3    H141554   5.373   2.980  12.336 -0.0582 -1.8588  0.7433
 6713TIP3    H241555   5.233   2.923  12.334 -0.9554  0.1036 -2.8165
 6714TIP3   OH241556   2.793   2.828  15.943 -0.3291  0.2430 -0.3138
 6714TIP3    H141557   2.874   2.811  15.991 -1.4458  1.7346  2.3016
 6714TIP3    H241558   2.745   2.746  15.949 -0.4694  0.4050  1.2924
 6715TIP3   OH241559   5.087   1.536   3.723  0.7871  0.2260 -0.4507
 6715TIP3    H141560   5.165   1.537   3.668  0.3075 -1.7390 -1.2279
 6715TIP3    H241561   5.030   1.470   3.684 -0.3570  0.0640  1.3634
 6716TIP3   OH241562   5.345   4.304  16.929 -0.0256 -0.0679  0.1541
 6716TIP3    H141563   5.326   4.212  16.950  1.0947 -0.5342 -0.7989
 6716TIP3    H241564   5.339   4.309  16.833 -1.5201  1.2047  0.2674
 6717TIP3   OH241565   1.190   0.684  16.443 -0.1692  0.5667 -0.2851
 6717TIP3    H141566   1.199   0.619  16.513 -1.8260  1.8639  1.2353
 6717TIP3    H241567   1.150   0.636  16.371 -0.7536 -0.2621  0.5659
 6718TIP3   OH241568   3.369   5.726   1.703  0.4086  0.0746 -0.0937
 6718TIP3    H141569   3.295   5.666   1.703  1.4700 -1.3075  0.9930
 6718TIP3    H241570   3.397   5.731   1.611 -0.6934  0.2153 -0.4288
 6719TIP3   OH241571   3.560   1.587  10.894 -0.4769 -0.3202  0.0264
 6719TIP3    H141572   3.594   1.501  10.868 -0.1070  0.2163 -1.3452
 6719TIP3    H241573   3.508   1.616  10.820 -0.7271  0.5826  0.5342
 6720TIP3   OH241574   6.310   2.663  16.696 -0.3461  0.4630  0.0945
 6720TIP3    H141575   6.278   2.590  16.644  1.0590  0.6916 -1.1606
 6720TIP3    H241576   6.285   2.642  16.786  0.0040 -1.5541 -0.2425
 6721TIP3   OH241577   1.390   4.130  15.596  0.0583  0.1550 -0.9826
 6721TIP3    H141578   1.441   4.055  15.565  1.1481  1.4021 -2.3394
 6721TIP3    H241579   1.336   4.094  15.667  1.6739 -1.5678 -0.5272
 6722TIP3   OH241580   1.340   5.081  10.155 -0.1616  0.1499  0.0936
 6722TIP3    H141581   1.331   5.017  10.085  0.4038  0.3327 -0.1553
 6722TIP3    H241582   1.261   5.070  10.208 -0.1945 -0.5653 -0.0928
 6723TIP3   OH241583   5.045   6.000   2.279  0.3977  0.1120  0.1930
 6723TIP3    H141584   5.057   6.074   2.338  1.1684  1.1783 -1.2420
 6723TIP3    H241585   5.132   5.961   2.271  0.1011 -0.6476  0.5110
 6724TIP3   OH241586   1.897   0.837   0.239  0.1198 -0.2894 -0.2719
 6724TIP3    H141587   1.966   0.871   0.182 -0.2988 -1.1466 -1.3021
 6724TIP3    H241588   1.851   0.772   0.186 -1.8678  0.6661  0.1753
 6725TIP3   OH241589   0.828   0.177  12.308  0.2165  0.0215  0.2309
 6725TIP3    H141590   0.809   0.113  12.378 -0.0421  0.6285  0.7303
 6725TIP3    H241591   0.742   0.199  12.273  0.2172  0.7956  0.7002
 6726TIP3   OH241592   6.325   1.692   0.318 -0.0940 -0.0380  0.3061
 6726TIP3    H141593   6.356   1.632   0.386 -0.2175 -0.3277  0.1037
 6726TIP3    H241594   6.392   1.689   0.250 -0.7428 -0.9497 -0.3017
 6727TIP3   OH241595   3.665   1.111  15.544 -0.0245  0.2216 -0.0674
 6727TIP3    H141596   3.669   1.093  15.450  0.0969 -0.4447  0.0588
 6727TIP3    H241597   3.639   1.027  15.583 -1.6740  0.8839  0.3601
 6728TIP3   OH241598   3.570   4.956  13.995  0.6620  0.0766 -0.4938
 6728TIP3    H141599   3.632   4.921  14.059  1.0174 -1.7664 -1.7604
 6728TIP3    H241600   3.485   4.928  14.027  0.7457  0.0575 -0.2858
 6729TIP3   OH241601   4.200   5.969   6.003 -0.2881 -0.5579 -0.1174
 6729TIP3    H141602   4.139   6.000   5.936 -0.1422  1.0999  0.4756
 6729TIP3    H241603   4.250   6.047   6.028 -0.1845 -1.1792  1.7462
 6730TIP3   OH241604   0.107   6.632   3.329  0.0844 -0.0102  0.3926
 6730TIP3    H141605   0.170   6.574   3.372  1.3765  1.7954  1.0780
 6730TIP3    H241606   0.152   6.662   3.250 -0.1998  0.6949  0.4887
 6731TIP3   OH241607   6.632   5.928   5.255  0.2359  0.2405 -0.4321
 6731TIP3    H141608   6.647   5.960   5.166 -0.3866  0.6389 -0.4010
 6731TIP3    H241609   6.605   6.006   5.305 -1.5078 -0.3325 -0.4072
 6732TIP3   OH241610   3.526   6.054  17.325  0.0996  0.3296  0.1860
 6732TIP3    H141611   3.562   5.966  17.315  0.4170  0.3994  0.6601
 6732TIP3    H241612   3.433   6.041  17.341  0.1556  0.0825  0.3087
 6733TIP3   OH241613   2.409   6.195   0.494  0.4123 -0.3453 -0.2313
 6733TIP3    H141614   2.466   6.185   0.570 -0.7040 -2.1929  0.4524
 6733TIP3    H241615   2.324   6.221   0.531 -0.4198 -2.2295 -0.6523
 6734TIP3   OH241616   2.533   5.966   0.836 -0.2907  0.1428  0.2860
 6734TIP3    H141617   2.581   5.995   0.914  0.7856 -0.8263  0.0240
 6734TIP3    H241618   2.442   5.960   0.864  0.0295  0.1695  1.3646
 6735TIP3   OH241619   3.447   1.738  17.021  0.2129  0.0432  0.3510
 6735TIP3    H141620   3.528   1.787  17.030  1.2318 -1.5775  0.4499
 6735TIP3    H241621   3.389   1.796  16.970  2.5960 -0.0140 -2.7640
 6736TIP3   OH241622   3.699   2.390  11.303  0.2131  0.7565 -0.2007
 6736TIP3    H141623   3.627   2.327  11.304  1.3273 -0.5565 -0.4530
 6736TIP3    H241624   3.686   2.439  11.222 -0.6564  0.8548 -0.0132
 6737TIP3   OH241625   4.077   1.647   2.114  0.3989 -0.0026  0.3534
 6737TIP3    H141626   4.123   1.571   2.151  0.1173 -0.2510  0.1941
 6737TIP3    H241627   3.992   1.647   2.156 -0.0815 -0.5311 -0.5873
 6738TIP3   OH241628   2.727   4.753  16.676 -0.1366 -0.1577 -0.1648
 6738TIP3    H141629   2.809   4.736  16.630 -0.0079 -0.7011  0.2595
 6738TIP3    H241630   2.698   4.667  16.706  0.0892  0.2553  1.3032
 6739TIP3   OH241631   5.714   4.951  11.320 -0.0484 -0.0514  0.3872
 6739TIP3    H141632   5.790   4.927  11.266  0.2681  1.5685  0.0745
 6739TIP3    H241633   5.648   4.980  11.257 -0.1750  0.5233  0.7788
 6740TIP3   OH241634   3.429   1.175  15.404  0.0747  0.3157  0.4567
 6740TIP3    H141635   3.483   1.198  15.479 -0.5203  0.6881  0.7784
 6740TIP3    H241636   3.339   1.174  15.438 -0.6623  3.8593 -0.9194
 6741TIP3   OH241637   0.756   1.484  12.557 -0.7768 -0.3165  0.3191
 6741TIP3    H141638   0.821   1.521  12.499  0.3707 -2.3531  0.1891
 6741TIP3    H241639   0.672   1.519  12.527  0.0559  0.6991 -0.8673
 6742TIP3   OH241640   4.311   0.497   0.913  0.2749  0.3329  0.3772
 6742TIP3    H141641   4.319   0.451   0.996  1.6509  0.3753  0.2824
 6742TIP3    H241642   4.278   0.430   0.852 -0.1343  0.1421  0.8017
 6743TIP3   OH241643   5.858   3.351  13.525 -0.5926  0.0312  0.6515
 6743TIP3    H141644   5.864   3.257  13.507  0.0437  0.3767 -1.1381
 6743TIP3    H241645   5.766   3.373  13.507 -0.1022  0.2617 -1.9793
 6744TIP3   OH241646   1.755   1.111  10.561 -0.1155  0.8916 -0.0551
 6744TIP3    H141647   1.662   1.106  10.580  0.0021  1.2771  0.6731
 6744TIP3    H241648   1.767   1.198  10.522 -0.1670  0.5597 -0.8376
 6745TIP3   OH241649   1.424   2.823   1.764  0.1000  0.1653  0.2450
 6745TIP3    H141650   1.344   2.770   1.765  0.4439 -0.3831 -0.3476
 6745TIP3    H241651   1.426   2.863   1.677  0.8802 -0.4826 -0.0449
 6746TIP3   OH241652   4.756   5.504   0.309  0.0430 -0.3440  0.0302
 6746TIP3    H141653   4.724   5.471   0.224 -0.0509 -1.8875  0.6335
 6746TIP3    H241654   4.686   5.561   0.340 -2.1011 -3.2597  1.0806
 6747TIP3   OH241655   5.133   2.878  10.263  0.2644 -0.1582 -0.5808
 6747TIP3    H141656   5.082   2.959  10.263  0.7139  0.1453 -2.1820
 6747TIP3    H241657   5.191   2.886  10.339 -0.7884  0.2843  0.2084
 6748TIP3   OH241658   5.914   1.658  10.798  0.4993  0.2521  0.4458
 6748TIP3    H141659   5.831   1.612  10.810  0.4917  0.6081  2.0143
 6748TIP3    H241660   5.889   1.744  10.764  0.0929  0.7702  1.9767
 6749TIP3   OH241661   1.023   2.452  12.249  0.2238 -0.1736 -0.1224
 6749TIP3    H141662   0.991   2.392  12.181 -0.9377 -1.2649  1.3192
 6749TIP3    H241663   0.960   2.524  12.250  1.8836  1.4562 -2.1918
 6750TIP3   OH241664   0.750   1.610   0.052  0.2941  0.3102 -0.4699
 6750TIP3    H141665   0.825   1.668   0.041  0.1912  0.5560  0.0683
 6750TIP3    H241666   0.683   1.646  -0.006 -0.2918  1.6641  0.9751
 6751TIP3   OH241667   6.625   4.830   4.048  0.1735 -0.0039  0.2871
 6751TIP3    H141668   6.610   4.894   4.117 -1.2369  0.4569 -0.4018
 6751TIP3    H241669   6.636   4.882   3.969 -3.9219 -0.5054 -0.8471
 6752TIP3   OH241670   2.330   0.111   4.119 -0.1204 -0.2429 -0.1341
 6752TIP3    H141671   2.402   0.057   4.150 -0.1888 -0.3850 -0.2229
 6752TIP3    H241672   2.309   0.169   4.193 -1.0139 -1.3163  0.4841
 6753TIP3   OH241673   4.100   0.284   4.677 -0.2616 -0.4015  0.2235
 6753TIP3    H141674   4.195   0.274   4.671 -0.1966  0.3205 -0.1495
 6753TIP3    H241675   4.069   0.203   4.717  0.3728 -1.2549 -0.9306
 6754TIP3   OH241676   0.669   5.563   0.019 -0.0063  0.0911 -0.5331
 6754TIP3    H141677   0.738   5.510  -0.019  0.2727 -1.1224  1.5250
 6754TIP3    H241678   0.588   5.515   0.002 -0.1055  0.4449 -1.0954
 6755TIP3   OH241679   4.645   6.734   0.614  0.8378  0.5785  0.0648
 6755TIP3    H141680   4.739   6.716   0.612  0.5658 -0.8925 -0.5919
 6755TIP3    H241681   4.614   6.690   0.693  0.2800 -1.4036 -1.1852
 6756TIP3   OH241682   5.869   4.516  12.330  0.1026 -0.3561  0.3317
 6756TIP3    H141683   5.790   4.511  12.384 -1.1244  3.1703 -0.8169
 6756TIP3    H241684   5.940   4.532  12.392 -0.3232 -1.8916  1.2530
 6757TIP3   OH241685   2.420   4.210   1.375 -0.1041 -0.7807  0.0120
 6757TIP3    H141686   2.325   4.198   1.366 -0.5560  2.1362 -0.1487
 6757TIP3    H241687   2.438   4.292   1.330  3.1484 -2.8767 -3.0937
 6758TIP3   OH241688   5.425   6.152  14.145 -1.0369 -0.1299 -0.6192
 6758TIP3    H141689   5.356   6.218  14.150  0.4774  1.6678 -1.8764
 6758TIP3    H241690   5.433   6.119  14.234 -3.1567 -0.0676 -0.3528
 6759TIP3   OH241691   0.258   5.596   0.463  0.1785 -0.2139  0.0733
 6759TIP3    H141692   0.266   5.500   0.467  1.6676 -0.1963 -1.2932
 6759TIP3    H241693   0.180   5.612   0.412 -1.0862 -0.6460  1.7784
 6760TIP3   OH241694   2.107   0.095   6.000 -0.2503  0.1412 -0.3224
 6760TIP3    H141695   2.076   0.158   5.934 -2.0115 -0.7845 -0.4313
 6760TIP3    H241696   2.123   0.015   5.950 -0.3763 -0.2017  0.1843
 6761TIP3   OH241697   3.128   6.665  12.052  0.2966 -0.4227 -0.1281
 6761TIP3    H141698   3.175   6.654  12.134 -0.5532 -0.7750  0.3208
 6761TIP3    H241699   3.189   6.634  11.985  1.6263  1.3709  0.1834
 6762TIP3   OH241700   4.890   3.628  13.130 -0.5347 -0.1329 -0.0842
 6762TIP3    H141701   4.813   3.588  13.090 -0.1721 -2.0198  0.9734
 6762TIP3    H241702   4.857   3.667  13.211 -0.8062  1.4274 -0.9020
 6763TIP3   OH241703   3.333   2.497  16.045  0.2218 -0.1248 -0.0041
 6763TIP3    H141704   3.321   2.591  16.033  0.1497 -0.3161 -1.7318
 6763TIP3    H241705   3.268   2.457  15.987 -1.2466 -1.2874  2.2898
 6764TIP3   OH241706   0.531   6.550  12.046 -0.6448 -0.4134 -0.0621
 6764TIP3    H141707   0.595   6.619  12.028  0.8926 -2.0608 -1.3030
 6764TIP3    H241708   0.463   6.562  11.979  0.1845 -0.7446 -0.9865
 6765TIP3   OH241709   4.869   2.016  11.411 -0.3743 -0.1078 -0.7474
 6765TIP3    H141710   4.895   2.025  11.503  1.4052 -0.1477 -1.2135
 6765TIP3    H241711   4.798   1.951  11.413 -1.5195  1.1121  0.7544
 6766TIP3   OH241712   3.287   0.551   3.668 -0.0673  0.5237 -0.7755
 6766TIP3    H141713   3.299   0.601   3.749  0.9884 -0.7837 -0.0902
 6766TIP3    H241714   3.194   0.527   3.670 -0.1916  1.0038 -0.2508
 6767TIP3   OH241715   6.509   2.809   1.197 -0.8461  0.4816  0.3166
 6767TIP3    H141716   6.479   2.789   1.286  1.4624  0.7797  1.2163
 6767TIP3    H241717   6.548   2.727   1.167 -1.0837  0.5569 -0.1954
 6768TIP3   OH241718   1.137   4.865  11.841 -0.0610 -0.0361  0.2681
 6768TIP3    H141719   1.067   4.879  11.905 -0.0540  1.9946 -0.1008
 6768TIP3    H241720   1.163   4.954  11.814  0.6813 -0.7969 -1.7269
 6769TIP3   OH241721   2.351   4.990   5.588 -0.2092  0.2660 -0.0673
 6769TIP3    H141722   2.325   5.077   5.617  0.7217  1.1979 -1.8820
 6769TIP3    H241723   2.271   4.952   5.551 -0.4071  0.7122 -0.0976
 6770TIP3   OH241724   6.202   3.611   4.794  0.1240 -0.1575  0.3866
 6770TIP3    H141725   6.151   3.611   4.713  2.3470 -2.0283 -1.1350
 6770TIP3    H241726   6.169   3.537   4.843  2.0115 -2.1281 -1.1433
 6771TIP3   OH241727   0.847   1.311   2.794  0.0740  0.3649 -1.3497
 6771TIP3    H141728   0.830   1.344   2.883 -3.2895 -0.1749 -1.6430
 6771TIP3    H241729   0.827   1.218   2.799  2.3491 -0.2319 -2.1776
 6772TIP3   OH241730   1.435   5.007  15.601  0.2326 -0.2282 -0.3724
 6772TIP3    H141731   1.375   5.078  15.581  1.5777  0.9125 -0.5530
 6772TIP3    H241732   1.476   5.032  15.684  1.2129 -0.4224 -0.7761
 6773TIP3   OH241733   3.570   4.678   5.634  0.3080 -0.3324 -0.1669
 6773TIP3    H141734   3.605   4.767   5.633  0.6131 -0.4103 -3.0212
 6773TIP3    H241735   3.626   4.631   5.696  1.4570  0.9783 -0.1708
 6774TIP3   OH241736   1.283   2.422  11.436 -0.3467  0.5088  0.0361
 6774TIP3    H141737   1.192   2.394  11.447 -0.3344 -0.4029 -1.7751
 6774TIP3    H241738   1.331   2.341  11.420  1.1094  0.7947  2.4520
 6775TIP3   OH241739   4.532   3.366  14.871  0.2681  0.6672 -0.0694
 6775TIP3    H141740   4.534   3.299  14.803  2.4388 -0.9313  1.4277
 6775TIP3    H241741   4.581   3.440  14.834 -1.0920  1.0279 -1.2647
 6776TIP3   OH241742   3.600   4.847   4.092  0.0313 -0.2424  0.2113
 6776TIP3    H141743   3.584   4.753   4.103  3.0128 -0.6604  2.1481
 6776TIP3    H241744   3.574   4.886   4.176 -0.8383  0.6590 -0.4475
 6777TIP3   OH241745   6.728   0.956   0.664 -0.3510  0.5124  0.3956
 6777TIP3    H141746   6.808   1.004   0.685 -0.0508 -0.4141  1.4461
 6777TIP3    H241747   6.746   0.915   0.580  1.0080 -1.1731  1.4459
 6778TIP3   OH241748   4.905   1.275  14.269  0.3468 -0.2236 -0.1354
 6778TIP3    H141749   4.849   1.260  14.193  0.5222  0.3151 -0.3725
 6778TIP3    H241750   4.932   1.187  14.297  0.0038 -0.4383 -0.4846
 6779TIP3   OH241751   6.225   5.115  12.462 -0.0786 -0.7392  0.7747
 6779TIP3    H141752   6.219   5.125  12.557  0.2802 -0.1958  0.7446
 6779TIP3    H241753   6.140   5.081  12.436 -0.8396  0.8448  1.0785
 6780TIP3   OH241754   0.605   3.173  12.878 -0.1605  0.0226 -0.3614
 6780TIP3    H141755   0.633   3.214  12.959  0.8784 -0.1522 -0.6089
 6780TIP3    H241756   0.588   3.246  12.819 -1.3053  0.1597  0.1242
 6781TIP3   OH241757   6.067   6.622  14.279  0.0165  0.5198 -0.6465
 6781TIP3    H141758   6.050   6.633  14.372  1.5839 -3.7488  0.3896
 6781TIP3    H241759   5.999   6.560  14.250 -0.8491  2.2582 -2.6077
 6782TIP3   OH241760   6.671   0.140  14.594  0.1609  0.3604 -0.0989
 6782TIP3    H141761   6.730   0.133  14.519 -0.5302 -1.0750 -0.5312
 6782TIP3    H241762   6.596   0.190  14.561  0.2572  0.5115 -0.0929
 6783TIP3   OH241763   3.222   3.808  16.388  0.2832 -0.1142  0.2946
 6783TIP3    H141764   3.179   3.733  16.348 -0.4679 -0.0824  1.0069
 6783TIP3    H241765   3.310   3.778  16.407  0.2680 -0.5200 -0.2454
 6784TIP3   OH241766   5.933   0.652  10.698  0.0565  0.7654  0.1121
 6784TIP3    H141767   6.024   0.656  10.728 -0.0232  0.2300  0.4390
 6784TIP3    H241768   5.891   0.726  10.742  0.1382  0.4889  0.6706
 6785TIP3   OH241769   5.563   4.073  13.867  0.4524  0.0112 -0.4908
 6785TIP3    H141770   5.584   4.079  13.961  0.3317 -1.5458 -0.3463
 6785TIP3    H241771   5.502   4.145  13.852  0.8986  0.6246  0.5073
 6786TIP3   OH241772   2.150   1.342  17.238 -0.3437  0.1596 -0.5682
 6786TIP3    H141773   2.160   1.330  17.333 -1.9050  0.5590 -0.3229
 6786TIP3    H241774   2.152   1.437  17.226 -0.2916  0.1150 -0.9308
 6787TIP3   OH241775   3.273   0.084   2.255  0.1247 -0.0916 -0.1456
 6787TIP3    H141776   3.199   0.145   2.254 -0.2844 -0.5648  0.5199
 6787TIP3    H241777   3.257   0.029   2.331  1.2926 -0.0515  0.1413
 6788TIP3   OH241778   1.748   0.963   1.875  0.2938 -0.2474 -0.1887
 6788TIP3    H141779   1.727   1.011   1.955  0.0030  0.1040 -0.4692
 6788TIP3    H241780   1.771   1.031   1.811  2.4112 -0.6107  0.1202
 6789TIP3   OH241781   4.348   4.893  13.573  0.3821 -0.3597 -0.0776
 6789TIP3    H141782   4.269   4.862  13.528  0.6969 -0.4082 -0.6088
 6789TIP3    H241783   4.384   4.961  13.516 -0.0000  0.6130  0.8159
 6790TIP3   OH241784   2.772   2.184  13.542 -0.1680  0.1512 -0.6054
 6790TIP3    H141785   2.691   2.216  13.502  0.7005 -0.7008 -3.2180
 6790TIP3    H241786   2.749   2.099  13.578 -0.4814  0.0128 -1.1300
 6791TIP3   OH241787   5.432   4.719   4.733  0.4170  0.7976 -0.0353
 6791TIP3    H141788   5.484   4.769   4.671  2.3855 -0.3059  0.6538
 6791TIP3    H241789   5.353   4.771   4.746  1.8258  3.0888 -0.2601
 6792TIP3   OH241790   2.246   3.228   3.155 -0.2171  0.3501 -0.2853
 6792TIP3    H141791   2.223   3.315   3.187  2.7846  0.4335  2.1050
 6792TIP3    H241792   2.204   3.168   3.216  1.7976  0.3766  1.2314
 6793TIP3   OH241793   2.172   0.124  15.787  0.5565 -0.4903  0.1149
 6793TIP3    H141794   2.225   0.114  15.708  0.4039 -0.8199  0.0498
 6793TIP3    H241795   2.145   0.215  15.787  0.7399 -0.4348 -0.0970
 6794TIP3   OH241796   1.510   2.780  15.150 -0.1184  0.6978 -0.1716
 6794TIP3    H141797   1.444   2.850  15.155 -1.1118 -0.0421 -2.1997
 6794TIP3    H241798   1.511   2.744  15.239 -2.9686  0.3009 -0.1926
 6795TIP3   OH241799   6.362   4.595  16.004 -0.3865  0.0221 -0.0692
 6795TIP3    H141800   6.331   4.580  16.094  1.0086  0.9359  0.6015
 6795TIP3    H241801   6.350   4.688  15.990  0.0844  0.0074 -0.5671
 6796TIP3   OH241802   1.080   4.524  14.607  0.2640 -0.3020 -0.3950
 6796TIP3    H141803   1.117   4.436  14.615 -0.5453 -0.6661 -0.5818
 6796TIP3    H241804   1.149   4.582  14.639  0.5014 -1.0574  0.4833
 6797TIP3   OH241805   0.138   1.894   5.604 -0.9215 -0.2880  0.4360
 6797TIP3    H141806   0.152   1.958   5.535 -3.3410  0.2277  0.3240
 6797TIP3    H241807   0.183   1.930   5.680 -1.5639  1.1686  0.1525
 6798TIP3   OH241808   1.274   4.517   1.734 -0.6658  0.0359  0.0097
 6798TIP3    H141809   1.289   4.459   1.659 -2.3484 -1.8170  1.0044
 6798TIP3    H241810   1.351   4.505   1.789 -1.3869 -2.1414  0.6682
 6799TIP3   OH241811   1.145   5.524   3.087  0.1131  0.3960 -0.1068
 6799TIP3    H141812   1.199   5.445   3.090  0.9232  0.9429  2.4575
 6799TIP3    H241813   1.208   5.595   3.074 -0.7175  0.6684 -3.8318
 6800TIP3   OH241814   5.543   5.697   4.269  0.3106 -0.0148 -0.4834
 6800TIP3    H141815   5.479   5.653   4.325  1.0737  0.4512  0.7768
 6800TIP3    H241816   5.496   5.774   4.237  0.1339  0.1572  0.1764
 6801TIP3   OH241817   2.435   2.913   4.526  0.4674  0.1336  0.3518
 6801TIP3    H141818   2.468   2.927   4.615 -0.7063 -1.8962  1.1608
 6801TIP3    H241819   2.385   2.992   4.507  0.5413  0.5088  1.5802
 6802TIP3   OH241820   1.555   3.221  13.122 -0.6184  0.0450 -0.5618
 6802TIP3    H141821   1.614   3.146  13.120 -1.3713 -0.5544 -2.2820
 6802TIP3    H241822   1.535   3.235  13.214 -0.2078 -1.6634 -0.1934
 6803TIP3   OH241823   5.740   5.815  16.732 -0.6276  0.0427  0.3187
 6803TIP3    H141824   5.732   5.841  16.640 -0.3057 -0.8057  0.0465
 6803TIP3    H241825   5.818   5.861  16.763 -0.2260 -0.3563 -0.0829
 6804TIP3   OH241826   5.170   4.439  10.899  0.2293 -0.3958 -0.5019
 6804TIP3    H141827   5.153   4.497  10.825 -0.7037  0.2935  0.2181
 6804TIP3    H241828   5.110   4.470  10.967 -3.2107 -4.4214 -1.2151
 6805TIP3   OH241829   1.900   2.933   3.692 -0.1288  0.0885 -0.6875
 6805TIP3    H141830   1.969   2.986   3.733 -0.2352 -0.0068 -0.3842
 6805TIP3    H241831   1.935   2.845   3.691  0.4704  0.3223 -2.1223
 6806TIP3   OH241832   6.700   4.577  13.872  0.4463  0.5788 -0.9816
 6806TIP3    H141833   6.650   4.658  13.879 -2.5926 -1.3044  2.0169
 6806TIP3    H241834   6.649   4.522  13.812 -0.6275 -0.9116  1.1444
 6807TIP3   OH241835   4.668   0.026   1.918 -0.3539 -0.1229 -0.3789
 6807TIP3    H141836   4.630   0.109   1.949  0.2284 -0.3043  0.8852
 6807TIP3    H241837   4.670  -0.029   1.996  0.5702 -0.8419 -0.8967
 6808TIP3   OH241838   0.904   1.227  12.514 -0.4109  0.4364  0.2179
 6808TIP3    H141839   0.870   1.301  12.564 -0.4596  1.1131 -0.7934
 6808TIP3    H241840   0.890   1.251  12.423 -0.4430 -0.8290 -0.1319
 6809TIP3   OH241841   4.125   2.382  14.425 -0.1541 -0.6064  0.3407
 6809TIP3    H141842   4.048   2.370  14.370 -0.0677  1.1400 -0.2188
 6809TIP3    H241843   4.190   2.323  14.388 -0.2743  0.1352 -1.1430
 6810TIP3   OH241844   1.371   4.725  11.918 -0.2748  0.2366 -0.0892
 6810TIP3    H141845   1.450   4.765  11.883  0.0760  0.2591  0.7217
 6810TIP3    H241846   1.301   4.786  11.893  0.1031  0.7716  0.1198
 6811TIP3   OH241847   3.976   5.439  10.729  0.4024  0.3886 -0.7107
 6811TIP3    H141848   3.908   5.475  10.672 -0.7642  0.0975  0.4325
 6811TIP3    H241849   4.008   5.515  10.778 -0.4557  0.2733  0.0761
 6812TIP3   OH241850   6.018   3.608   5.164 -0.2545  0.1931  0.7663
 6812TIP3    H141851   6.075   3.662   5.219  2.4896 -0.7307 -0.9790
 6812TIP3    H241852   5.961   3.563   5.226  2.9904 -1.2016  3.0222
 6813TIP3   OH241853   1.574   5.238   5.008  0.4727  0.5596 -0.1365
 6813TIP3    H141854   1.526   5.317   4.982  0.8185  1.0519  0.6973
 6813TIP3    H241855   1.522   5.166   4.972 -1.6003  1.0143  1.7401
 6814TIP3   OH241856   0.874   5.378   0.147 -0.0226  0.9067 -0.2597
 6814TIP3    H141857   0.956   5.357   0.192  1.0736 -0.1133 -2.5894
 6814TIP3    H241858   0.901   5.412   0.062 -1.9962 -0.0236 -1.3302
 6815TIP3   OH241859   5.249   4.564  14.254 -0.2790  0.3130 -0.2765
 6815TIP3    H141860   5.167   4.573  14.303  0.1559 -1.4877  0.8918
 6815TIP3    H241861   5.312   4.533  14.319  1.7082  2.8280 -0.8426
 6816TIP3   OH241862   5.499   6.388   3.587 -0.2852  0.1525 -0.4867
 6816TIP3    H141863   5.580   6.393   3.536  0.2030 -0.8764  0.1488
 6816TIP3    H241864   5.528   6.398   3.678 -1.0212  0.9646 -0.3308
 6817TIP3   OH241865   2.644   4.382   3.386 -0.2103  0.0705 -0.3216
 6817TIP3    H141866   2.557   4.409   3.355 -0.4801  1.0905  1.1963
 6817TIP3    H241867   2.692   4.464   3.397 -0.6151 -0.0067  3.1815
 6818TIP3   OH241868   6.175   2.120  13.167 -0.9447 -0.3066  0.3429
 6818TIP3    H141869   6.107   2.145  13.104 -0.3311 -0.1745 -0.2769
 6818TIP3    H241870   6.224   2.051  13.123 -0.6473 -0.3745  0.7752
 6819TIP3   OH241871   4.935   0.662   3.163  0.1199  0.0325 -0.4469
 6819TIP3    H141872   4.948   0.569   3.181 -1.1104  0.0267  0.5832
 6819TIP3    H241873   4.943   0.670   3.068  1.6255 -0.8691 -0.4162
 6820TIP3   OH241874   0.065   2.631  16.368 -0.1648  0.7836 -0.7351
 6820TIP3    H141875   0.019   2.665  16.445 -1.0786  2.5192 -1.9732
 6820TIP3    H241876   0.146   2.681  16.364  0.7275 -0.5287  0.0297
 6821TIP3   OH241877   4.271   1.794  13.321 -0.1634 -0.0689 -0.0308
 6821TIP3    H141878   4.234   1.863  13.376 -0.4310 -1.5763  1.7919
 6821TIP3    H241879   4.196   1.750  13.282 -0.3261 -1.9278  2.1695
 6822TIP3   OH241880   2.188   3.162  16.475 -0.6460  0.3499 -0.0913
 6822TIP3    H141881   2.174   3.241  16.423 -1.6112  0.2724  0.0470
 6822TIP3    H241882   2.278   3.137  16.455 -0.3935  1.3566 -0.3053
 6823TIP3   OH241883   2.169   4.068  13.457  0.0019  0.1230  0.0658
 6823TIP3    H141884   2.119   4.141  13.494  0.4161  0.8825 -0.8539
 6823TIP3    H241885   2.181   4.008  13.531 -0.5328  0.8740  0.7796
 6824TIP3   OH241886   1.450   2.431  15.972 -0.1622 -0.3927 -0.2421
 6824TIP3    H141887   1.442   2.399  15.882 -2.1532 -0.4137 -0.1104
 6824TIP3    H241888   1.394   2.508  15.976 -0.2027 -0.4538  0.9946
 6825TIP3   OH241889   3.701   1.675   2.396  0.1747 -0.0732 -0.2848
 6825TIP3    H141890   3.686   1.751   2.339 -0.3654  0.1206  0.1062
 6825TIP3    H241891   3.619   1.626   2.392  0.5572 -0.6940 -0.6142
 6826TIP3   OH241892   5.941   0.541  16.844 -0.9523 -0.0001  0.0316
 6826TIP3    H141893   5.922   0.634  16.848  0.1986  0.2866 -0.7270
 6826TIP3    H241894   5.857   0.498  16.859 -1.5660  1.1599 -0.0534
 6827TIP3   OH241895   3.724   2.079  12.805  0.2217  0.2889  0.6318
 6827TIP3    H141896   3.673   1.999  12.790  1.5123 -0.4252 -0.1925
 6827TIP3    H241897   3.664   2.138  12.850 -0.8282 -1.0772  1.0935
 6828TIP3   OH241898   0.051   0.302   5.618  0.1978  0.2949  0.7477
 6828TIP3    H141899   0.016   0.242   5.684 -2.4183 -0.1216 -0.9180
 6828TIP3    H241900   0.090   0.373   5.670  1.0726 -1.5126  2.7313
 6829TIP3   OH241901   3.897   1.735  14.616  0.3786 -0.3141  0.1943
 6829TIP3    H141902   3.834   1.795  14.655  0.4730  0.5783 -0.9519
 6829TIP3    H241903   3.951   1.790  14.559  1.0675 -1.3434 -0.1888
 6830TIP3   OH241904   0.585   2.679  15.401 -0.4456  0.4961 -0.2602
 6830TIP3    H141905   0.492   2.665  15.381 -0.8623  0.5647  1.4716
 6830TIP3    H241906   0.584   2.740  15.475  0.7952 -2.1170  2.0853
 6831TIP3   OH241907   0.390   1.735  13.377  0.0823  0.4955 -0.2137
 6831TIP3    H141908   0.392   1.640  13.374 -1.7474  0.2503  2.3660
 6831TIP3    H241909   0.356   1.755  13.465 -0.0355  3.5073 -0.8401
 6832TIP3   OH241910   1.687   2.406   1.098 -0.2103 -0.2764 -0.4522
 6832TIP3    H141911   1.729   2.480   1.142  1.7398 -0.8357 -1.2876
 6832TIP3    H241912   1.626   2.446   1.037  0.0066  0.6114 -0.1028
 6833TIP3   OH241913   2.396   4.922  13.863 -0.4756 -0.1487 -0.5110
 6833TIP3    H141914   2.483   4.907  13.828  0.9245  3.5995  0.8852
 6833TIP3    H241915   2.343   4.946  13.787  0.3117 -0.2174 -1.0900
 6834TIP3   OH241916   2.221   1.267   0.154 -0.3196  0.4413 -0.4029
 6834TIP3    H141917   2.288   1.212   0.114  0.7931  1.1673  0.3958
 6834TIP3    H241918   2.242   1.265   0.248 -2.7927 -1.1340  0.1902
 6835TIP3   OH241919   0.138   2.545  15.159 -0.7959 -0.0238  0.1904
 6835TIP3    H141920   0.124   2.467  15.213 -0.0572 -0.0081  0.4110
 6835TIP3    H241921   0.071   2.607  15.190 -0.2649  0.0492  1.2263
 6836TIP3   OH241922   4.009   3.964  10.352  0.4604  0.5439 -0.6777
 6836TIP3    H141923   3.956   4.038  10.382 -0.8129 -0.5950 -0.0294
 6836TIP3    H241924   4.056   3.935  10.430 -1.2332 -1.0800 -0.1726
 6837TIP3   OH241925   4.647   2.544  12.122  0.4437  0.3071  0.1174
 6837TIP3    H141926   4.674   2.453  12.115  0.6192  0.2586  1.1764
 6837TIP3    H241927   4.693   2.589  12.051 -0.2932 -0.5535 -0.9353
 6838TIP3   OH241928   3.762   2.747   0.766 -0.3746  1.0859 -0.5214
 6838TIP3    H141929   3.690   2.694   0.799 -0.9940  1.7480 -0.7866
 6838TIP3    H241930   3.752   2.746   0.671  2.1432 -1.8695 -0.9236
 6839TIP3   OH241931   5.935   3.308   1.059  0.2300  0.1390  0.2503
 6839TIP3    H141932   5.847   3.305   1.022  0.0225 -1.0911  0.8060
 6839TIP3    H241933   5.926   3.363   1.137  0.2728  1.1815 -0.4598
 6840TIP3   OH241934   5.623   1.895   5.253  0.1817  0.1916 -0.6298
 6840TIP3    H141935   5.709   1.855   5.263  0.5985  1.1017 -0.4112
 6840TIP3    H241936   5.628   1.976   5.305 -1.4166 -0.6147  0.9021
 6841TIP3   OH241937   5.996   1.631  13.521  0.5027  0.0585 -0.6561
 6841TIP3    H141938   6.071   1.577  13.546  0.0066 -1.4293 -2.1802
 6841TIP3    H241939   5.992   1.699  13.588  0.9621 -1.9716  1.5835
 6842TIP3   OH241940   4.934   2.662  15.396  0.2116 -0.3269 -0.5351
 6842TIP3    H141941   4.935   2.689  15.304 -1.3449 -0.1300 -0.5261
 6842TIP3    H241942   5.022   2.681  15.428  1.3487 -2.0797 -2.4435
 6843TIP3   OH241943   0.313   3.547   2.429 -0.2411  0.3772 -0.0648
 6843TIP3    H141944   0.319   3.533   2.523  1.0957 -1.3901 -0.3535
 6843TIP3    H241945   0.231   3.507   2.403  0.6041 -1.5097  0.0317
 6844TIP3   OH241946   1.745   4.607  10.943 -0.2170  0.3409  0.2645
 6844TIP3    H141947   1.830   4.601  10.987 -0.0072 -0.3136 -0.2086
 6844TIP3    H241948   1.752   4.545  10.871 -1.7146 -1.0165  1.2391
 6845TIP3   OH241949   3.720   4.207   2.383  0.5021 -0.3156  0.7894
 6845TIP3    H141950   3.667   4.182   2.458  0.9516 -0.5423  1.0401
 6845TIP3    H241951   3.662   4.197   2.308 -0.4518  1.4790  1.2432
 6846TIP3   OH241952   5.970   5.261  13.562  0.1240 -0.0323  0.2439
 6846TIP3    H141953   6.042   5.306  13.517  1.6247 -0.5304  2.0605
 6846TIP3    H241954   6.001   5.171  13.573 -1.5546 -0.7562 -0.5371
 6847TIP3   OH241955   1.713   0.164   5.157 -0.4200 -0.5885 -0.5185
 6847TIP3    H141956   1.729   0.243   5.210 -1.5843  0.7184 -2.0089
 6847TIP3    H241957   1.662   0.107   5.215 -0.1596  0.0433  0.3646
 6848TIP3   OH241958   1.966   0.034   5.303  0.2264  0.2902  0.5649
 6848TIP3    H141959   2.059   0.055   5.307  0.5818 -1.2706  2.3549
 6848TIP3    H241960   1.945   0.035   5.210  2.6132 -1.4827 -0.0931
 6849TIP3   OH241961   4.229   0.392  15.880 -0.2026  0.1239  0.4333
 6849TIP3    H141962   4.202   0.387  15.972 -0.7713  1.6457  0.3801
 6849TIP3    H241963   4.217   0.304  15.847  1.2390 -0.7917  2.1265
 6850TIP3   OH241964   2.017   4.603   4.074 -0.1530  0.0361  0.0727
 6850TIP3    H141965   2.088   4.614   4.011 -0.7895 -1.6776 -0.9972
 6850TIP3    H241966   2.048   4.535   4.134  0.4837  1.7067  1.7548
 6851TIP3   OH241967   0.110   4.178   6.288 -0.7054  0.0285  0.6092
 6851TIP3    H141968   0.189   4.164   6.340 -0.4985 -0.8466  0.0785
 6851TIP3    H241969   0.039   4.145   6.342 -0.5650 -0.3007  0.5922
 6852TIP3   OH241970   5.648   5.679   3.887  0.3868  0.3844 -0.3123
 6852TIP3    H141971   5.633   5.638   3.973 -3.8667  0.3936 -0.8568
 6852TIP3    H241972   5.606   5.620   3.825  0.9612  1.7540 -2.0704
 6853TIP3   OH241973   3.770   3.871  16.793  0.2290 -0.0887  0.1930
 6853TIP3    H141974   3.857   3.905  16.773  0.4269 -0.1390  0.9350
 6853TIP3    H241975   3.722   3.876  16.710  0.8361  0.2420 -0.1416
 6854TIP3   OH241976   6.542   1.134   2.130 -0.1547  0.5775  0.2362
 6854TIP3    H141977   6.588   1.058   2.093 -2.3438  0.2245 -2.0555
 6854TIP3    H241978   6.493   1.170   2.056 -0.2058  3.4797  1.5689
 6855TIP3   OH241979   3.180   1.018   0.574  0.2122 -0.4086  0.5895
 6855TIP3    H141980   3.258   1.058   0.536 -0.6303 -0.9259 -1.8958
 6855TIP3    H241981   3.203   1.002   0.665  1.7667  2.5548  0.8421
 6856TIP3   OH241982   1.163   3.536   2.108  0.1618  0.3504 -0.1901
 6856TIP3    H141983   1.222   3.466   2.137 -1.2620 -0.4146  0.9587
 6856TIP3    H241984   1.129   3.506   2.023  1.1296  0.6424 -0.6992
 6857TIP3   OH241985   5.058   5.592   2.082 -0.6286  0.3003 -0.1018
 6857TIP3    H141986   5.131   5.596   2.144 -0.4767  0.3184 -0.2827
 6857TIP3    H241987   5.010   5.513   2.106  0.2791 -0.5121 -0.9178
 6858TIP3   OH241988   5.351   0.927  10.945  0.7688 -0.0413  0.1043
 6858TIP3    H141989   5.430   0.955  10.898  0.5604  1.0834  0.3976
 6858TIP3    H241990   5.338   0.994  11.012 -2.1318  1.5138 -1.8145
 6859TIP3   OH241991   1.341   5.519  11.606  0.0757 -0.2051 -0.4398
 6859TIP3    H141992   1.408   5.457  11.635  1.2571  0.9112 -0.6804
 6859TIP3    H241993   1.281   5.526  11.680  1.2843  0.2032  0.5294
 6860TIP3   OH241994   5.829   4.901  15.667  0.7426  0.2772  0.3036
 6860TIP3    H141995   5.811   4.858  15.583  0.4024  0.5158  0.2510
 6860TIP3    H241996   5.910   4.949  15.652  1.3116 -0.6082  0.4630
 6861TIP3   OH241997   6.052   2.015  12.048  0.4192 -0.4104 -0.3816
 6861TIP3    H141998   5.982   2.067  12.088  0.8611 -0.4577  0.4736
 6861TIP3    H241999   6.027   2.010  11.955 -0.0559  0.6277 -0.3312
 6862TIP3   OH242000   5.402   5.223   3.794 -0.1749 -0.1791 -0.1731
 6862TIP3    H142001   5.359   5.262   3.870 -0.5302  1.5009 -1.1756
 6862TIP3    H242002   5.475   5.174   3.830  0.4054  1.5910  1.1869
 6863TIP3   OH242003   5.429   0.143   4.371 -0.6095  0.4362  0.0063
 6863TIP3    H142004   5.335   0.152   4.389 -0.6818 -0.3310  0.0542
 6863TIP3    H242005   5.434   0.135   4.275 -0.4140  2.3608 -0.1797
 6864TIP3   OH242006   0.967   3.938   1.070 -0.0770  0.0146  0.0559
 6864TIP3    H142007   0.947   3.851   1.105  0.3650  0.5249  1.6502
 6864TIP3    H242008   0.893   3.957   1.011 -0.8794 -0.8623  0.7433
 6865TIP3   OH242009   6.093   2.468  13.227 -0.3793  0.1980  0.5554
 6865TIP3    H142010   6.114   2.423  13.145  0.4585 -0.1272  0.9385
 6865TIP3    H242011   6.087   2.398  13.292 -0.9567  0.4614  0.7896
 6866TIP3   OH242012   0.134   4.916   5.318  0.3543 -0.2401  0.1635
 6866TIP3    H142013   0.203   4.977   5.292  0.3368  0.1996  1.1059
 6866TIP3    H242014   0.057   4.971   5.330 -0.1168 -0.6968 -0.6432
 6867TIP3   OH242015   4.525   2.011  12.506 -0.0698  0.0074  0.1704
 6867TIP3    H142016   4.563   2.048  12.426 -2.2588  1.9726 -0.0773
 6867TIP3    H242017   4.504   1.920  12.484 -0.4175  0.4543 -1.4291
 6868TIP3   OH242018   1.863   0.325  16.565  0.4948  0.5204 -0.0923
 6868TIP3    H142019   1.945   0.335  16.516  0.6647  1.2085  0.3214
 6868TIP3    H242020   1.827   0.413  16.570  0.7277  0.5423  1.4517
 6869TIP3   OH242021   2.382   4.149  15.857  0.5301  0.2658 -0.4756
 6869TIP3    H142022   2.359   4.218  15.795 -0.5189  1.1706  0.8638
 6869TIP3    H242023   2.366   4.067  15.809 -0.3732  0.9354 -1.3560
 6870TIP3   OH242024   4.975   6.740   0.290 -0.4947  0.5337 -0.3200
 6870TIP3    H142025   5.068   6.762   0.293 -0.3629  0.4653 -2.3383
 6870TIP3    H242026   4.929   6.824   0.294 -0.2467  0.7285 -1.3102
 6871TIP3   OH242027   1.417   6.223  17.329  0.1701 -0.1976 -0.3918
 6871TIP3    H142028   1.495   6.279  17.334  0.9008 -0.9027 -2.7699
 6871TIP3    H242029   1.447   6.137  17.359 -0.6233  0.2704  1.9756
 6872TIP3   OH242030   2.951   3.902   2.937 -0.4577  0.0252  0.1231
 6872TIP3    H142031   2.993   3.981   2.971  0.5151  0.4182 -1.8326
 6872TIP3    H242032   2.954   3.913   2.842 -0.9155 -2.0662 -0.1695
 6873TIP3   OH242033   0.523   2.537  16.191  0.4727  0.8127  0.2783
 6873TIP3    H142034   0.462   2.464  16.191 -0.9746  1.9072  2.6464
 6873TIP3    H242035   0.599   2.505  16.238  0.7177  0.2199 -0.4993
 6874TIP3   OH242036   4.354   6.188  13.684  0.3502  0.1804 -0.0085
 6874TIP3    H142037   4.323   6.229  13.765  0.5222  1.5117 -0.5839
 6874TIP3    H242038   4.392   6.261  13.634  1.4171 -0.8375 -0.7315
 6875TIP3   OH242039   2.474   4.866  15.504  0.7988 -0.0667 -0.1057
 6875TIP3    H142040   2.491   4.945  15.555 -0.1359 -0.5108  0.9411
 6875TIP3    H242041   2.379   4.854  15.511  1.0043 -1.6217  0.2654
 6876TIP3   OH242042   1.344   4.790   1.760  0.5810 -0.4277 -0.4866
 6876TIP3    H142043   1.337   4.696   1.776  0.7849 -0.2064  1.1272
 6876TIP3    H242044   1.386   4.824   1.839  1.2303  0.9224 -1.3726
 6877TIP3   OH242045   2.992   6.659  12.530 -0.2655  0.0903  0.1612
 6877TIP3    H142046   2.933   6.730  12.508 -0.6689  0.1892  1.4396
 6877TIP3    H242047   2.962   6.585  12.478 -0.4949  0.5742 -0.3986
 6878TIP3   OH242048   1.109   0.259  14.836  0.5347 -0.8118  0.4284
 6878TIP3    H142049   1.043   0.242  14.769  0.5255 -0.8235  0.4401
 6878TIP3    H242050   1.158   0.335  14.803 -0.1102 -0.1944  0.8833
 6879TIP3   OH242051   5.461   3.738  15.768 -0.0685  0.6631 -0.2552
 6879TIP3    H142052   5.410   3.660  15.743  0.5149  0.7763 -1.9637
 6879TIP3    H242053   5.410   3.780  15.837 -1.1049 -0.4747 -0.3050
 6880TIP3   OH242054   2.493   5.949   4.064 -0.2711 -0.4821  0.2269
 6880TIP3    H142055   2.558   5.927   4.131 -1.3933 -0.8224  1.2512
 6880TIP3    H242056   2.510   5.890   3.992  2.1856  1.1372 -0.6507
 6881TIP3   OH242057   0.950   5.729   4.532 -0.7415  0.0184 -0.3026
 6881TIP3    H142058   0.910   5.663   4.476 -0.7678 -1.0480  0.9393
 6881TIP3    H242059   0.883   5.751   4.596  0.2225 -0.8969  1.0531
 6882TIP3   OH242060   6.659   3.878   1.139  0.5506 -0.5811 -0.2114
 6882TIP3    H142061   6.633   3.946   1.077 -1.2861 -1.0952 -0.0817
 6882TIP3    H242062   6.594   3.808   1.126 -0.1140 -0.5771  2.4659
 6883TIP3   OH242063   6.751   6.672  15.957 -0.3639  0.1737  0.3929
 6883TIP3    H142064   6.738   6.589  15.911 -1.2042  0.5413 -0.0578
 6883TIP3    H242065   6.710   6.738  15.901 -0.0249  0.8476  0.9174
 6884TIP3   OH242066   2.908   2.862  15.652 -0.2627 -0.3750 -0.8398
 6884TIP3    H142067   2.848   2.936  15.667  0.1763 -0.3497  1.1864
 6884TIP3    H242068   2.942   2.842  15.740  1.3855 -1.5000 -1.6951
 6885TIP3   OH242069   2.801   3.586  11.748 -0.0105 -0.4962 -0.1341
 6885TIP3    H142070   2.794   3.491  11.754  1.7215 -0.7843 -1.7547
 6885TIP3    H242071   2.893   3.605  11.770 -0.1427  0.7128 -0.5306
 6886TIP3   OH242072   4.215   1.647  17.321  0.2087 -0.6294  0.3109
 6886TIP3    H142073   4.142   1.709  17.324 -0.5949 -1.5256 -0.2028
 6886TIP3    H242074   4.209   1.608  17.234  1.1117 -0.9530  0.3854
 6887TIP3   OH242075   3.990   6.235   3.159 -0.0827 -0.0059 -0.0034
 6887TIP3    H142076   3.948   6.152   3.136 -1.6480  0.9059 -0.5472
 6887TIP3    H242077   3.977   6.243   3.254 -0.7121  0.0125 -0.0846
 6888TIP3   OH242078   6.509   0.961   4.884 -0.4736  0.0466 -0.5400
 6888TIP3    H142079   6.495   0.943   4.977  0.6589 -0.3445 -0.4307
 6888TIP3    H242080   6.481   0.881   4.840 -1.4238  0.3904 -0.5878
 6889TIP3   OH242081   6.334   0.536  11.623  0.7765 -0.2309  0.2690
 6889TIP3    H142082   6.333   0.627  11.653  0.0524 -0.4271  0.8644
 6889TIP3    H242083   6.339   0.542  11.528  0.8469  0.4310  0.3129
 6890TIP3   OH242084   2.493   2.112  13.854 -0.7872  0.1052 -0.2306
 6890TIP3    H142085   2.439   2.166  13.797 -1.9137  1.1073  1.6960
 6890TIP3    H242086   2.526   2.173  13.920  0.6786 -0.9730  0.0866
 6891TIP3   OH242087   4.343   5.561   0.892  0.3676  0.5918  0.6737
 6891TIP3    H142088   4.346   5.546   0.797 -1.2223 -1.5826  0.9036
 6891TIP3    H242089   4.253   5.586   0.910  0.8202  1.6550  1.5463
 6892TIP3   OH242090   4.981   2.191  16.860 -0.4308  0.0085 -0.1484
 6892TIP3    H142091   4.968   2.253  16.932  0.1695 -0.7640  0.6355
 6892TIP3    H242092   4.907   2.207  16.802 -1.5375 -0.1108  1.1856
 6893TIP3   OH242093   6.554   6.489   5.489 -0.4458  0.3151  0.6278
 6893TIP3    H142094   6.520   6.554   5.550 -1.2580  0.1171  0.3893
 6893TIP3    H242095   6.649   6.505   5.489 -0.5801  1.2018  0.9109
 6894TIP3   OH242096   5.311   6.064   1.942 -0.0569  0.1764 -0.0563
 6894TIP3    H142097   5.334   5.998   1.877 -0.9317 -0.8577  0.6523
 6894TIP3    H242098   5.274   6.014   2.014  1.5544  1.2107  1.5759
 6895TIP3   OH242099   1.879   6.554   6.476 -0.1653 -0.0372  0.9064
 6895TIP3    H142100   1.785   6.545   6.488 -0.1445 -0.0268  1.0957
 6895TIP3    H242101   1.895   6.533   6.384 -0.5913  1.8265  0.3597
 6896TIP3   OH242102   4.420   4.414   2.362 -0.4593 -0.0236  0.1793
 6896TIP3    H142103   4.366   4.474   2.310  2.0188  1.4451 -0.8657
 6896TIP3    H242104   4.456   4.352   2.299 -3.0085 -2.8365  1.2542
 6897TIP3   OH242105   0.469   1.496   0.910  0.3632  0.5776  0.2553
 6897TIP3    H142106   0.419   1.536   0.839  1.9886  0.7980 -0.8223
 6897TIP3    H242107   0.424   1.523   0.990 -1.1240  0.8751 -0.6490
 6898TIP3   OH242108   2.103   0.848   3.302  0.1001  0.0009  0.2888
 6898TIP3    H142109   2.176   0.792   3.328  0.3041  0.0327 -0.2005
 6898TIP3    H242110   2.026   0.791   3.307  0.3153 -0.3547 -0.2841
 6899TIP3   OH242111   0.904   3.375   0.532 -0.1667  0.5413  0.1849
 6899TIP3    H142112   0.970   3.338   0.592 -0.1954  1.1163  0.5855
 6899TIP3    H242113   0.855   3.300   0.500 -1.2856  0.3155  2.2397
 6900TIP3   OH242114   0.812   3.915   2.549  0.3737  0.1886 -0.5452
 6900TIP3    H142115   0.796   3.821   2.549 -1.2358  0.4322 -0.2857
 6900TIP3    H242116   0.886   3.927   2.490 -0.7608 -1.0288 -2.3113
 6901TIP3   OH242117   0.261   0.445  16.407  0.0980  0.0602  0.5362
 6901TIP3    H142118   0.245   0.380  16.476  1.3272  0.0642  0.8447
 6901TIP3    H242119   0.233   0.402  16.326  2.1411 -1.4151  0.5389
 6902TIP3   OH242120   2.035   1.485   0.203  0.2744  0.5739  0.0941
 6902TIP3    H142121   2.095   1.412   0.217 -0.0510  0.3415  0.2803
 6902TIP3    H242122   2.065   1.553   0.264  2.5568  1.8328 -2.2452
 6903TIP3   OH242123   2.325   1.299   1.566 -0.0025  0.4421  0.2316
 6903TIP3    H142124   2.260   1.261   1.625  0.5108  0.3214  0.7356
 6903TIP3    H242125   2.294   1.388   1.551 -0.3515  0.3464  0.3678
 6904TIP3   OH242126   0.595   0.493   5.132  0.1734 -0.1339 -0.0673
 6904TIP3    H142127   0.635   0.529   5.211  0.2127 -0.1066 -0.1003
 6904TIP3    H242128   0.504   0.478   5.157  0.5196 -1.5282  0.4545
 6905TIP3   OH242129   3.977   3.769   5.175  0.1625  0.0525 -0.1532
 6905TIP3    H142130   3.973   3.808   5.262  0.1230 -0.2565 -0.0136
 6905TIP3    H242131   4.060   3.800   5.139 -1.1217  2.6142 -1.1958
 6906TIP3   OH242132   3.399   2.348   5.881 -0.3326  0.0799  0.0934
 6906TIP3    H142133   3.339   2.295   5.828 -0.4550  1.0952 -0.8169
 6906TIP3    H242134   3.420   2.292   5.956  0.5916 -1.7932 -1.4735
 6907TIP3   OH242135   5.075   3.048   3.870  0.3361  0.2871 -0.6387
 6907TIP3    H142136   5.161   3.065   3.909  0.7734  0.8165 -1.7831
 6907TIP3    H242137   5.081   2.959   3.836 -0.1273 -0.2657  0.6571
 6908TIP3   OH242138   5.856   6.657  13.827  0.1593  0.0718  0.3152
 6908TIP3    H142139   5.862   6.675  13.921  0.2222  1.1202  0.1239
 6908TIP3    H242140   5.819   6.570  13.822  0.5386 -0.1671  1.3239
 6909TIP3   OH242141   2.822   0.159  12.106  0.3832 -0.3006 -0.1664
 6909TIP3    H142142   2.791   0.247  12.084 -2.7126 -0.7985  1.6209
 6909TIP3    H242143   2.814   0.110  12.025  0.6895  0.6586 -0.8018
 6910TIP3   OH242144   5.013   5.624  14.887  0.2729 -0.2340 -0.1567
 6910TIP3    H142145   4.935   5.677  14.904 -0.6830 -1.2171 -1.2813
 6910TIP3    H242146   4.981   5.533  14.889  1.5720 -0.7125  0.2315
 6911TIP3   OH242147   6.152   5.917   6.127 -0.3733  0.0178 -0.1629
 6911TIP3    H142148   6.170   5.889   6.216  0.7113  2.0500  0.3315
 6911TIP3    H242149   6.067   5.879   6.106 -0.9015 -0.0689  1.9334
 6912TIP3   OH242150   1.356   4.146   6.564  0.7097  0.1624  0.2030
 6912TIP3    H142151   1.321   4.232   6.587  0.9581  0.3840 -0.2350
 6912TIP3    H242152   1.325   4.088   6.634 -1.3936  0.1343 -0.6873
 6913TIP3   OH242153   4.457   4.576  11.868  0.1895  0.4399 -0.1563
 6913TIP3    H142154   4.498   4.662  11.870  0.4207  0.3206  1.3446
 6913TIP3    H242155   4.521   4.519  11.824  0.7776  0.6810  0.3747
 6914TIP3   OH242156   5.467   2.235  12.766  0.0626 -0.0280  0.2048
 6914TIP3    H142157   5.498   2.188  12.689 -1.3861 -0.5228 -0.1138
 6914TIP3    H242158   5.541   2.290  12.792  1.4263 -1.6558 -0.0696
 6915TIP3   OH242159   4.091   4.198  13.755  0.6217 -1.0357 -0.2602
 6915TIP3    H142160   4.056   4.156  13.834  0.2050  0.5848  0.4722
 6915TIP3    H242161   4.178   4.229  13.782 -0.4056  1.5997  0.4268
 6916TIP3   OH242162   4.786   2.867  15.475 -0.4110 -0.0950  0.4192
 6916TIP3    H142163   4.842   2.791  15.488 -1.3992 -0.6275  1.8126
 6916TIP3    H242164   4.816   2.930  15.542 -1.1767 -0.2318  0.9116
 6917TIP3   OH242165   1.628   0.264   1.545  0.1023  0.4497  0.0634
 6917TIP3    H142166   1.658   0.175   1.524  0.2406  0.1663  1.4196
 6917TIP3    H242167   1.659   0.316   1.470  1.0521 -0.4316 -0.1987
 6918TIP3   OH242168   6.046   5.725   3.204  0.0595 -0.0267 -0.1100
 6918TIP3    H142169   5.996   5.646   3.186 -0.5556  0.5750 -1.0888
 6918TIP3    H242170   6.133   5.693   3.226 -0.3285 -1.0035  0.0652
 6919TIP3   OH242171   4.489   3.531   1.029  0.2925  0.6739 -0.5053
 6919TIP3    H142172   4.517   3.543   1.120  0.8338  0.8374 -0.6858
 6919TIP3    H242173   4.401   3.495   1.035  0.5758  0.0498  0.0944
 6920TIP3   OH242174   5.847   1.946   0.468  0.3099  0.0005 -0.0813
 6920TIP3    H142175   5.901   1.871   0.445 -0.1695 -0.2729 -0.3553
 6920TIP3    H242176   5.873   2.014   0.405  0.6923  0.0411  0.1200
 6921TIP3   OH242177   2.279   3.460  14.244  0.2394  0.4723  0.2735
 6921TIP3    H142178   2.198   3.492  14.285  0.1260 -1.4350  1.6349
 6921TIP3    H242179   2.258   3.371  14.217  1.5336  0.3852 -0.4816
 6922TIP3   OH242180   6.623   0.138   1.654  0.3546  0.1174  0.2102
 6922TIP3    H142181   6.544   0.152   1.705  0.6888  0.6782  0.5812
 6922TIP3    H242182   6.677   0.215   1.670  0.5592  0.2187 -0.8357
 6923TIP3   OH242183   1.020   3.314  10.859  0.0240  0.2712  0.2438
 6923TIP3    H142184   1.100   3.263  10.869  1.7463  2.9383  1.0018
 6923TIP3    H242185   1.021   3.342  10.767 -0.4863 -0.3382  0.0454
 6924TIP3   OH242186   5.848   6.235  13.443 -0.6159  0.3107 -0.1118
 6924TIP3    H142187   5.774   6.189  13.483 -0.0655 -2.4731 -2.0005
 6924TIP3    H242188   5.903   6.165  13.407  1.5862  2.4012 -1.1042
 6925TIP3   OH242189   4.195   0.044  14.171 -0.0697  0.5040 -0.1186
 6925TIP3    H142190   4.142   0.066  14.095 -1.3365  0.6555  0.7786
 6925TIP3    H242191   4.250  -0.029  14.142 -2.2590 -1.0971 -0.5174
 6926TIP3   OH242192   1.120   0.493  16.232 -0.1704  0.1778 -0.0442
 6926TIP3    H142193   1.205   0.478  16.190  0.2845 -0.5565  1.0709
 6926TIP3    H242194   1.055   0.461  16.169  0.3753  0.5931 -0.8385
 6927TIP3   OH242195   4.951   1.262  12.684 -0.2531 -0.3194 -0.2562
 6927TIP3    H142196   5.044   1.241  12.679 -0.4284 -1.6539  1.3477
 6927TIP3    H242197   4.925   1.276  12.593  1.5189  0.1841 -0.7311
 6928TIP3   OH242198   0.216   0.291  12.174  0.0659 -0.8680  0.2783
 6928TIP3    H142199   0.209   0.362  12.111  0.5630 -0.5843  0.5321
 6928TIP3    H242200   0.265   0.329  12.247  0.2047 -1.4292  0.4812
 6929TIP3   OH242201   4.175   6.398   5.338  0.0720  0.4043  0.2983
 6929TIP3    H142202   4.161   6.417   5.431 -0.8563  1.7522 -0.0811
 6929TIP3    H242203   4.266   6.420   5.322  0.1782  0.3684  0.8380
 6930TIP3   OH242204   2.472   6.123  14.670 -0.6919 -0.5549 -0.3799
 6930TIP3    H142205   2.503   6.121  14.580 -1.9093  0.9641 -0.8656
 6930TIP3    H242206   2.449   6.214  14.686 -1.8075 -1.0441  1.0055
 6931TIP3   OH242207   2.860   4.673   0.556  0.2616  0.4132  0.6598
 6931TIP3    H142208   2.921   4.724   0.609  0.7720  1.0703 -0.5436
 6931TIP3    H242209   2.817   4.737   0.499  0.6348 -0.4278 -0.6076
 6932TIP3   OH242210   1.129   3.901   0.117 -0.3829 -0.5582  0.3682
 6932TIP3    H142211   1.207   3.850   0.140  1.3455  1.1683 -1.2673
 6932TIP3    H242212   1.131   3.976   0.176 -0.8986 -0.5645  0.3971
 6933TIP3   OH242213   5.285   4.473   2.075  0.5615 -0.2903 -0.4081
 6933TIP3    H142214   5.290   4.568   2.073 -0.2575 -0.2168  0.2588
 6933TIP3    H242215   5.274   4.451   2.168 -0.7092 -0.9285 -0.6812
 6934TIP3   OH242216   5.876   5.400   4.628 -0.5818  0.2835 -0.5823
 6934TIP3    H142217   5.939   5.375   4.560  0.4014 -0.7582  0.6727
 6934TIP3    H242218   5.922   5.463   4.682 -0.9688  0.2698 -0.2279
 6935TIP3   OH242219   4.488   6.063  11.811  0.3250 -0.5734  0.0256
 6935TIP3    H142220   4.463   6.080  11.721  1.1705 -2.5147 -0.6281
 6935TIP3    H242221   4.545   6.137  11.834  1.4192 -0.8588 -1.6017
 6936TIP3   OH242222   4.281   0.171   4.154 -0.1406  0.7512  0.4014
 6936TIP3    H142223   4.332   0.246   4.124 -0.0282  1.3001  1.8623
 6936TIP3    H242224   4.276   0.182   4.249 -0.7771 -0.6869  0.5659
 6937TIP3   OH242225   2.792   1.242   0.916 -0.1964 -0.8946  0.0983
 6937TIP3    H142226   2.808   1.320   0.969 -0.6908 -1.1074  0.5750
 6937TIP3    H242227   2.851   1.176   0.953  0.5677 -0.6265 -0.6100
 6938TIP3   OH242228   0.548   2.485   5.738  0.6279 -0.6394 -0.4000
 6938TIP3    H142229   0.614   2.434   5.786  0.2046 -0.9718 -0.1671
 6938TIP3    H242230   0.570   2.474   5.646  2.4583  1.3230 -0.2870
 6939TIP3   OH242231   0.330   4.127   2.202  0.1148  0.9724 -0.1471
 6939TIP3    H142232   0.405   4.117   2.143  0.6693  1.1794  0.5030
 6939TIP3    H242233   0.282   4.202   2.168 -0.4006  0.1946 -1.1907
 6940TIP3   OH242234   2.075   6.533   3.628 -0.0945  0.4851 -1.2936
 6940TIP3    H142235   2.004   6.477   3.597 -0.5706  0.1076  0.3737
 6940TIP3    H242236   2.117   6.483   3.698  1.6744  0.8037 -2.0839
 6941TIP3   OH242237   6.543   0.833   3.733  0.2660 -0.3733  0.4729
 6941TIP3    H142238   6.477   0.902   3.721 -0.5852 -1.3161 -0.4280
 6941TIP3    H242239   6.528   0.801   3.822 -0.6220 -0.7097  0.2059
 6942TIP3   OH242240   3.717   3.411   0.519 -0.6383  0.6354  0.1349
 6942TIP3    H142241   3.801   3.445   0.489 -0.8144  0.7509 -0.2338
 6942TIP3    H242242   3.655   3.481   0.500 -0.9081  0.3383 -0.1040
 6943TIP3   OH242243   5.235   0.433   2.112 -0.2411 -0.3369 -0.3263
 6943TIP3    H142244   5.312   0.449   2.057 -0.3892 -0.7675 -0.6636
 6943TIP3    H242245   5.229   0.510   2.167 -0.1090  0.1259 -0.9433
 6944TIP3   OH242246   6.392   0.256  13.504 -0.1182  0.5340 -0.8448
 6944TIP3    H142247   6.303   0.262  13.471 -0.5945  0.6301  0.3974
 6944TIP3    H242248   6.437   0.331  13.466 -0.2212 -0.1809 -2.4435
 6945TIP3   OH242249   6.365   2.218  12.635  0.1387  0.3915  0.2738
 6945TIP3    H142250   6.443   2.258  12.676  0.8125  0.9844 -1.5037
 6945TIP3    H242251   6.312   2.190  12.709  2.4286 -0.8350  1.5815
 6946TIP3   OH242252   6.445   1.768   3.513  0.3074  0.0768 -0.3446
 6946TIP3    H142253   6.507   1.701   3.482 -1.0960 -0.3909 -2.3157
 6946TIP3    H242254   6.369   1.718   3.543 -0.3211  0.7352 -0.8024
 6947TIP3   OH242255   1.267   4.758  15.332 -0.3287  0.2135 -0.4333
 6947TIP3    H142256   1.311   4.723  15.409 -2.5728 -0.5638  0.5960
 6947TIP3    H242257   1.338   4.790  15.276  1.4749 -0.7480  1.1749
 6948TIP3   OH242258   5.111   4.593  11.797 -0.6104  0.0499  0.1036
 6948TIP3    H142259   5.129   4.504  11.828 -0.7697  0.1514  0.4891
 6948TIP3    H242260   5.054   4.581  11.721 -0.1222 -0.2063 -0.2270
 6949TIP3   OH242261   2.361   2.776  16.936 -0.0811 -0.3908 -0.7592
 6949TIP3    H142262   2.288   2.752  16.993  0.0802  1.3351  0.2168
 6949TIP3    H242263   2.426   2.707  16.952 -0.8144 -1.0169 -0.3806
 6950TIP3   OH242264   6.553   3.975  12.600  1.1695  0.4942 -0.7886
 6950TIP3    H142265   6.586   3.939  12.683  1.0337  2.0232 -0.0115
 6950TIP3    H242266   6.619   3.951  12.535  3.2908  2.3631  0.4840
 6951TIP3   OH242267   4.581   3.664   4.791 -0.1213  0.5107  0.1617
 6951TIP3    H142268   4.559   3.736   4.850  0.6764  1.2608 -0.4242
 6951TIP3    H242269   4.497   3.634   4.757 -0.7131 -0.6186  2.4049
 6952TIP3   OH242270   2.915   1.636  16.909  0.0292 -0.4138 -0.2657
 6952TIP3    H142271   2.913   1.570  16.978 -1.1771  1.8627  2.0514
 6952TIP3    H242272   3.006   1.635  16.878  0.3748 -2.1117  0.6809
 6953TIP3   OH242273   2.769   1.711   0.210 -0.2185  0.1852 -0.1496
 6953TIP3    H142274   2.730   1.693   0.124  0.6038 -1.4958 -0.2153
 6953TIP3    H242275   2.843   1.650   0.216  1.1249  1.8255  0.8322
 6954TIP3   OH242276   5.749   1.605  15.500 -0.1806 -0.1054 -0.1168
 6954TIP3    H142277   5.827   1.624  15.552  0.9497 -0.3035 -1.6579
 6954TIP3    H242278   5.776   1.533  15.442 -1.8313 -0.8737 -0.0033
 6955TIP3   OH242279   2.256   5.324  14.245 -0.1216  0.9622 -0.3986
 6955TIP3    H142280   2.340   5.296  14.281 -0.1717 -1.3072 -1.8464
 6955TIP3    H242281   2.260   5.299  14.152 -2.2593  1.0971 -0.5897
 6956TIP3   OH242282   5.328   1.449   2.268 -0.1557 -0.1888  0.3338
 6956TIP3    H142283   5.410   1.413   2.304  0.5039 -0.4058 -1.2900
 6956TIP3    H242284   5.324   1.414   2.179  0.2932  3.3639 -1.2385
 6957TIP3   OH242285   2.306   5.333  17.049  0.0293  0.2792  0.6337
 6957TIP3    H142286   2.360   5.255  17.034 -2.1593 -0.7977 -2.8728
 6957TIP3    H242287   2.319   5.386  16.970 -1.7045  1.4575  1.0848
 6958TIP3   OH242288   6.105   5.232  14.604 -0.0264 -0.0514 -0.0793
 6958TIP3    H142289   6.102   5.327  14.619 -0.2828 -0.0955  0.1575
 6958TIP3    H242290   6.070   5.220  14.516  0.7043  0.1383 -0.4093
 6959TIP3   OH242291   2.125   4.803  16.571  0.2451  0.7781  0.2783
 6959TIP3    H142292   2.178   4.801  16.491 -0.6060  0.4498 -0.2835
 6959TIP3    H242293   2.051   4.745  16.553 -0.7439  1.8520  0.7600
 6960TIP3   OH242294   3.725   3.502  13.886  0.0818 -0.0780  0.0973
 6960TIP3    H142295   3.742   3.472  13.975  0.8116  0.1434  0.0414
 6960TIP3    H242296   3.637   3.471  13.866 -0.9109  1.5764  1.6378
 6961TIP3   OH242297   0.347   3.678   2.885  0.1971 -0.4082 -0.0215
 6961TIP3    H142298   0.441   3.660   2.885  0.3434  0.1141  1.6503
 6961TIP3    H242299   0.338   3.754   2.942 -1.2426 -0.4542 -0.1612
 6962TIP3   OH242300   5.457   6.274  13.060 -0.1795  0.4604 -0.0842
 6962TIP3    H142301   5.518   6.243  12.993  1.4923  1.5102  0.8707
 6962TIP3    H242302   5.370   6.257  13.023  0.6491 -1.7325 -1.2054
 6963TIP3   OH242303   5.761   0.891   2.665  0.1697  0.0646  0.6798
 6963TIP3    H142304   5.839   0.927   2.706  1.0326  2.6673 -2.8046
 6963TIP3    H242305   5.695   0.959   2.676  0.1627  0.4278 -1.2450
 6964TIP3   OH242306   0.661   2.527  15.195 -0.1332 -0.0235  0.2849
 6964TIP3    H142307   0.747   2.558  15.167 -0.5081  0.5463 -0.2720
 6964TIP3    H242308   0.644   2.575  15.276 -0.6445  1.1464 -0.4935
 6965TIP3   OH242309   3.176   4.778   2.657  0.3216 -0.1709  0.6864
 6965TIP3    H142310   3.127   4.859   2.641 -0.5665 -0.6972  0.7183
 6965TIP3    H242311   3.164   4.727   2.578  2.0613  0.2948  0.0783
 6966TIP3   OH242312   1.984   5.661   4.081  0.5232 -0.3305 -0.1468
 6966TIP3    H142313   1.937   5.609   4.146 -2.0514  1.7545 -0.1656
 6966TIP3    H242314   2.032   5.726   4.131 -0.3836  0.4298 -0.2315
 6967TIP3   OH242315   3.586   1.941  11.109 -0.0155  0.0490  0.4033
 6967TIP3    H142316   3.608   1.936  11.202 -0.6232  0.0014  0.5463
 6967TIP3    H242317   3.598   2.033  11.087  0.6855 -0.0370  0.3823
 6968TIP3   OH242318   3.726   5.067   2.045 -0.1800  0.5702 -0.0099
 6968TIP3    H142319   3.809   5.019   2.051 -0.9662 -0.8487  0.1501
 6968TIP3    H242320   3.703   5.086   2.136 -0.5892 -0.1016  0.0399
 6969TIP3   OH242321   0.563   4.293  14.574  0.3787  0.1935 -0.5595
 6969TIP3    H142322   0.629   4.329  14.633  0.5459  1.0925 -1.2741
 6969TIP3    H242323   0.613   4.259  14.500  0.0625  0.5272 -0.9262
 6970TIP3   OH242324   6.366   6.473   6.296  0.1786  0.3428 -1.0697
 6970TIP3    H142325   6.288   6.527   6.286 -0.0580  0.1271 -0.4373
 6970TIP3    H242326   6.346   6.413   6.368  0.6441 -0.2236 -1.3932
 6971TIP3   OH242327   3.624   2.225   0.606 -0.1694 -0.2641  0.4848
 6971TIP3    H142328   3.685   2.299   0.609 -0.5189  0.0053  1.3683
 6971TIP3    H242329   3.547   2.255   0.655 -1.1109 -0.5259 -0.7732
 6972TIP3   OH242330   3.264   4.279   1.098 -0.4571  0.3194 -0.1772
 6972TIP3    H142331   3.239   4.352   1.154 -0.7658 -0.9092  1.3594
 6972TIP3    H242332   3.358   4.291   1.083 -0.7070  1.5999 -0.8676
 6973TIP3   OH242333   4.665   4.089  15.935 -0.0401  0.1418 -0.3224
 6973TIP3    H142334   4.699   4.098  16.024  0.2134  1.3908 -0.5276
 6973TIP3    H242335   4.742   4.075  15.881 -0.0737  0.6313 -0.4981
 6974TIP3   OH242336   3.204   2.170   1.985  0.0583 -0.0357 -0.1830
 6974TIP3    H142337   3.280   2.227   1.997  0.2503 -0.4557  0.6421
 6974TIP3    H242338   3.228   2.088   2.028 -0.3405 -0.6440 -1.0692
 6975TIP3   OH242339   2.821   6.157  15.345  0.0439  0.4381 -0.3913
 6975TIP3    H142340   2.898   6.179  15.293 -0.9242  2.7583 -0.9430
 6975TIP3    H242341   2.757   6.224  15.323 -1.5708 -0.4617  1.3104
 6976TIP3   OH242342   0.934   5.746   6.229 -0.1490 -0.7875  0.0499
 6976TIP3    H142343   0.979   5.815   6.277  0.8863 -2.5043  1.7271
 6976TIP3    H242344   0.918   5.782   6.142  0.5594  1.4292  0.7899
 6977TIP3   OH242345   1.762   3.671  14.506  0.4049 -0.1273 -0.2241
 6977TIP3    H142346   1.828   3.606  14.530 -0.7981 -1.0758  0.6177
 6977TIP3    H242347   1.808   3.755  14.513  1.1106 -0.6365  1.8427
 6978TIP3   OH242348   6.264   5.637  15.628 -0.0195 -0.5523 -0.4734
 6978TIP3    H142349   6.172   5.613  15.621 -0.5062  1.1220 -0.3110
 6978TIP3    H242350   6.263   5.732  15.638  1.7256 -0.5182 -0.3206
 6979TIP3   OH242351   2.580   6.099  14.407  0.3423 -0.1142 -0.0197
 6979TIP3    H142352   2.598   6.094  14.314  1.0896  0.8000  0.0625
 6979TIP3    H242353   2.656   6.059  14.449  2.2017  3.4368  0.3196
 6980TIP3   OH242354   2.837   3.825  13.966  0.4665  0.1946  0.3801
 6980TIP3    H142355   2.927   3.794  13.975  0.3087 -0.3609  0.0926
 6980TIP3    H242356   2.826   3.838  13.871  0.3340  0.5341  0.4404
 6981TIP3   OH242357   0.881   0.599   3.600  0.4540 -0.0698 -0.3541
 6981TIP3    H142358   0.899   0.561   3.514 -0.4211 -0.6052 -0.3035
 6981TIP3    H242359   0.797   0.645   3.589  0.0399 -0.6426  0.3678
 6982TIP3   OH242360   4.852   4.052   3.943  0.5984 -0.2653 -0.0578
 6982TIP3    H142361   4.791   3.988   3.907  2.5065 -1.7139 -0.9542
 6982TIP3    H242362   4.892   4.008   4.018  1.0739  0.3380  0.0526
 6983TIP3   OH242363   1.818   3.982  14.901  0.3289 -0.4668 -0.4979
 6983TIP3    H142364   1.738   3.976  14.849  1.7099 -3.0149 -2.5690
 6983TIP3    H242365   1.877   4.037  14.850 -0.0793  1.6257  1.1440
 6984TIP3   OH242366   0.979   0.768  14.973  0.0416  0.0633  0.0821
 6984TIP3    H142367   0.920   0.808  14.909  0.3666  0.1677 -0.1545
 6984TIP3    H242368   0.921   0.730  15.038 -0.2807  2.1894  1.1164
 6985TIP3   OH242369   4.714   6.087   2.065 -0.7803 -0.1684  0.3071
 6985TIP3    H142370   4.797   6.109   2.022 -0.6645  1.9046  1.4718
 6985TIP3    H242371   4.654   6.157   2.039 -1.6527 -0.6743  0.8982
 6986TIP3   OH242372   2.942   2.106  17.054  0.3265 -0.1608  0.2139
 6986TIP3    H142373   2.908   2.196  17.059  1.4330  0.2862  0.1099
 6986TIP3    H242374   3.021   2.108  17.108  0.7533 -0.8929 -0.3723
 6987TIP3   OH242375   0.178   6.413   3.743  0.6368 -0.3493  0.3495
 6987TIP3    H142376   0.250   6.371   3.696  1.2473 -0.1163  1.0564
 6987TIP3    H242377   0.145   6.479   3.682  0.2597 -1.2311 -0.4228
 6988TIP3   OH242378   0.463   6.199   1.919 -0.0271  0.0878 -0.3219
 6988TIP3    H142379   0.529   6.136   1.892 -0.7906 -1.1456  0.5815
 6988TIP3    H242380   0.487   6.221   2.009 -0.5909 -0.0284 -0.1399
 6989TIP3   OH242381   0.015   5.158   2.493  0.4538  0.0752 -0.1779
 6989TIP3    H142382   0.091   5.100   2.490  0.2395 -0.3023  1.0699
 6989TIP3    H242383  -0.023   5.143   2.580 -0.5496  0.8897 -0.4595
 6990TIP3   OH242384   4.004   5.918  14.089 -1.0543 -0.0166  0.1172
 6990TIP3    H142385   4.034   5.851  14.028 -0.8275  1.5535 -1.5706
 6990TIP3    H242386   3.938   5.874  14.143  0.4164 -2.0731  0.3312
 6991TIP3   OH242387   0.193   3.139   1.491 -0.2542  0.2267 -0.2153
 6991TIP3    H142388   0.109   3.099   1.513  0.2378  0.5491  2.6731
 6991TIP3    H242389   0.171   3.228   1.462 -0.9347  0.1014 -0.0971
 6992TIP3   OH242390   2.650   2.148   3.794  0.1554  0.2263 -0.1074
 6992TIP3    H142391   2.697   2.073   3.758  0.3130 -0.3415  1.2244
 6992TIP3    H242392   2.564   2.145   3.752 -0.2884 -1.4503  0.8476
 6993TIP3   OH242393   2.235   4.427  14.083  0.2370 -0.6272 -0.0055
 6993TIP3    H142394   2.151   4.397  14.048 -0.0002 -1.7382  1.4320
 6993TIP3    H242395   2.214   4.512  14.124  0.2736  0.0914 -1.4123
 6994TIP3   OH242396   2.471   4.611  13.395 -0.1861  0.1679 -0.6653
 6994TIP3    H142397   2.391   4.622  13.447  0.4825  1.5296  0.1357
 6994TIP3    H242398   2.508   4.529  13.426  0.5158  1.2409  1.5551
 6995TIP3   OH242399   0.450   5.132  14.682  0.1388 -0.3056  0.1217
 6995TIP3    H142400   0.402   5.213  14.703  3.8349  2.2995 -0.4764
 6995TIP3    H242401   0.489   5.106  14.766 -0.4657 -1.1052  0.1648
 6996TIP3   OH242402   4.248   2.927   2.332 -0.1387  0.1306 -0.0681
 6996TIP3    H142403   4.229   3.015   2.301  1.4765  0.3548 -0.5029
 6996TIP3    H242404   4.252   2.936   2.428  1.0072  0.7677 -0.1558
 6997TIP3   OH242405   3.999   2.024   1.778 -0.1750  0.0501 -0.0193
 6997TIP3    H142406   3.958   1.962   1.718  0.8820 -2.5972  1.8069
 6997TIP3    H242407   3.959   2.005   1.863  0.0262  2.0964  0.5921
 6998TIP3   OH242408   4.079   2.569   2.770  0.1054  0.1698 -0.4236
 6998TIP3    H142409   4.006   2.602   2.718 -1.1029  1.2114  1.8048
 6998TIP3    H242410   4.076   2.474   2.758 -1.4773  0.2140 -0.5624
 6999TIP3   OH242411   0.699   6.121   1.125  0.0626  0.0820  0.5549
 6999TIP3    H142412   0.696   6.030   1.096  1.4793  0.4913 -1.0240
 6999TIP3    H242413   0.786   6.131   1.164  0.5892  1.1648 -0.8233
 7000TIP3   OH242414   1.885   5.578   5.576  0.2178 -0.1500  0.0291
 7000TIP3    H142415   1.827   5.504   5.557  0.3322 -0.1667 -0.2695
 7000TIP3    H242416   1.910   5.611   5.489 -1.9990  1.9513  0.0758
 7001TIP3   OH242417   2.308   4.917  12.268  0.0548 -0.5480  0.2911
 7001TIP3    H142418   2.333   5.008  12.251 -1.7648 -0.0174  0.2423
 7001TIP3    H242419   2.269   4.919  12.355  0.8773 -1.4850  0.6937
 7002TIP3   OH242420   4.651   1.123   3.365  0.2058 -0.2211  0.0328
 7002TIP3    H142421   4.657   1.029   3.349  1.8059 -0.2922  0.8123
 7002TIP3    H242422   4.742   1.152   3.369 -0.1787  0.8522  2.5530
 7003TIP3   OH242423   5.176   5.341   1.586  0.0578 -0.0292  0.4250
 7003TIP3    H142424   5.092   5.387   1.589 -0.0462 -0.2670  1.7215
 7003TIP3    H242425   5.164   5.265   1.643  0.8994 -0.5153 -0.0267
 7004TIP3   OH242426   2.769   5.035   0.264 -0.4708  0.1110 -0.0123
 7004TIP3    H142427   2.684   5.076   0.282  0.1685  1.3568  0.2899
 7004TIP3    H242428   2.812   5.096   0.203  1.0752  0.6392  1.5351
 7005TIP3   OH242429   1.552   0.831  11.907 -0.2836 -0.0879  0.1529
 7005TIP3    H142430   1.637   0.788  11.916  0.0547  0.4474 -0.4050
 7005TIP3    H242431   1.513   0.826  11.994  0.1693 -0.6525  0.3267
 7006TIP3   OH242432   4.111   4.058   5.662 -0.2511 -0.4070  0.0428
 7006TIP3    H142433   4.061   3.983   5.630 -0.4638 -0.2905  0.1033
 7006TIP3    H242434   4.140   4.103   5.582 -1.9451  0.6622 -0.0074
 7007TIP3   OH242435   0.443   2.511   5.106 -0.2724  0.3292  0.4441
 7007TIP3    H142436   0.531   2.474   5.107  0.2694  1.3271 -1.9484
 7007TIP3    H242437   0.389   2.445   5.063 -0.3749  0.2706  0.6661
 7008TIP3   OH242438   2.393   4.658   0.220  0.2146  0.1070  0.3143
 7008TIP3    H142439   2.476   4.672   0.174  0.5641 -0.0436  0.8854
 7008TIP3    H242440   2.336   4.615   0.156  1.2191 -1.6001  0.4962
 7009TIP3   OH242441   4.152   1.960   2.463 -0.3175 -0.3900  0.4788
 7009TIP3    H142442   4.097   1.883   2.448  1.2615 -1.4729  0.0294
 7009TIP3    H242443   4.103   2.012   2.527 -1.6651 -1.4855  0.3944
 7010TIP3   OH242444   3.086   6.028  11.501 -0.5723  0.4317 -0.3846
 7010TIP3    H142445   3.084   6.120  11.478  0.3685  0.1125 -1.8064
 7010TIP3    H242446   3.168   5.994  11.464 -0.7685 -0.9159  0.3258
 7011TIP3   OH242447   1.707   1.062   2.129 -0.2437  0.0161  0.3487
 7011TIP3    H142448   1.643   1.131   2.144  0.2150  0.3089  1.0279
 7011TIP3    H242449   1.772   1.074   2.198  0.0496 -0.8565  0.2412
 7012TIP3   OH242450   5.720   3.493  14.979  0.0043  0.3048 -0.2435
 7012TIP3    H142451   5.675   3.516  14.897  0.3123  0.7452 -0.2915
 7012TIP3    H242452   5.741   3.578  15.019 -3.2824  0.2117  2.0683
 7013TIP3   OH242453   4.058   0.837   4.854  0.4466  0.4080 -0.0531
 7013TIP3    H142454   4.122   0.909   4.856  1.5030 -0.4992 -0.2205
 7013TIP3    H242455   3.976   0.879   4.829  0.7740  1.7470  1.0018
 7014TIP3   OH242456   2.299   4.907  16.749  0.0294  0.8165 -0.4767
 7014TIP3    H142457   2.235   4.848  16.710  0.4083  0.0362  0.0468
 7014TIP3    H242458   2.364   4.921  16.679  0.6466 -0.4850 -0.2129
 7015TIP3   OH242459   2.847   3.007   5.069  0.1669 -0.7753 -0.0526
 7015TIP3    H142460   2.877   3.030   5.157  1.7458  0.8758 -0.9600
 7015TIP3    H242461   2.926   2.975   5.024 -0.2603 -0.0674 -1.3410
 7016TIP3   OH242462   5.096   5.560   3.013 -0.2796  0.1725 -0.3649
 7016TIP3    H142463   5.181   5.573   3.055  0.3815 -0.0025 -1.6036
 7016TIP3    H242464   5.113   5.571   2.919 -1.9741  1.9352 -0.5273
 7017TIP3   OH242465   0.814   2.400   2.284 -0.5399  0.2695 -0.8773
 7017TIP3    H142466   0.862   2.376   2.205 -1.6081 -1.2108 -1.1192
 7017TIP3    H242467   0.722   2.399   2.258 -0.8213  1.2998  0.0099
 7018TIP3   OH242468   5.925   2.128  10.320 -0.5075  0.1465  0.0820
 7018TIP3    H142469   5.928   2.080  10.403  0.0434 -0.6001 -0.3602
 7018TIP3    H242470   5.897   2.216  10.344  3.3953  1.1531  1.6186
 7019TIP3   OH242471   0.737   5.055   2.770  0.0440  0.0101 -0.3952
 7019TIP3    H142472   0.668   5.050   2.836  0.1514  1.0576 -0.1964
 7019TIP3    H242473   0.766   4.964   2.759 -1.8740 -0.5689 -1.0493
 7020TIP3   OH242474   5.468   4.258  14.526  0.3834  0.5051 -0.1482
 7020TIP3    H142475   5.434   4.172  14.548 -0.3315  0.7626 -0.2159
 7020TIP3    H242476   5.499   4.294  14.609  1.4138 -0.1117 -0.2404
 7021TIP3   OH242477   5.206   3.868   5.893  0.2320  0.0691  0.0476
 7021TIP3    H142478   5.289   3.836   5.929 -0.4539 -1.9933 -0.0488
 7021TIP3    H242479   5.158   3.901   5.969  0.7111  0.2392  0.2779
 7022TIP3   OH242480   0.076   1.868  15.042 -0.0034  0.0449  0.1414
 7022TIP3    H142481  -0.011   1.902  15.065 -0.4921 -0.4716 -0.8451
 7022TIP3    H242482   0.079   1.782  15.083  0.9179  0.8903  1.9695
 7023TIP3   OH242483   0.449   0.681  15.701 -0.1067 -0.1219 -0.1014
 7023TIP3    H142484   0.436   0.760  15.649 -2.2057  1.2491  2.2666
 7023TIP3    H242485   0.506   0.709  15.773 -0.9865 -0.6679  0.8405
 7024TIP3   OH242486   3.599   6.443  13.642 -0.1707  0.6248  0.2914
 7024TIP3    H142487   3.559   6.373  13.694  1.1588  0.4653  1.1356
 7024TIP3    H242488   3.555   6.438  13.557 -0.5388 -0.8262  0.5428
 7025TIP3   OH242489   4.167   5.258   3.654  0.8537 -0.3215 -0.0709
 7025TIP3    H142490   4.134   5.347   3.661 -0.3980 -0.8588  1.4429
 7025TIP3    H242491   4.198   5.251   3.563 -0.3739  1.1896 -0.6508
 7026TIP3   OH242492   3.488   2.373  14.471  0.1986  0.0673 -0.6480
 7026TIP3    H142493   3.405   2.388  14.515 -0.0465 -0.2091 -1.0075
 7026TIP3    H242494   3.542   2.449  14.493  0.4483 -0.5397  0.9635
 7027TIP3   OH242495   1.025   4.831   2.274 -0.3367  0.1763 -0.1563
 7027TIP3    H142496   0.975   4.902   2.314 -0.2462  0.4408 -0.5080
 7027TIP3    H242497   1.014   4.757   2.334 -0.7705  0.3672  0.0020
 7028TIP3   OH242498   6.603   3.000  14.531 -0.1917  0.7189 -0.0997
 7028TIP3    H142499   6.567   2.974  14.446  0.2924 -0.5140  0.0476
 7028TIP3    H242500   6.532   3.047  14.574 -0.8174  0.4000 -0.7591
 7029TIP3   OH242501   2.342   4.920   2.835  0.1933 -0.2319  0.6693
 7029TIP3    H142502   2.327   5.009   2.867 -0.7893 -0.4135  0.7499
 7029TIP3    H242503   2.292   4.864   2.896  1.2889 -0.8915  0.9862
 7030TIP3   OH242504   0.966   2.261  13.349  0.1137 -0.2571  0.4637
 7030TIP3    H142505   1.034   2.236  13.412 -0.8580 -0.6720  1.3880
 7030TIP3    H242506   0.925   2.179  13.324 -0.2036  0.0090  0.1066
 7031TIP3   OH242507   4.124   6.432  14.779  0.6440  0.4335  0.5846
 7031TIP3    H142508   4.176   6.509  14.805  1.5626 -0.3040  0.9780
 7031TIP3    H242509   4.093   6.395  14.862  0.3304  0.2850  0.4031
 7032TIP3   OH242510   5.208   0.633   4.062  0.0583 -0.3576  0.1715
 7032TIP3    H142511   5.247   0.677   3.987  0.0391  1.4833  1.1726
 7032TIP3    H242512   5.283   0.613   4.119 -0.0576 -0.5482  0.2572
 7033TIP3   OH242513   6.733   1.884   1.124  0.3081  0.3633  0.2453
 7033TIP3    H142514   6.708   1.963   1.076 -0.0263  0.7041  0.9678
 7033TIP3    H242515   6.678   1.886   1.203  0.1012 -0.7244  0.1423
 7034TIP3   OH242516   6.716   0.499  15.048 -0.1071  0.1010  0.0845
 7034TIP3    H142517   6.801   0.472  15.013 -0.0795 -0.5993  0.6593
 7034TIP3    H242518   6.737   0.542  15.131 -0.3008 -0.0074  0.1912
 7035TIP3   OH242519   5.574   5.636  13.797  0.4584  0.1003  0.3849
 7035TIP3    H142520   5.543   5.553  13.759  0.7601 -0.0123  0.3809
 7035TIP3    H242521   5.578   5.619  13.891  2.3988 -0.5418  0.2356
 7036TIP3   OH242522   4.836   6.042   0.999 -0.2904 -0.3531  0.1592
 7036TIP3    H142523   4.902   6.110   0.992 -0.2949 -0.4226 -0.6609
 7036TIP3    H242524   4.780   6.055   0.922 -0.7104 -0.8351  0.3778
 7037TIP3   OH242525   3.117   1.948  13.347 -0.4792 -0.3084  0.1588
 7037TIP3    H142526   3.055   1.877  13.359  0.4030 -0.9465  1.1352
 7037TIP3    H242527   3.084   2.019  13.403 -0.0894 -0.8214  1.0643
 7038TIP3   OH242528   1.603   4.976   2.159  0.5640  0.2195 -0.2372
 7038TIP3    H142529   1.512   4.956   2.137  0.5615 -1.1555  0.9145
 7038TIP3    H242530   1.635   5.028   2.085 -1.5784  2.0587  0.0276
 7039TIP3   OH242531   5.804   3.834  15.674  0.1509 -0.0663  0.1851
 7039TIP3    H142532   5.823   3.866  15.762  0.2982 -0.5548  0.3383
 7039TIP3    H242533   5.879   3.778  15.653  0.5440  0.7298 -0.5978
 7040TIP3   OH242534   3.969   4.680   2.658 -0.2980 -0.1702  0.2953
 7040TIP3    H142535   4.054   4.639   2.676 -0.4289  0.4313  2.5996
 7040TIP3    H242536   3.992   4.766   2.622  0.0282 -0.5962 -0.5376
 7041TIP3   OH242537   2.327   5.996  16.569  0.1816 -0.2341  0.1547
 7041TIP3    H142538   2.259   6.055  16.601  0.6888  1.4894 -1.6890
 7041TIP3    H242539   2.304   5.980  16.478  1.8453 -0.1556 -0.3247
 7042TIP3   OH242540   6.687   2.968  11.801 -0.2677 -0.7268  0.3893
 7042TIP3    H142541   6.762   3.023  11.824 -0.7132 -0.5440  1.4288
 7042TIP3    H242542   6.629   3.026  11.752 -0.3007 -0.5277  0.6649
 7043TIP3   OH242543   6.151   4.289   2.518  0.2609  0.5679 -0.1061
 7043TIP3    H142544   6.100   4.321   2.443 -0.4388 -0.2080  0.0094
 7043TIP3    H242545   6.239   4.322   2.504  0.8705 -1.7701 -2.7884
 7044TIP3   OH242546   2.091   1.479   1.149  0.6376 -0.4884  0.0266
 7044TIP3    H142547   2.072   1.566   1.183  1.4246 -0.4719  0.4377
 7044TIP3    H242548   2.101   1.424   1.226 -2.1067 -1.4867 -0.2135
 7045TIP3   OH242549   5.505   4.779  14.564 -0.1365 -0.0866  0.1528
 7045TIP3    H142550   5.494   4.784  14.659  1.7968 -1.8831  0.5253
 7045TIP3    H242551   5.458   4.700  14.538 -1.5170  0.9366 -0.5752
 7046TIP3   OH242552   6.707   1.772   2.850 -0.5565 -0.2875 -0.0472
 7046TIP3    H142553   6.801   1.760   2.844 -0.6022 -0.0146 -3.0391
 7046TIP3    H242554   6.671   1.684   2.864  0.0613 -0.7541 -1.2740
 7047TIP3   OH242555   0.152   2.743   3.045  0.6190  0.6280 -0.4439
 7047TIP3    H142556   0.226   2.741   2.985  0.9360 -1.3903 -0.0396
 7047TIP3    H242557   0.179   2.802   3.116  2.3091 -0.8995  0.2374
 7048TIP3   OH242558   6.697   3.063   4.769  0.0536  0.2033  0.3675
 7048TIP3    H142559   6.623   3.116   4.739 -1.3816 -2.3711 -1.0016
 7048TIP3    H242560   6.770   3.124   4.774 -1.7649  2.5296  0.1607
 7049TIP3   OH242561   1.880   2.892   2.798 -0.6768 -0.7297  0.1143
 7049TIP3    H142562   1.827   2.908   2.721 -2.1601  0.1339  1.2593
 7049TIP3    H242563   1.942   2.823   2.772 -0.4501  0.2627 -2.1143
 7050TIP3   OH242564   3.912   5.569  12.881  0.1925 -1.2366  0.1380
 7050TIP3    H142565   3.881   5.613  12.959  0.7180  0.9818 -0.8245
 7050TIP3    H242566   4.003   5.544  12.901  0.0716 -1.4010  0.4903
 7051TIP3   OH242567   6.225   3.398   1.540 -0.1133  0.1587 -0.8446
 7051TIP3    H142568   6.291   3.380   1.607  0.1343  1.6802 -0.6423
 7051TIP3    H242569   6.246   3.338   1.468 -0.6053 -1.7808  0.5285
 7052TIP3   OH242570   5.321   3.968  15.590 -0.1655  0.0465 -0.1786
 7052TIP3    H142571   5.240   3.978  15.640 -0.3741  0.0535 -0.5154
 7052TIP3    H242572   5.361   3.889  15.625 -0.6074 -0.2854 -0.4093
 7053TIP3   OH242573   0.820   2.538   1.689 -0.1532 -0.3298  0.4209
 7053TIP3    H142574   0.738   2.587   1.687 -1.3155 -2.1827  0.3927
 7053TIP3    H242575   0.882   2.592   1.640 -2.0628 -0.0713 -1.8361
 7054TIP3   OH242576   5.613   5.992   0.990 -0.5714 -0.5976  0.4121
 7054TIP3    H142577   5.636   6.030   1.074 -1.2383 -1.0891  0.8314
 7054TIP3    H242578   5.604   5.898   1.008 -2.7411 -0.4635  0.2836
 7055TIP3   OH242579   3.513   4.864  17.228  0.1650 -0.0109 -0.5268
 7055TIP3    H142580   3.453   4.899  17.162 -0.4736 -2.3528 -1.3025
 7055TIP3    H242581   3.457   4.810  17.284  0.9206  0.9568  1.2478
 7056TIP3   OH242582   2.822   5.993   4.405  0.9915 -0.3020  0.3092
 7056TIP3    H142583   2.857   5.936   4.474  2.9338  1.7717  1.1842
 7056TIP3    H242584   2.885   6.066   4.401  0.8805 -0.2391 -3.5755
 7057TIP3   OH242585   4.306   1.307  14.189 -0.6350 -0.4015  0.0684
 7057TIP3    H142586   4.274   1.309  14.099  2.2940 -0.2144 -1.0595
 7057TIP3    H242587   4.372   1.238  14.190 -0.8051 -0.6112  2.2021
 7058TIP3   OH242588   0.039   2.833   4.231 -0.2463  0.4725 -0.1607
 7058TIP3    H142589   0.122   2.880   4.235 -1.2273  2.2252  2.7122
 7058TIP3    H242590   0.035   2.785   4.315 -2.6808  1.5621  0.4416
 7059TIP3   OH242591   1.613   1.216  15.553  0.2685  0.5622 -0.6232
 7059TIP3    H142592   1.647   1.177  15.633 -1.8204  0.2069  0.1495
 7059TIP3    H242593   1.573   1.298  15.581 -0.2198  0.5854 -1.3528
 7060TIP3   OH242594   5.651   6.610  15.784  0.3768  0.5233 -0.2425
 7060TIP3    H142595   5.715   6.612  15.855  0.2968 -0.2290 -0.1379
 7060TIP3    H242596   5.607   6.695  15.789  0.0577  0.3139  0.9050
 7061TIP3   OH242597   2.615   0.680  11.584 -0.2800 -0.1792 -0.0750
 7061TIP3    H142598   2.536   0.637  11.552 -0.5799  0.7378 -0.6120
 7061TIP3    H242599   2.687   0.635  11.540 -0.6113  0.1233 -0.9433
 7062TIP3   OH242600   0.196   0.012   4.043  0.1355 -0.4124  0.1248
 7062TIP3    H142601   0.153  -0.073   4.045  0.8017 -0.7516  1.8885
 7062TIP3    H242602   0.232   0.023   4.131 -0.2494  1.8604  0.0613
 7063TIP3   OH242603   3.122   4.992   5.149  0.8817 -0.1844  1.0771
 7063TIP3    H142604   3.207   5.029   5.174  0.3131  0.1853  2.6123
 7063TIP3    H242605   3.130   4.899   5.167  2.2451 -0.9353 -2.5946
 7064TIP3   OH242606   6.549   5.194  11.933  0.6123  0.3727  0.2391
 7064TIP3    H142607   6.596   5.251  11.994  1.4860  1.3004 -1.2469
 7064TIP3    H242608   6.614   5.169  11.868 -0.3011 -0.5622 -0.3578
 7065TIP3   OH242609   2.281   6.317  14.151 -0.2454  0.3200 -0.4136
 7065TIP3    H142610   2.278   6.237  14.097 -2.0939  0.4001 -0.5055
 7065TIP3    H242611   2.363   6.359  14.127  0.2418 -1.0078 -1.1855
 7066TIP3   OH242612   4.365   2.313   1.167  0.0676 -0.4218  0.2616
 7066TIP3    H142613   4.328   2.288   1.082  2.5016 -0.9057 -0.7517
 7066TIP3    H242614   4.416   2.393   1.148  0.9919 -0.7797  1.1391
 7067TIP3   OH242615   2.645   2.570   5.913  0.2314 -0.8957  0.5000
 7067TIP3    H142616   2.590   2.534   5.982 -1.0622 -1.0256 -0.5500
 7067TIP3    H242617   2.601   2.544   5.832  1.3421 -0.1821 -0.3619
 7068TIP3   OH242618   3.546   4.193   0.464  0.2151  0.1401 -0.0983
 7068TIP3    H142619   3.452   4.207   0.473  0.3582  0.6627  0.6393
 7068TIP3    H242620   3.576   4.262   0.405  0.2344  0.3697  0.1770
 7069TIP3   OH242621   1.551   1.333   4.095 -0.0450  0.3249  0.5417
 7069TIP3    H142622   1.460   1.310   4.110 -0.4651  0.6113 -1.3471
 7069TIP3    H242623   1.599   1.289   4.165 -1.5760 -0.1923  1.3000
 7070TIP3   OH242624   5.025   0.843  10.614 -0.7962 -0.2040  0.1997
 7070TIP3    H142625   5.044   0.793  10.535  1.4092  0.8310  0.0227
 7070TIP3    H242626   5.071   0.796  10.683 -0.9965  0.0602  0.5157
 7071TIP3   OH242627   4.644   3.418  15.649 -0.0685 -0.7874 -0.1053
 7071TIP3    H142628   4.627   3.463  15.732 -1.4667 -2.4122  0.5599
 7071TIP3    H242629   4.657   3.488  15.585 -3.3698  0.6898  0.6023
 7072TIP3   OH242630   2.186   2.879   3.066 -0.0819 -0.3328  0.4469
 7072TIP3    H142631   2.175   2.936   2.990  1.3112 -0.7432 -0.1071
 7072TIP3    H242632   2.098   2.866   3.099 -0.4287  2.3937  0.8074
 7073TIP3   OH242633   4.733   6.171  15.709  0.4396 -0.5455 -0.1253
 7073TIP3    H142634   4.648   6.185  15.751  0.1293 -0.1451 -0.8755
 7073TIP3    H242635   4.783   6.121  15.774  0.5976  1.5391  1.4651
 7074TIP3   OH242636   1.793   2.017  15.064  0.0233  0.1187  0.1244
 7074TIP3    H142637   1.815   2.088  15.003 -1.2343  1.0289  0.6907
 7074TIP3    H242638   1.722   2.053  15.118 -1.8324 -2.1605 -0.6781
 7075TIP3   OH242639   2.333   6.464   4.740 -0.3928 -0.0489  0.2215
 7075TIP3    H142640   2.284   6.546   4.749 -1.6347 -0.8695  1.3555
 7075TIP3    H242641   2.411   6.477   4.794 -1.0491  0.0623  1.1657
 7076TIP3   OH242642   2.035   4.561  16.831 -0.1968 -0.3171 -0.1888
 7076TIP3    H142643   1.950   4.548  16.789 -1.0977 -1.3951  1.8448
 7076TIP3    H242644   2.096   4.508  16.780 -1.2165 -1.4780 -0.2341
 7077TIP3   OH242645   1.872   2.160  17.074  0.4320  0.8297  0.5220
 7077TIP3    H142646   1.913   2.247  17.068 -0.5670  1.2405 -0.6891
 7077TIP3    H242647   1.923   2.106  17.013 -0.2927  1.1407 -0.3830
 7078TIP3   OH242648   0.665   2.020   0.915 -0.0476  0.8041  0.7834
 7078TIP3    H142649   0.591   1.970   0.948 -0.0880 -1.0844 -1.8626
 7078TIP3    H242650   0.626   2.085   0.857  0.3048 -0.1897 -0.6105
 7079TIP3   OH242651   6.029   6.653  13.586 -0.2813 -0.0383 -0.4865
 7079TIP3    H142652   5.953   6.665  13.643  0.8968 -0.1569  1.1801
 7079TIP3    H242653   6.065   6.568  13.613  2.0677  1.2791  0.7985
 7080TIP3   OH242654   2.822   4.305  12.855  0.6209  0.3919 -0.1546
 7080TIP3    H142655   2.827   4.242  12.783  2.2342  2.1864 -1.7320
 7080TIP3    H242656   2.913   4.315  12.884  0.0724  0.1080  1.8591
 7081TIP3   OH242657   2.658   1.603   1.776 -0.3441 -0.8476  0.2017
 7081TIP3    H142658   2.697   1.580   1.691 -0.4076 -0.0081 -0.0639
 7081TIP3    H242659   2.719   1.667   1.813 -1.3036  0.2691 -0.0900
 7082TIP3   OH242660   0.273   1.726   0.437  0.3298  0.1563  0.1466
 7082TIP3    H142661   0.335   1.699   0.370  1.2535  0.5054  0.8285
 7082TIP3    H242662   0.302   1.680   0.516  0.2423  0.9845  0.6720
 7083TIP3   OH242663   4.509   3.560  15.366  0.0362  0.2299 -0.5366
 7083TIP3    H142664   4.569   3.622  15.407 -0.2211 -0.0531  0.2978
 7083TIP3    H242665   4.561   3.480  15.354  0.1908  0.4037 -1.0264
 7084TIP3   OH242666   1.870   3.880  13.811  0.0918  0.0587  0.3113
 7084TIP3    H142667   1.938   3.841  13.866 -0.1981 -1.2889 -0.2627
 7084TIP3    H242668   1.919   3.927  13.743  0.4774 -0.9757 -0.1536
 7085TIP3   OH242669   6.605   1.845  11.285  0.6236 -0.2332 -0.7731
 7085TIP3    H142670   6.556   1.911  11.235  0.3916 -0.5617 -0.9820
 7085TIP3    H242671   6.692   1.846  11.245  1.4096  1.7298  0.8393
 7086TIP3   OH242672   1.683   6.505  15.669 -0.0126  0.7995 -0.0765
 7086TIP3    H142673   1.733   6.424  15.666 -0.6946  0.3137  0.9419
 7086TIP3    H242674   1.702   6.549  15.586  0.5814 -0.2649 -0.5183
 7087TIP3   OH242675   0.290   0.856   2.921  0.0109 -0.1873  0.5613
 7087TIP3    H142676   0.285   0.833   2.828 -4.2097 -0.6689  0.6897
 7087TIP3    H242677   0.288   0.772   2.967 -0.2293  0.0872  1.0638
 7088TIP3   OH242678   4.696   4.505  13.704  0.1531  0.5446 -0.5176
 7088TIP3    H142679   4.692   4.567  13.777 -0.5541 -0.1560  0.0516
 7088TIP3    H242680   4.690   4.560  13.625 -1.3985  1.1499 -0.0141
 7089TIP3   OH242681   0.876   5.488  12.776 -0.3320  0.1532  0.4120
 7089TIP3    H142682   0.805   5.525  12.723 -0.3006  1.6277  1.3300
 7089TIP3    H242683   0.867   5.531  12.861 -0.6345 -2.4406  1.8035
 7090TIP3   OH242684   6.323   0.055  12.440  0.6130  0.4305  0.9689
 7090TIP3    H142685   6.405   0.031  12.484  0.5300  0.0496  0.9237
 7090TIP3    H242686   6.274  -0.027  12.435  0.2378  0.6521  0.9736
 7091TIP3   OH242687   3.046   6.748  13.461 -0.1678 -0.1544  0.2486
 7091TIP3    H142688   3.116   6.796  13.504  0.8613 -0.5701 -0.8992
 7091TIP3    H242689   2.979   6.814  13.442  0.2219  0.3817  0.7026
 7092TIP3   OH242690   1.554   0.814   3.250  0.0128 -0.1291 -0.6972
 7092TIP3    H142691   1.617   0.841   3.184  1.5329 -1.8997 -0.0587
 7092TIP3    H242692   1.499   0.748   3.207  0.7432 -0.9869 -0.3403
 7093TIP3   OH242693   3.349   5.662  17.304  0.0342  0.2322 -0.2784
 7093TIP3    H142694   3.346   5.664  17.400 -1.2671 -2.0453 -0.2125
 7093TIP3    H242695   3.398   5.582  17.284 -1.8703 -0.7087 -1.4521
 7094TIP3   OH242696   0.558   0.960   2.033  0.6973  0.3572 -0.3825
 7094TIP3    H142697   0.564   1.029   2.099 -0.6734  0.3802 -0.2547
 7094TIP3    H242698   0.464   0.940   2.027  1.1331 -2.6291  0.7654
 7095TIP3   OH242699   0.221   6.261  12.387 -0.5366 -0.1022 -0.1648
 7095TIP3    H142700   0.289   6.293  12.328 -0.5455 -1.0716 -0.7333
 7095TIP3    H242701   0.201   6.335  12.444 -0.6784  0.9366 -1.5093
 7096TIP3   OH242702   2.227   2.146  15.562  1.0485 -0.0293  0.3109
 7096TIP3    H142703   2.278   2.081  15.514 -0.5958  0.1268 -1.8216
 7096TIP3    H242704   2.246   2.229  15.518  0.7192  0.3910  0.9527
 7097TIP3   OH242705   0.316   6.452   0.769  0.7311 -0.1295 -0.0094
 7097TIP3    H142706   0.253   6.450   0.697  0.3284  0.3465  0.3230
 7097TIP3    H242707   0.374   6.378   0.752  0.3812 -0.2784 -0.5893
 7098TIP3   OH242708   2.835   4.809   2.614  0.1185  0.3091  0.2111
 7098TIP3    H142709   2.835   4.794   2.709  0.8706  1.0564  0.3358
 7098TIP3    H242710   2.804   4.726   2.577 -0.1983  0.0176  1.1081
 7099TIP3   OH242711   4.433   2.666   3.822  0.2950  0.1825 -0.1445
 7099TIP3    H142712   4.340   2.669   3.797  0.5700 -2.0658 -1.6863
 7099TIP3    H242713   4.439   2.593   3.882  1.2588 -0.6107 -1.1626
 7100TIP3   OH242714   0.342   2.915  11.848 -0.4546 -0.0614 -0.2828
 7100TIP3    H142715   0.298   2.969  11.913  0.7213  0.6254 -0.0242
 7100TIP3    H242716   0.275   2.854  11.817 -1.5538  0.9163  0.1214
 7101TIP3   OH242717   1.333   3.197   1.092 -0.2905 -0.0016  0.3118
 7101TIP3    H142718   1.416   3.206   1.140 -0.6778 -0.8563  1.1745
 7101TIP3    H242719   1.351   3.130   1.027 -0.1727  0.1345  0.2040
 7102TIP3   OH242720   6.100   5.418   5.512 -0.1880 -0.6555  0.1097
 7102TIP3    H142721   6.177   5.361   5.519  1.6842  1.8788  2.3122
 7102TIP3    H242722   6.083   5.445   5.602 -2.5439  0.3371 -0.5691
 7103TIP3   OH242723   4.745   2.036   4.287  0.2705  0.0207 -0.4834
 7103TIP3    H142724   4.702   1.984   4.355 -0.2635  0.7803 -0.2324
 7103TIP3    H242725   4.837   2.009   4.291  0.1627 -0.2471  0.2602
 7104TIP3   OH242726   5.649   1.543  16.826  0.4794 -0.6571 -0.3912
 7104TIP3    H142727   5.574   1.593  16.792  1.5555  1.3034 -0.0453
 7104TIP3    H242728   5.671   1.587  16.908  1.2407 -1.9974  0.1483
 7105TIP3   OH242729   0.446   6.585   0.318  0.1362 -0.6302 -0.5488
 7105TIP3    H142730   0.496   6.602   0.239  0.0721  2.5260 -0.0359
 7105TIP3    H242731   0.392   6.663   0.330  0.0245 -1.0420  2.5282
 7106TIP3   OH242732   0.422   1.771   6.192 -0.1118 -0.2901 -0.4810
 7106TIP3    H142733   0.372   1.829   6.134  0.1385  1.1809  0.7047
 7106TIP3    H242734   0.482   1.830   6.239  1.9344 -1.8386 -1.0095
 7107TIP3   OH242735   3.869   0.885  13.072  0.1751  0.5823  0.2220
 7107TIP3    H142736   3.886   0.794  13.049 -1.6287  0.2233  0.1315
 7107TIP3    H242737   3.776   0.898  13.051  0.0284  2.0269  1.5441
 7108TIP3   OH242738   2.043   3.624  17.080  0.1852 -0.2343 -0.5127
 7108TIP3    H142739   2.094   3.665  17.010 -0.4362 -0.5846 -1.1793
 7108TIP3    H242740   2.045   3.530  17.060 -1.4120 -0.1918 -1.0372
 7109TIP3   OH242741   5.375   0.733   0.870  0.2799 -0.2633  0.0460
 7109TIP3    H142742   5.394   0.794   0.799  2.5282 -0.4471  0.4209
 7109TIP3    H242743   5.366   0.789   0.947 -0.1234 -0.2229 -0.0292
 7110TIP3   OH242744   1.642   1.985  17.325  0.1254 -0.2712  0.2857
 7110TIP3    H142745   1.589   2.022  17.396 -1.7045 -0.3718 -0.9753
 7110TIP3    H242746   1.732   1.996  17.355 -0.5585  0.5578  2.1969
 7111TIP3   OH242747   2.450   3.411   5.290 -0.1565  0.3213 -0.0745
 7111TIP3    H142748   2.492   3.328   5.312  1.9187  1.2803 -0.2410
 7111TIP3    H242749   2.488   3.435   5.206  0.6304  2.2955  0.7978
 7112TIP3   OH242750   4.765   2.177   3.399  0.3021 -0.0331  0.0764
 7112TIP3    H142751   4.720   2.258   3.375  0.6180 -0.3391 -1.6893
 7112TIP3    H242752   4.857   2.201   3.404  0.4891 -0.3801 -1.1662
 7113TIP3   OH242753   2.585   2.040  14.537  0.0186  0.7465  0.0753
 7113TIP3    H142754   2.679   2.027  14.549 -0.2828 -1.0991  0.6182
 7113TIP3    H242755   2.546   2.016  14.621 -0.9945  0.8746 -0.3450
 7114TIP3   OH242756   4.361   4.170   5.178 -0.1768 -0.4288  0.0667
 7114TIP3    H142757   4.452   4.175   5.205 -0.2199  2.5975 -0.0268
 7114TIP3    H242758   4.364   4.157   5.083  0.0833 -1.7686  0.2352
 7115TIP3   OH242759   1.402   5.836  14.770 -0.1379  0.0958  0.3174
 7115TIP3    H142760   1.396   5.759  14.826 -0.2220  0.7925  1.2928
 7115TIP3    H242761   1.495   5.856  14.766 -0.0177 -0.5861 -0.7013
 7116TIP3   OH242762   3.712   4.267  13.461  0.5891  0.0140 -0.5476
 7116TIP3    H142763   3.729   4.321  13.538 -1.0232 -0.1228 -0.0599
 7116TIP3    H242764   3.799   4.252  13.423  1.0340  4.2078 -1.6255
 7117TIP3   OH242765   5.212   3.309  15.503  0.0991  0.0253 -0.2001
 7117TIP3    H142766   5.235   3.386  15.555 -0.1810 -0.0982  0.1062
 7117TIP3    H242767   5.116   3.305  15.506  0.1225 -0.4652 -0.0321
 7118TIP3   OH242768   6.499   0.963  12.631  0.0813 -0.3009 -0.3163
 7118TIP3    H142769   6.491   0.964  12.726  1.6916 -1.0738 -0.1348
 7118TIP3    H242770   6.547   1.043  12.610  0.5914 -0.6132 -0.3648
 7119TIP3   OH242771   1.376   2.494   2.450 -0.0381  0.0886 -0.1929
 7119TIP3    H142772   1.345   2.434   2.382  0.7521  1.3829 -1.7394
 7119TIP3    H242773   1.450   2.449   2.490  0.6026  0.0459 -1.3954
 7120TIP3   OH242774   1.820   0.891   4.475 -0.1107  0.2671  0.2918
 7120TIP3    H142775   1.888   0.841   4.430  0.3108 -0.7284  1.9253
 7120TIP3    H242776   1.864   0.925   4.554 -1.2680  0.3731  0.9166
 7121TIP3   OH242777   6.321   1.991   4.795  0.2178  0.6145  0.4553
 7121TIP3    H142778   6.319   1.908   4.747 -2.7952 -0.1627  1.7220
 7121TIP3    H242779   6.236   2.031   4.776  0.6129  2.2120  1.9016
 7122TIP3   OH242780   1.062   6.126  17.051  0.1486  0.1116  0.0740
 7122TIP3    H142781   1.044   6.197  17.112  2.1958  2.2794 -1.6676
 7122TIP3    H242782   1.004   6.055  17.080 -0.3054  1.6128  3.3343
 7123TIP3   OH242783   4.484   4.110   0.034  0.9705 -0.3213 -0.1410
 7123TIP3    H142784   4.562   4.069   0.073  0.4308  1.0607  2.7024
 7123TIP3    H242785   4.425   4.037   0.016  2.6337 -1.3390 -1.8188
 7124TIP3   OH242786   5.207   1.311   0.185 -0.3706  0.2085  0.0875
 7124TIP3    H142787   5.291   1.266   0.182 -0.5873 -0.1738 -1.2893
 7124TIP3    H242788   5.192   1.339   0.094 -1.0260  1.5875  0.6019
 7125TIP3   OH242789   5.432   4.290   2.380  0.7713 -0.3400  0.3530
 7125TIP3    H142790   5.452   4.282   2.474 -2.1214 -1.4693  0.9795
 7125TIP3    H242791   5.362   4.356   2.377  0.9471 -0.2048 -1.0425
 7126TIP3   OH242792   2.451   0.668  15.645 -0.0516  0.5649 -0.3291
 7126TIP3    H142793   2.414   0.694  15.561  1.7552  1.3881 -0.9316
 7126TIP3    H242794   2.378   0.631  15.694 -1.4706  1.4495 -1.6963
 7127TIP3   OH242795   2.122   1.948   2.426 -0.4503 -0.0440  0.3350
 7127TIP3    H142796   2.185   1.914   2.489  1.7139  1.5792 -0.8207
 7127TIP3    H242797   2.079   2.021   2.470 -2.4724 -1.8396  1.5269
 7128TIP3   OH242798   1.013   2.831  13.967  0.5447 -0.2852 -0.4750
 7128TIP3    H142799   1.100   2.854  13.934  1.8059 -0.0522  2.6793
 7128TIP3    H242800   1.026   2.748  14.012 -1.5054 -1.5558 -2.0218
 7129TIP3   OH242801   2.257   5.572  15.860  0.1412 -0.0225  0.4403
 7129TIP3    H142802   2.332   5.515  15.879  0.1730  0.3266  1.4313
 7129TIP3    H242803   2.206   5.572  15.941  0.2129  1.4685  0.5110
 7130TIP3   OH242804   6.716   6.469   4.539  0.4611 -0.6248 -0.2952
 7130TIP3    H142805   6.653   6.489   4.608  0.3839 -0.3359 -0.4477
 7130TIP3    H242806   6.789   6.528   4.556  0.7530 -1.0528 -0.0384
 7131TIP3   OH242807   5.747   5.037   3.307  0.0167 -0.1788 -0.1370
 7131TIP3    H142808   5.711   5.056   3.393 -1.6424  1.3778 -1.1057
 7131TIP3    H242809   5.680   5.067   3.245  1.8828  0.4407 -1.9981
 7132TIP3   OH242810   0.942   3.101   5.879 -0.2521 -0.3712  0.4442
 7132TIP3    H142811   0.962   3.194   5.885  1.4236 -0.5318 -1.4183
 7132TIP3    H242812   0.897   3.081   5.961 -1.7537  2.2931  0.3753
 7133TIP3   OH242813   3.017   0.436  15.752  0.0603  0.5328  0.1257
 7133TIP3    H142814   3.028   0.435  15.656  0.8714  0.8139  0.2033
 7133TIP3    H242815   3.020   0.343  15.777 -0.5544  0.4333 -0.1604
 7134TIP3   OH242816   2.605   0.414   4.342 -0.5071 -0.1609 -0.3315
 7134TIP3    H142817   2.636   0.504   4.337 -1.1498  0.0399 -1.0586
 7134TIP3    H242818   2.649   0.369   4.270  0.8637 -0.7976  0.8426
 7135TIP3   OH242819   0.308   5.122   1.425 -0.3300 -0.0034  0.0963
 7135TIP3    H142820   0.213   5.128   1.414 -0.4415 -2.9918 -1.5736
 7135TIP3    H242821   0.320   5.042   1.477  1.2816  0.2855  0.1982
 7136TIP3   OH242822   6.051   2.734  12.757  0.1427 -0.1714 -0.1385
 7136TIP3    H142823   6.045   2.769  12.846 -0.6217  0.4289 -0.4256
 7136TIP3    H242824   5.996   2.791  12.704  0.9111 -0.2783 -1.0819
 7137TIP3   OH242825   2.059   1.362  13.954  0.0230  0.0461 -0.7976
 7137TIP3    H142826   2.089   1.397  13.870 -1.0528  0.3022 -1.0904
 7137TIP3    H242827   1.964   1.353  13.943 -0.1988  0.5359  0.5467
 7138TIP3   OH242828   2.894   6.277   2.117 -0.3578 -0.9322 -0.0765
 7138TIP3    H142829   2.979   6.282   2.075 -0.4637  1.6211 -0.1161
 7138TIP3    H242830   2.914   6.262   2.210  0.0414 -2.0816 -0.3361
 7139TIP3   OH242831   3.119   1.171   1.529 -0.3102 -0.0102  0.8844
 7139TIP3    H142832   3.031   1.135   1.520 -0.5458  0.7245  0.1082
 7139TIP3    H242833   3.112   1.232   1.603 -1.0724  1.7523 -0.5551
 7140TIP3   OH242834   5.118   2.803  11.341 -0.1893 -0.3833  0.3121
 7140TIP3    H142835   5.205   2.784  11.375 -0.8143 -1.3208  1.4411
 7140TIP3    H242836   5.099   2.731  11.282 -0.2217 -0.2040  0.1039
 7141TIP3   OH242837   3.122   5.543   0.381 -0.1879 -0.0111  0.5741
 7141TIP3    H142838   3.049   5.603   0.397 -1.0084 -0.5831 -0.8898
 7141TIP3    H242839   3.193   5.598   0.351 -0.2544  0.4557  1.2487
 7142TIP3   OH242840   5.634   4.799   2.037  0.2777  0.4494 -0.3071
 7142TIP3    H142841   5.650   4.881   1.991 -1.3238  0.9692 -0.0183
 7142TIP3    H242842   5.539   4.798   2.051  0.4724 -0.6601  1.1597
 7143TIP3   OH242843   4.650   6.065  13.524 -0.3271 -0.4873  0.3252
 7143TIP3    H142844   4.687   6.001  13.463 -0.3330 -0.0199 -0.1768
 7143TIP3    H242845   4.693   6.046  13.607 -0.7797 -1.5497  0.3404
 7144TIP3   OH242846   0.118   3.226  12.220  0.1860 -0.2759  0.1390
 7144TIP3    H142847   0.138   3.235  12.313 -0.6719 -0.8541  0.3907
 7144TIP3    H242848   0.115   3.316  12.188  0.8547 -0.0861  0.5832
 7145TIP3   OH242849   2.718   5.455   6.228  0.0806 -0.4237 -0.3236
 7145TIP3    H142850   2.625   5.471   6.243  0.0765 -1.1579  0.4675
 7145TIP3    H242851   2.722   5.411   6.143 -0.5790 -2.9958  0.8858
 7146TIP3   OH242852   0.016   4.957   1.701 -0.8123  0.5795  0.2012
 7146TIP3    H142853   0.049   5.044   1.682  1.9209 -0.0743  1.5295
 7146TIP3    H242854   0.088   4.912   1.744 -2.7258 -1.7759  1.2125
 7147TIP3   OH242855   4.212   3.136  11.410 -0.2647  0.2028 -0.1988
 7147TIP3    H142856   4.290   3.140  11.355 -0.8874  1.2197 -1.0430
 7147TIP3    H242857   4.155   3.072  11.368 -0.8320  1.1367 -0.9048
 7148TIP3   OH242858   5.738   4.697   2.920 -0.3689  0.5671 -0.2312
 7148TIP3    H142859   5.812   4.728   2.868 -1.8616  3.6738 -0.7272
 7148TIP3    H242860   5.777   4.638   2.984  2.4588  1.6470 -0.8210
 7149TIP3   OH242861   4.590   2.055   1.116  0.1346 -0.0723  0.3996
 7149TIP3    H142862   4.526   1.987   1.139  0.6356 -0.6960 -0.0303
 7149TIP3    H242863   4.540   2.115   1.060  0.0165 -0.7746 -0.2730
 7150TIP3   OH242864   3.201   6.484   5.753  0.2711 -0.0473  0.5462
 7150TIP3    H142865   3.211   6.431   5.832 -2.3802  0.3087  1.2536
 7150TIP3    H242866   3.185   6.573   5.787  1.6451  0.6249 -0.5037
 7151TIP3   OH242867   5.427   0.930   0.631 -0.1591 -0.0051 -0.5304
 7151TIP3    H142868   5.382   1.004   0.590  0.2549  1.1216  0.9820
 7151TIP3    H242869   5.515   0.963   0.650 -0.2304 -0.5885  0.9276
 7152TIP3   OH242870   5.415   5.702   4.804  0.5926  0.0475 -0.0113
 7152TIP3    H142871   5.324   5.731   4.808 -0.1503 -1.9809 -0.9136
 7152TIP3    H242872   5.412   5.621   4.754  3.0763  0.5677 -1.1644
 7153TIP3   OH242873   2.802   1.787   0.904  0.3938 -0.3979 -0.4880
 7153TIP3    H142874   2.854   1.733   0.845  0.7209 -0.4429 -0.1581
 7153TIP3    H242875   2.757   1.849   0.846  1.5454  0.2706 -0.6928
 7154TIP3   OH242876   1.196   1.775  13.793 -0.1631 -1.1973 -0.1326
 7154TIP3    H142877   1.277   1.752  13.748 -0.1194 -0.2284 -0.5729
 7154TIP3    H242878   1.218   1.855  13.842 -1.0416 -0.4972 -0.8459
 7155TIP3   OH242879   1.049   3.414  11.510  0.3650  0.1910 -0.2444
 7155TIP3    H142880   0.978   3.454  11.561  0.4841 -0.0473  0.1127
 7155TIP3    H242881   1.032   3.441  11.420  0.1581  0.6269 -0.0769
 7156TIP3   OH242882   0.126   5.339  13.058  0.1240  0.2820  0.3759
 7156TIP3    H142883   0.117   5.251  13.093 -0.0635 -0.1612 -0.7568
 7156TIP3    H242884   0.050   5.386  13.091  1.3445  0.7032  2.8494
 7157TIP3   OH242885   3.458   0.007   0.416 -0.0924  0.2669 -0.1921
 7157TIP3    H142886   3.371   0.016   0.454 -0.1552 -0.7525 -0.0642
 7157TIP3    H242887   3.445   0.017   0.322 -0.1818  1.1683 -0.0902
 7158TIP3   OH242888   2.608   3.573   2.584  0.7172 -0.6563 -0.1009
 7158TIP3    H142889   2.693   3.594   2.545  0.0311  1.0647 -0.7717
 7158TIP3    H242890   2.545   3.582   2.511 -0.4919  1.8583  1.1092
 7159TIP3   OH242891   2.317   6.614  13.320  0.1287 -0.4331 -0.1229
 7159TIP3    H142892   2.370   6.648  13.248  1.1294 -1.9898 -0.1520
 7159TIP3    H242893   2.345   6.664  13.397  1.1065 -0.7166 -0.2853
 7160TIP3   OH242894   6.598   0.656   0.573  0.3131  0.7855 -0.1352
 7160TIP3    H142895   6.572   0.564   0.569  0.5489  0.7104  0.0058
 7160TIP3    H242896   6.638   0.665   0.660 -0.2185  1.1570  0.0715
 7161TIP3   OH242897   3.583   3.552  14.667 -0.0031  0.2814  0.4622
 7161TIP3    H142898   3.508   3.526  14.721  0.3337  1.3870  1.5121
 7161TIP3    H242899   3.648   3.483  14.681 -0.7183 -0.5632 -0.2688
 7162TIP3   OH242900   0.551   4.152  10.761 -1.0125  0.7331 -0.2808
 7162TIP3    H142901   0.457   4.162  10.774 -1.1293  0.3775 -0.8651
 7162TIP3    H242902   0.586   4.240  10.776 -1.3116  0.6595  0.9622
 7163TIP3   OH242903   0.307   1.744  16.701  0.5215  0.0732  0.0952
 7163TIP3    H142904   0.253   1.730  16.624 -1.9222  0.2207  1.6555
 7163TIP3    H242905   0.346   1.831  16.689 -0.4166  0.4060 -0.6445
 7164TIP3   OH242906   3.463   5.547  15.106 -0.1623 -0.3128  0.0286
 7164TIP3    H142907   3.477   5.454  15.090  1.3624 -0.1939  0.5609
 7164TIP3    H242908   3.368   5.555  15.116 -0.2838 -1.8692  0.3850
 7165TIP3   OH242909   1.998   4.885   4.433  0.3326  0.1866  0.9920
 7165TIP3    H142910   1.935   4.957   4.423 -0.7644 -0.8048  0.4886
 7165TIP3    H242911   1.948   4.816   4.477  1.0245 -0.6738  0.4680
 7166TIP3   OH242912   1.666   4.254   5.227 -0.2027 -0.2253  0.1459
 7166TIP3    H142913   1.627   4.301   5.300  1.2858 -0.0597  0.8789
 7166TIP3    H242914   1.668   4.163   5.255 -0.3893 -0.2867 -0.0400
 7167TIP3   OH242915   6.664   2.278  16.113 -0.5106 -0.0544 -0.2163
 7167TIP3    H142916   6.580   2.322  16.110 -0.4365  0.1815  0.8854
 7167TIP3    H242917   6.666   2.234  16.198  0.8335  0.6985  0.1844
 7168TIP3   OH242918   6.164   3.916   5.973 -0.0190  0.0380  0.2108
 7168TIP3    H142919   6.182   3.967   6.052  2.1210  2.5258 -1.6662
 7168TIP3    H242920   6.203   3.830   5.990  0.6327  0.6076  1.7584
 7169TIP3   OH242921   2.336   3.303  10.467  0.4261  0.5302  0.1080
 7169TIP3    H142922   2.264   3.279  10.525 -1.2101  2.1747 -1.1337
 7169TIP3    H242923   2.414   3.265  10.508 -0.7501  0.9526  2.9482
 7170TIP3   OH242924   5.718   2.800  11.353 -0.5572 -0.5714 -0.5796
 7170TIP3    H142925   5.811   2.783  11.366  0.1390  2.8226 -0.0429
 7170TIP3    H242926   5.713   2.843  11.268 -1.6567 -0.7324 -0.6149
 7171TIP3   OH242927   3.996   5.209   2.640  0.1971  0.1802 -0.1778
 7171TIP3    H142928   3.937   5.279   2.612  1.8708  1.4539 -0.6707
 7171TIP3    H242929   4.030   5.238   2.725  2.3336  0.9726 -1.2184
 7172TIP3   OH242930   1.099   1.164  15.110 -0.4477  0.1878 -0.4550
 7172TIP3    H142931   1.164   1.105  15.073  0.8667  1.1947  0.1662
 7172TIP3    H242932   1.015   1.123  15.090  0.4078 -1.8855 -0.0339
 7173TIP3   OH242933   3.080   3.790  15.490 -0.0209  0.5668 -0.3791
 7173TIP3    H142934   3.111   3.818  15.404 -0.5222  0.2414 -0.6644
 7173TIP3    H242935   3.109   3.860  15.549  1.2778  0.2657 -0.6300
 7174TIP3   OH242936   1.014   0.358   2.748  0.3002  0.5884 -0.1806
 7174TIP3    H142937   1.053   0.315   2.824  0.4340  1.3399  0.1907
 7174TIP3    H242938   0.920   0.344   2.757  0.2968  0.8784  0.2602
 7175TIP3   OH242939   1.828   1.705  11.594 -0.2557 -0.2586  0.1756
 7175TIP3    H142940   1.875   1.757  11.660  0.2562  0.1577 -0.5029
 7175TIP3    H242941   1.736   1.716  11.617 -0.3420  2.6622 -1.0934
 7176TIP3   OH242942   4.928   3.339   0.807  0.0463  0.6957  0.4130
 7176TIP3    H142943   4.951   3.261   0.756 -0.7344  0.4591  0.4139
 7176TIP3    H242944   4.877   3.393   0.747  0.2773  1.0505  0.5284
 7177TIP3   OH242945   5.784   2.972   0.166  0.6231  0.0126 -0.0396
 7177TIP3    H142946   5.717   2.941   0.228  1.0114 -1.4894 -0.3509
 7177TIP3    H242947   5.735   2.993   0.087  0.3450  0.3233  0.2073
 7178TIP3   OH242948   4.485   6.422  14.796 -0.0066 -0.2486  0.4216
 7178TIP3    H142949   4.414   6.364  14.771 -0.4539 -0.1607  1.4265
 7178TIP3    H242950   4.506   6.396  14.886  0.6790  0.2692  0.4195
 7179TIP3   OH242951   0.354   1.353   4.641  0.3023 -0.2223 -0.4183
 7179TIP3    H142952   0.402   1.377   4.720 -0.8452 -2.2406  0.9575
 7179TIP3    H242953   0.421   1.351   4.572  1.2673  1.8410  0.3788
 7180TIP3   OH242954   0.218   4.375  11.609 -0.5813  0.4365 -0.1036
 7180TIP3    H142955   0.282   4.385  11.538  0.9369  1.5266  1.3268
 7180TIP3    H242956   0.198   4.465  11.635  0.6230  0.0991  2.2570
 7181TIP3   OH242957   2.617   1.616   5.640 -0.1753 -0.9654  0.2096
 7181TIP3    H142958   2.545   1.674   5.616  0.5390  0.1427  0.6425
 7181TIP3    H242959   2.687   1.675   5.667  0.4324 -2.0522  1.1047
 7182TIP3   OH242960   5.633   0.687   0.339 -0.1893 -0.5407  0.0995
 7182TIP3    H142961   5.622   0.667   0.246  0.0876 -2.5999  0.4604
 7182TIP3    H242962   5.664   0.777   0.341  2.5350 -1.3036 -2.0214
 7183TIP3   OH242963   0.241   3.588  11.441  0.5193  0.0432 -0.1661
 7183TIP3    H142964   0.331   3.558  11.449  0.2441 -1.1982 -1.3621
 7183TIP3    H242965   0.212   3.556  11.356 -0.2986  2.4815 -0.8858
 7184TIP3   OH242966   4.846   1.536  10.786 -0.1687 -0.3475 -0.0767
 7184TIP3    H142967   4.894   1.471  10.734 -0.7586 -1.0828  0.2824
 7184TIP3    H242968   4.914   1.591  10.823  0.2765  0.3003 -1.7407
 7185TIP3   OH242969   0.781   1.696   0.647  0.3815 -0.4378 -0.5154
 7185TIP3    H142970   0.809   1.713   0.557 -0.0862  0.9174 -0.4292
 7185TIP3    H242971   0.690   1.728   0.650  1.2227  2.1110  1.0995
 7186TIP3   OH242972   3.466   0.452   4.197  0.3877  0.4358 -0.0968
 7186TIP3    H142973   3.545   0.494   4.232  0.3042  0.9208 -0.4704
 7186TIP3    H242974   3.495   0.363   4.174  0.5947  0.3137  0.6020
 7187TIP3   OH242975   3.574   1.988   4.312  0.0406  0.3340 -0.5078
 7187TIP3    H142976   3.637   1.937   4.362 -0.5180 -0.1523 -0.2910
 7187TIP3    H242977   3.531   1.924   4.255  1.6657  1.0724 -2.7243
 7188TIP3   OH242978   1.183   4.676  13.561 -0.3837 -0.1127 -0.1100
 7188TIP3    H142979   1.278   4.665  13.567 -0.4365 -0.1985  0.5674
 7188TIP3    H242980   1.155   4.699  13.649 -1.0513 -0.5314 -0.2049
 7189TIP3   OH242981   5.389   4.121   0.089 -0.3355 -0.4371 -0.5300
 7189TIP3    H142982   5.363   4.195   0.034  1.0776 -0.9493 -1.9849
 7189TIP3    H242983   5.459   4.156   0.144 -1.0434 -0.1888  0.2191
 7190TIP3   OH242984   3.838   2.744  14.527  0.2793 -0.2973  0.1380
 7190TIP3    H142985   3.829   2.829  14.484  2.6823  1.2209  2.2849
 7190TIP3    H242986   3.932   2.725  14.523 -0.0351 -2.2389  0.8509
 7191TIP3   OH242987   3.754   0.131   5.348  0.0163  0.2520 -0.1161
 7191TIP3    H142988   3.680   0.165   5.397 -0.9613 -2.4574  0.4588
 7191TIP3    H242989   3.740   0.162   5.258 -1.5420  0.1916  0.0839
 7192TIP3   OH242990   0.138   5.861  14.221  0.0258 -0.1369  0.7393
 7192TIP3    H142991   0.075   5.915  14.268 -1.0326 -0.7916  0.0997
 7192TIP3    H242992   0.101   5.773  14.223  1.0054 -0.5709  0.4920
 7193TIP3   OH242993   1.951   2.445   3.539 -0.2999 -0.3855 -0.7131
 7193TIP3    H142994   1.933   2.412   3.627  0.3291  0.5518 -0.2083
 7193TIP3    H242995   1.878   2.504   3.520 -0.6165 -0.8594 -0.9641
 7194TIP3   OH242996   6.490   1.177   3.424 -0.8589  0.0247  0.0273
 7194TIP3    H142997   6.547   1.195   3.499 -0.4651  1.7831 -0.6397
 7194TIP3    H242998   6.549   1.177   3.349 -1.6939  2.0890 -0.7033
 7195TIP3   OH242999   3.047   3.656  11.838  0.2076 -0.0092 -0.1082
 7195TIP3    H143000   3.115   3.596  11.869  1.2233  0.8337 -0.6349
 7195TIP3    H243001   3.046   3.727  11.901  0.8809  0.7184 -0.8907
 7196TIP3   OH243002   1.512   6.451   0.205  0.0518  0.0853 -0.3719
 7196TIP3    H143003   1.426   6.415   0.184  0.1914 -1.4699  1.5126
 7196TIP3    H243004   1.560   6.448   0.122 -1.5611  0.7198 -1.3962
 7197TIP3   OH243005   2.663   4.713  17.109 -0.3444 -0.1695 -0.1043
 7197TIP3    H143006   2.682   4.768  17.033 -0.7454 -0.3397 -0.3287
 7197TIP3    H243007   2.734   4.733  17.171  0.0756 -0.1539 -0.5823
 7198TIP3   OH243008   3.506   5.253  15.124  0.0215 -0.0519  0.2387
 7198TIP3    H143009   3.536   5.192  15.192 -0.2655 -0.3829  0.0722
 7198TIP3    H243010   3.524   5.208  15.042  0.5134  0.4191  0.0895
 7199TIP3   OH243011   3.485   4.005   5.074  0.2647 -0.7824 -0.2500
 7199TIP3    H143012   3.420   3.954   5.025  0.1886  0.7276 -1.8098
 7199TIP3    H243013   3.508   3.949   5.148 -2.0308 -1.8097 -0.2245
 7200TIP3   OH243014   3.660   3.097   2.488  0.0446  0.6418  0.2796
 7200TIP3    H143015   3.741   3.091   2.437 -0.0983 -0.6641  0.1753
 7200TIP3    H243016   3.680   3.053   2.570 -0.5762  0.2653  0.2343
 7201TIP3   OH243017   2.158   4.444   4.920  0.7285 -0.5075  0.4046
 7201TIP3    H143018   2.071   4.475   4.894  0.2446 -1.1441  1.2427
 7201TIP3    H243019   2.193   4.513   4.976 -0.0350 -1.0867  1.6381
 7202TIP3   OH243020   5.244   3.878   4.917  0.0605 -0.3785  0.5289
 7202TIP3    H143021   5.170   3.895   4.974  0.8437  2.1010  0.8937
 7202TIP3    H243022   5.291   3.806   4.959 -1.4008 -1.1115  0.9611
 7203TIP3   OH243023   3.652   2.042   6.162  0.2569  0.1897 -0.3846
 7203TIP3    H143024   3.658   2.070   6.071  0.8748  1.5090  0.0443
 7203TIP3    H243025   3.740   2.056   6.198 -0.3145  0.9792  0.7673
 7204TIP3   OH243026   2.436   2.581  13.041 -0.1475  0.3169 -0.7159
 7204TIP3    H143027   2.343   2.589  13.019  0.0427 -0.4893 -1.9115
 7204TIP3    H243028   2.453   2.487  13.035  1.0416  0.5798 -1.8178
 7205TIP3   OH243029   0.201   4.411   3.270  0.0623 -0.0036 -0.6366
 7205TIP3    H143030   0.111   4.390   3.293  0.2878  0.5893  0.8867
 7205TIP3    H243031   0.240   4.327   3.246 -0.5343 -0.4834  0.0274
 7206TIP3   OH243032   2.267   0.105   2.895 -0.1941  0.2283 -0.4804
 7206TIP3    H143033   2.220   0.188   2.881  0.5555  0.8002  0.2505
 7206TIP3    H243034   2.317   0.120   2.975 -0.1813 -1.0119 -0.2376
 7207TIP3   OH243035   4.685   0.351  15.091 -0.0195  0.4129  0.2569
 7207TIP3    H143036   4.741   0.313  15.159 -1.4525  1.4473  2.1297
 7207TIP3    H243037   4.622   0.404  15.140 -1.5185  0.7027 -1.8778
 7208TIP3   OH243038   5.068   1.783  12.584 -0.1410  0.6231 -0.8970
 7208TIP3    H143039   4.978   1.783  12.615 -0.3754 -1.3963 -1.4599
 7208TIP3    H243040   5.075   1.706  12.528  1.7406  1.1451 -1.4744
 7209TIP3   OH243041   6.075   5.181  15.325  0.0003  0.4603 -0.4283
 7209TIP3    H143042   6.130   5.214  15.254  1.1245  0.2665  0.3211
 7209TIP3    H243043   6.077   5.250  15.391  0.7925 -0.2735  0.3399
 7210TIP3   OH243044   4.240   3.704   0.406 -0.2385  0.0489 -0.3206
 7210TIP3    H143045   4.197   3.679   0.324  0.6101  2.8575 -1.7442
 7210TIP3    H243046   4.312   3.641   0.414 -0.8162 -0.7809 -1.2775
 7211TIP3   OH243047   1.407   5.354   3.453 -0.4910 -0.0326  0.1619
 7211TIP3    H143048   1.468   5.403   3.398 -1.5691  0.0472 -0.9996
 7211TIP3    H243049   1.459   5.331   3.531  0.5140  1.5108  0.0046
 7212TIP3   OH243050   6.486   4.099  13.896  0.3244 -0.3697  0.0040
 7212TIP3    H143051   6.453   4.010  13.899  1.3832 -0.7622  0.7822
 7212TIP3    H243052   6.489   4.121  13.803 -1.9395 -0.3437 -0.1043
 7213TIP3   OH243053   1.443   1.594  11.435 -0.6976 -0.2910  0.0726
 7213TIP3    H143054   1.370   1.578  11.494  0.2865  0.1745  1.4609
 7213TIP3    H243055   1.496   1.660  11.479  0.6558 -0.7377 -0.8148
 7214TIP3   OH243056   6.103   5.166   3.587 -0.4705  0.0643 -0.6647
 7214TIP3    H143057   6.023   5.149   3.537  0.2844 -0.6333 -1.6855
 7214TIP3    H243058   6.147   5.082   3.590 -0.4396  0.1087  1.1540
 7215TIP3   OH243059   1.625   6.594  12.612 -0.2170  0.6250 -0.4315
 7215TIP3    H143060   1.626   6.499  12.598 -0.2726  0.3689  1.1577
 7215TIP3    H243061   1.554   6.625  12.556  0.8266 -0.0362 -2.2108
 7216TIP3   OH243062   3.040   0.672   3.856 -0.4357  0.5497 -0.2935
 7216TIP3    H143063   3.131   0.665   3.884  0.5230  2.1845 -2.7096
 7216TIP3    H243064   3.022   0.588   3.813 -0.2802  0.0362  0.6012
 7217TIP3   OH243065   2.357   0.358  16.392 -0.0272  0.5705 -0.4175
 7217TIP3    H143066   2.439   0.361  16.342  0.7962  0.4388  0.8877
 7217TIP3    H243067   2.369   0.421  16.462 -0.3772 -0.6499  0.7751
 7218TIP3   OH243068   0.482   3.887   3.569  0.1835 -0.3277 -0.1032
 7218TIP3    H143069   0.494   3.842   3.485 -0.2694  0.0774 -0.3927
 7218TIP3    H243070   0.426   3.828   3.619 -1.2412  0.3309 -0.8542
 7219TIP3   OH243071   4.059   1.592   4.498 -0.1940  0.4120  0.4357
 7219TIP3    H143072   4.116   1.522   4.467  0.2595  0.4205  1.2336
 7219TIP3    H243073   4.118   1.654   4.542 -0.4478  1.7710 -1.0422
 7220TIP3   OH243074   0.317   1.806   2.554  0.5204 -0.1251  0.1361
 7220TIP3    H143075   0.340   1.734   2.613 -2.7107 -0.3319  1.3528
 7220TIP3    H243076   0.349   1.778   2.468  1.2447 -1.9859  0.9606
 7221TIP3   OH243077   3.002   4.227   0.667  0.1136 -0.0253  0.2091
 7221TIP3    H143078   2.938   4.211   0.598  0.6891 -0.8953 -0.1411
 7221TIP3    H243079   2.986   4.158   0.731 -0.6892  1.0254  1.1575
 7222TIP3   OH243080   4.257   5.223   3.399 -0.6101  0.1797 -0.5079
 7222TIP3    H143081   4.307   5.142   3.389 -0.1612  0.3509  0.3080
 7222TIP3    H243082   4.200   5.225   3.322  0.3864 -0.1867 -1.2722
 7223TIP3   OH243083   0.912   6.022  15.221 -0.0165  0.6244  0.3739
 7223TIP3    H143084   1.007   6.029  15.216  0.3071 -1.9575  1.4212
 7223TIP3    H243085   0.896   5.972  15.301 -2.2269  0.4735 -0.1084
 7224TIP3   OH243086   4.833   4.374   4.524 -0.1755  0.3469  0.1336
 7224TIP3    H143087   4.757   4.401   4.473 -1.6585 -3.4651 -0.0112
 7224TIP3    H243088   4.886   4.323   4.463 -0.2696 -1.4754  1.4979
 7225TIP3   OH243089   5.621   0.821  11.995 -0.6856  0.5394 -0.1443
 7225TIP3    H143090   5.589   0.759  11.929  0.2130  0.1620 -0.2364
 7225TIP3    H243091   5.544   0.872  12.019 -0.8588  1.3543 -2.1958
 7226TIP3   OH243092   5.042   1.107   3.101 -0.0797 -0.1808 -0.1670
 7226TIP3    H143093   5.086   1.025   3.076  1.6406  0.9015 -0.8677
 7226TIP3    H243094   5.099   1.176   3.068 -1.0532  1.3350  1.1647
 7227TIP3   OH243095   4.906   0.706   1.215  0.5349 -0.2954 -0.5970
 7227TIP3    H143096   4.981   0.698   1.274 -1.3716  0.8358  2.2351
 7227TIP3    H243097   4.863   0.620   1.220  1.5965 -0.9556 -2.2476
 7228TIP3   OH243098   5.473   2.619   5.845  0.4474 -0.6326 -0.2254
 7228TIP3    H143099   5.563   2.588   5.850  1.0014  1.0065  0.9060
 7228TIP3    H243100   5.440   2.613   5.934 -0.8129 -1.8056 -0.7340
 7229TIP3   OH243101   4.254   6.403  16.383  0.4689  0.2408  0.5458
 7229TIP3    H143102   4.242   6.385  16.290 -0.3564  1.7317  0.3265
 7229TIP3    H243103   4.330   6.462  16.386 -0.0663  0.9458  0.6958
 7230TIP3   OH243104   3.373   0.006   3.695  0.1940 -0.2591 -0.1390
 7230TIP3    H143105   3.382   0.072   3.763  2.2065 -0.7847  0.1592
 7230TIP3    H243106   3.463  -0.012   3.666 -0.4495 -1.5248 -1.5064
 7231TIP3   OH243107   2.867   2.687   4.844  0.6533 -0.2323 -0.3493
 7231TIP3    H143108   2.925   2.727   4.909  1.5188 -2.4659  0.3776
 7231TIP3    H243109   2.826   2.614   4.891 -0.4779 -0.5069 -1.7006
 7232TIP3   OH243110   4.185   4.126  17.274  0.5290 -0.4437 -0.2087
 7232TIP3    H143111   4.112   4.138  17.334  0.0280  1.1367 -1.0519
 7232TIP3    H243112   4.235   4.053  17.310 -0.2813 -0.1791  1.5713
 7233TIP3   OH243113   3.617   3.884   1.891 -0.1732  0.6106  0.4068
 7233TIP3    H143114   3.668   3.963   1.905 -1.1796  1.1474  1.1256
 7233TIP3    H243115   3.565   3.902   1.813  1.6797 -0.4547 -1.1609
 7234TIP3   OH243116   5.418   4.636  11.297 -0.2605  0.1781  0.2190
 7234TIP3    H143117   5.412   4.564  11.234 -4.3703  0.6458 -0.2463
 7234TIP3    H243118   5.417   4.593  11.383 -1.5309 -0.4081 -0.0594
 7235TIP3   OH243119   2.083   5.324  12.150  0.4087  0.7906 -0.2811
 7235TIP3    H143120   2.008   5.379  12.127  2.1180  2.4951 -2.2885
 7235TIP3    H243121   2.066   5.241  12.105 -0.6041  0.8925 -0.1078
 7236TIP3   OH243122   0.594   4.278  14.849 -0.6335  0.0677 -0.2874
 7236TIP3    H143123   0.607   4.190  14.815 -0.4363  0.4449 -1.2254
 7236TIP3    H243124   0.510   4.306  14.811  0.0736  0.8679 -1.3357
 7237TIP3   OH243125   4.410   4.664   0.961 -0.5594  0.0528 -0.1222
 7237TIP3    H143126   4.413   4.602   1.034  1.6009  0.3599  0.1206
 7237TIP3    H243127   4.483   4.638   0.904  0.9855  2.7612  0.4151
 7238TIP3   OH243128   4.027   6.707  13.349  0.7857  0.1897  0.4787
 7238TIP3    H143129   4.085   6.744  13.283 -1.5030  0.4833 -1.4853
 7238TIP3    H243130   4.029   6.612  13.334  1.0179  0.1632  0.6650
 7239TIP3   OH243131   2.882   3.680   1.457 -0.2283 -0.6881 -0.4958
 7239TIP3    H143132   2.925   3.676   1.542 -0.4144  1.5573 -0.2449
 7239TIP3    H243133   2.792   3.705   1.477  0.2040  1.8585 -1.3974
 7240TIP3   OH243134   6.717   0.164  12.073  0.0935  0.4982  0.2429
 7240TIP3    H143135   6.723   0.113  11.992 -2.5069  0.8638 -0.2961
 7240TIP3    H243136   6.807   0.186  12.095  1.1564 -2.3338 -0.7639
 7241TIP3   OH243137   2.304   3.482  12.589 -0.5247  0.0205  0.3588
 7241TIP3    H143138   2.218   3.507  12.555  0.2129  0.9141 -0.9181
 7241TIP3    H243139   2.299   3.504  12.682 -1.6533  0.1058  0.2987
 7242TIP3   OH243140   6.073   5.381  13.814 -0.9973 -0.3840  0.4150
 7242TIP3    H143141   6.051   5.288  13.814 -1.8764 -0.2048 -1.1139
 7242TIP3    H243142   6.151   5.387  13.759 -1.4030 -0.1332 -0.1431
 7243TIP3   OH243143   2.292   5.830   0.404  0.4117  0.2356  0.2934
 7243TIP3    H143144   2.244   5.750   0.425 -0.9155  0.7263 -0.7308
 7243TIP3    H243145   2.226   5.899   0.404  1.6205  1.4729  1.7344
 7244TIP3   OH243146   2.678   4.782  15.724 -0.5855 -0.5524 -0.6969
 7244TIP3    H143147   2.698   4.876  15.723 -0.8019 -0.3445  2.5415
 7244TIP3    H243148   2.764   4.740  15.732 -0.6209 -0.4038  0.7454
 7245TIP3   OH243149   5.301   6.662  16.983  0.1902 -0.4269 -0.4726
 7245TIP3    H143150   5.309   6.568  16.974 -0.2020 -0.5011 -0.1057
 7245TIP3    H243151   5.206   6.678  16.989  0.2953 -0.2400  1.6365
 7246TIP3   OH243152   2.969   5.314   0.368  0.1922 -0.1718 -0.0344
 7246TIP3    H143153   3.034   5.269   0.313  0.4912 -0.1855  0.3249
 7246TIP3    H243154   3.017   5.385   0.409 -0.6423  1.5244 -1.8355
 7247TIP3   OH243155   3.549   0.851  15.885  0.2112  0.3920  0.3250
 7247TIP3    H143156   3.599   0.870  15.805  1.2256  2.4731  1.3904
 7247TIP3    H243157   3.458   0.850  15.856  0.6635 -0.8013 -1.1784
 7248TIP3   OH243158   5.037   6.145  16.201 -0.1627  0.2660  0.3649
 7248TIP3    H143159   4.994   6.070  16.243  1.2373 -2.3071 -2.4437
 7248TIP3    H243160   4.967   6.210  16.192 -1.9786 -1.4670  1.0829
 7249TIP3   OH243161   1.954   2.272  15.522 -0.5925  0.0405 -0.7003
 7249TIP3    H143162   2.008   2.319  15.458 -0.6880  1.5795  0.2849
 7249TIP3    H243163   2.013   2.207  15.559 -0.0362  0.2676 -1.1587
 7250TIP3   OH243164   5.863   0.792   0.906  0.1943 -0.3155 -0.1125
 7250TIP3    H143165   5.943   0.767   0.859 -0.6752 -1.4060 -1.0621
 7250TIP3    H243166   5.815   0.710   0.917 -1.0499  0.3997 -0.0505
 7251TIP3   OH243167   6.515   0.708  15.818 -0.4583 -0.4301 -0.2443
 7251TIP3    H143168   6.468   0.767  15.759 -1.5277  0.5959  1.5361
 7251TIP3    H243169   6.601   0.748  15.829 -0.3992 -0.4064 -0.7553
 7252TIP3   OH243170   0.445   5.664   5.504 -0.0600  0.3908  0.1596
 7252TIP3    H143171   0.540   5.673   5.496 -0.0361  2.4347  2.0911
 7252TIP3    H243172   0.410   5.738   5.455 -0.5555  0.9457  1.3232
 7253TIP3   OH243173   3.529   4.524  13.954 -0.5713  0.0080  0.0692
 7253TIP3    H143174   3.535   4.433  13.928 -0.8724 -0.3806  1.2889
 7253TIP3    H243175   3.615   4.561  13.934  0.0213 -0.9078  0.8854
 7254TIP3   OH243176   2.923   4.477   5.841 -0.0004 -0.4630 -0.0725
 7254TIP3    H143177   2.975   4.449   5.765 -1.5265 -0.5915 -1.1048
 7254TIP3    H243178   2.912   4.571   5.830  0.0102 -0.4368  0.1389
 7255TIP3   OH243179   3.524   3.745   2.405  0.0840 -0.5258 -0.0736
 7255TIP3    H143180   3.617   3.757   2.426 -0.5268  1.3079  2.0178
 7255TIP3    H243181   3.521   3.740   2.310  2.1040  2.3452 -0.3983
 7256TIP3   OH243182   5.576   0.623  11.348 -0.2211  0.0862  0.1755
 7256TIP3    H143183   5.545   0.630  11.258 -0.0289  0.7841  0.1577
 7256TIP3    H243184   5.517   0.679  11.398  1.7689  2.5759 -0.0593
 7257TIP3   OH243185   6.305   6.448  14.287  0.5967  0.0172 -0.1823
 7257TIP3    H143186   6.252   6.373  14.314  0.1429 -0.5325 -2.4474
 7257TIP3    H243187   6.242   6.513  14.259  1.0030  1.1932  1.4891
 7258TIP3   OH243188   3.895   1.693   2.603 -0.2967  0.2020  0.6275
 7258TIP3    H143189   3.872   1.683   2.511 -1.2365 -0.3367  0.9073
 7258TIP3    H243190   3.812   1.714   2.646  0.3658  1.9669  1.1441
 7259TIP3   OH243191   0.370   0.929   0.928  0.3754  0.6142  0.1820
 7259TIP3    H143192   0.451   0.980   0.932  0.9563 -0.3000  0.0917
 7259TIP3    H243193   0.361   0.892   1.016 -0.1149  0.9726  0.2844
 7260TIP3   OH243194   0.175   5.358   5.170  0.3837  0.4351 -0.2999
 7260TIP3    H143195   0.084   5.354   5.142  0.1031  0.0324  0.6347
 7260TIP3    H243196   0.225   5.371   5.089 -0.2186 -2.6499 -1.2938
 7261TIP3   OH243197   5.053   3.046   2.373 -0.2504 -0.4180 -0.0574
 7261TIP3    H143198   4.977   3.073   2.424  0.1018  1.8427 -0.6328
 7261TIP3    H243199   5.028   3.063   2.282  1.3022  1.4423 -0.1802
 7262TIP3   OH243200   1.431   4.284  14.110  0.2282  0.2776  0.6727
 7262TIP3    H143201   1.375   4.266  14.034 -1.2896 -0.6664  1.9577
 7262TIP3    H243202   1.519   4.288  14.074 -0.4339 -0.2614 -1.1295
 7263TIP3   OH243203   6.237   6.086  12.661 -0.4138  0.2910 -0.2028
 7263TIP3    H143204   6.301   6.107  12.728 -1.0991 -1.7955  1.2165
 7263TIP3    H243205   6.288   6.076  12.581  0.7669  0.5402  0.4955
 7264TIP3   OH243206   3.144   3.390  12.404 -0.0704 -0.4145  0.2715
 7264TIP3    H143207   3.127   3.326  12.473  2.0569 -0.0393  1.2055
 7264TIP3    H243208   3.062   3.438  12.395 -0.7916 -1.3404  1.6196
 7265TIP3   OH243209   1.436   5.834   2.161 -0.2665 -0.4328  0.0819
 7265TIP3    H143210   1.515   5.887   2.160 -1.2253  1.0790  0.6130
 7265TIP3    H243211   1.466   5.747   2.187  1.1487  0.2457  0.8679
 7266TIP3   OH243212   1.128   4.868  14.152  0.0886  0.1114  0.0803
 7266TIP3    H143213   1.073   4.887  14.076 -0.1122 -1.4450 -0.1955
 7266TIP3    H243214   1.065   4.848  14.222  0.2787  0.9756  0.4996
 7267TIP3   OH243215   2.138   1.025   2.377 -0.1257 -0.5279  0.2118
 7267TIP3    H143216   2.087   0.970   2.318  0.3558 -1.0240  0.2500
 7267TIP3    H243217   2.074   1.087   2.413 -0.6326 -0.9247  0.0054
 7268TIP3   OH243218   0.186   6.370  13.800 -0.3861 -0.0612  0.4845
 7268TIP3    H143219   0.159   6.447  13.750 -1.3283 -1.3941 -1.2147
 7268TIP3    H243220   0.115   6.356  13.863 -2.3479 -1.7318 -1.8731
 7269TIP3   OH243221   1.266   2.668  16.268 -0.0974 -0.1673  0.9537
 7269TIP3    H143222   1.204   2.732  16.233  0.2993  0.3484  1.1929
 7269TIP3    H243223   1.227   2.583  16.246  0.3689  0.1122 -1.2388
 7270TIP3   OH243224   1.905   5.686  13.363 -0.2471 -0.0308  0.1995
 7270TIP3    H143225   1.910   5.698  13.268 -0.0013 -0.0013  0.2129
 7270TIP3    H243226   1.821   5.723  13.388 -1.3349 -2.0449 -0.2928
 7271TIP3   OH243227   6.221   4.130  11.772  0.0863 -0.3629  0.4733
 7271TIP3    H143228   6.189   4.041  11.783  1.5233 -0.6497  3.1950
 7271TIP3    H243229   6.316   4.120  11.758 -0.0328  0.6974 -1.5098
 7272TIP3   OH243230   3.314   1.370  16.943 -0.0131  0.0462 -0.4503
 7272TIP3    H143231   3.378   1.323  16.996  0.0573  0.5672 -0.0647
 7272TIP3    H243232   3.229   1.336  16.971 -0.0614  1.2496  0.9542
 7273TIP3   OH243233   5.473   6.537   0.872 -0.0119 -0.5745  0.1976
 7273TIP3    H143234   5.495   6.495   0.955  0.5280  1.8483  1.3812
 7273TIP3    H243235   5.532   6.498   0.808 -1.0045 -3.0824  0.7115
 7274TIP3   OH243236   3.545   2.519  13.078  0.7767 -0.2824 -0.3661
 7274TIP3    H143237   3.468   2.521  13.021  0.9651 -0.6996 -0.6414
 7274TIP3    H243238   3.510   2.506  13.166  0.4408  0.9795 -0.3004
 7275TIP3   OH243239   3.825   4.919   3.385  0.2536  0.7574 -0.3749
 7275TIP3    H143240   3.805   4.921   3.479  0.8197 -2.7412 -0.0344
 7275TIP3    H243241   3.740   4.928   3.342 -0.4977 -0.8113  0.6620
 7276TIP3   OH243242   1.115   1.658   3.574 -0.2009 -0.2630  0.3637
 7276TIP3    H143243   1.134   1.643   3.481  0.3189 -1.2280  0.6129
 7276TIP3    H243244   1.027   1.695   3.574 -0.9394 -1.8701 -0.4350
 7277TIP3   OH243245   3.454   4.560   4.515  0.0590 -0.8975 -0.1459
 7277TIP3    H143246   3.511   4.527   4.584  1.8883  2.7533  0.3114
 7277TIP3    H243247   3.483   4.514   4.436  1.8428 -1.0713  0.5651
 7278TIP3   OH243248   3.041   1.128  12.622 -0.0433  0.4758  0.5651
 7278TIP3    H143249   2.986   1.121  12.544 -1.6892  1.2964  1.5845
 7278TIP3    H243250   3.049   1.222  12.638 -1.3218  0.3260  2.3913
 7279TIP3   OH243251   3.275   4.335   3.101 -0.1842  0.2664 -0.3680
 7279TIP3    H143252   3.346   4.378   3.149  2.8659 -1.7609 -2.6773
 7279TIP3    H243253   3.263   4.388   3.022  2.2259 -1.7662 -2.2648
 7280TIP3   OH243254   1.632   0.880   2.413  0.0385 -0.6169  0.7271
 7280TIP3    H143255   1.582   0.798   2.409 -1.4174  0.1468  2.1434
 7280TIP3    H243256   1.709   0.860   2.465  0.4152 -1.4215 -0.1208
 7281TIP3   OH243257   0.492   3.157   3.145  0.0792 -0.0815 -0.2681
 7281TIP3    H143258   0.446   3.196   3.071 -0.3215  2.6540  1.2829
 7281TIP3    H243259   0.569   3.114   3.106 -0.8488  0.0209 -2.3491
 7282TIP3   OH243260   6.352   6.430   5.724 -0.1233 -0.0210 -0.6102
 7282TIP3    H143261   6.430   6.415   5.778 -0.0335 -1.2288 -1.0460
 7282TIP3    H243262   6.280   6.393   5.776 -0.7602  2.5881  0.5905
 7283TIP3   OH243263   0.066   4.764   2.482  0.2548  0.1855  0.6300
 7283TIP3    H143264  -0.025   4.764   2.510  0.7524 -3.0967  2.7595
 7283TIP3    H243265   0.069   4.705   2.407  0.5479  0.8001  0.1504
 7284TIP3   OH243266   6.250   1.887   5.496  0.0778  0.0294 -0.3339
 7284TIP3    H143267   6.216   1.808   5.538 -2.6181  1.8692  1.2792
 7284TIP3    H243268   6.281   1.857   5.410 -1.1989 -2.6865  0.0450
 7285TIP3   OH243269   1.901   0.182   0.573  0.3595 -0.2509 -0.3760
 7285TIP3    H143270   1.991   0.214   0.565  0.5180 -0.5818  0.0572
 7285TIP3    H243271   1.893   0.117   0.504  0.2009  0.3378 -0.9220
 7286TIP3   OH243272   4.712   5.616  11.874  0.6798  0.2677 -0.5405
 7286TIP3    H143273   4.624   5.580  11.886  1.5162 -1.0189  2.6112
 7286TIP3    H243274   4.699   5.711  11.877 -0.5567  0.0949  0.4381
 7287TIP3   OH243275   3.943   5.204   5.389 -0.6513 -0.7684 -0.2268
 7287TIP3    H143276   3.966   5.132   5.330  1.5779 -1.3364  1.1986
 7287TIP3    H243277   3.925   5.161   5.473  0.5744  0.2669  0.6084
 7288TIP3   OH243278   6.077   4.587   4.362 -0.4225 -0.7643  0.0748
 7288TIP3    H143279   6.137   4.645   4.409 -0.5151 -0.6423  0.0411
 7288TIP3    H243280   6.100   4.598   4.270 -2.4750  1.5912 -0.2749
 7289TIP3   OH243281   1.382   3.165  14.125  0.5248 -0.3542 -0.4701
 7289TIP3    H143282   1.324   3.223  14.174  1.1532 -0.4135  0.3675
 7289TIP3    H243283   1.329   3.134  14.051  0.4147  1.9183 -1.4254
 7290TIP3   OH243284   3.979   6.690  11.926 -0.8740  0.2469  0.1514
 7290TIP3    H143285   4.040   6.716  11.996  1.8942 -1.9252 -1.2526
 7290TIP3    H243286   4.003   6.745  11.852 -0.3765 -0.8199 -0.5007
 7291TIP3   OH243287   4.726   2.468   2.411  0.4077 -0.5737 -0.1587
 7291TIP3    H143288   4.782   2.401   2.372 -1.3202 -1.7152 -0.8271
 7291TIP3    H243289   4.720   2.536   2.344  0.3853 -0.8093 -0.3993
 7292TIP3   OH243290   4.744   5.035  15.262 -0.2320  0.0015 -0.0131
 7292TIP3    H143291   4.737   4.940  15.256 -1.1079  0.0643 -0.1108
 7292TIP3    H243292   4.684   5.060  15.331 -1.1592  0.6063 -1.0013
 7293TIP3   OH243293   0.327   0.535  11.734  0.0833 -0.0826  0.0054
 7293TIP3    H143294   0.381   0.461  11.704 -2.3267 -1.5784 -0.9010
 7293TIP3    H243295   0.269   0.555  11.661 -0.4739  1.6163  0.8487
 7294TIP3   OH243296   5.345   1.870  13.518 -0.0651 -0.3173  0.0892
 7294TIP3    H143297   5.333   1.943  13.458  2.0179  0.7160  0.8255
 7294TIP3    H243298   5.405   1.811  13.473 -1.6919 -1.6009 -0.4791
 7295TIP3   OH243299   5.283   6.265  16.100  0.0098 -0.0215 -0.0756
 7295TIP3    H143300   5.306   6.190  16.044  0.7048 -0.0326  0.2161
 7295TIP3    H243301   5.230   6.227  16.170 -0.1266 -0.1471 -0.2451
 7296TIP3   OH243302   5.433   6.394   0.135  0.1628 -0.1150  0.0887
 7296TIP3    H143303   5.357   6.452   0.124 -0.9326 -1.3628  0.7812
 7296TIP3    H243304   5.497   6.447   0.181 -1.6685 -0.0763  2.7996
 7297TIP3   OH243305   2.535   6.311   1.406  0.3879 -0.2281 -0.1014
 7297TIP3    H143306   2.484   6.384   1.442  0.7733  0.8605 -1.6542
 7297TIP3    H243307   2.474   6.265   1.349  1.3568  2.0557 -3.3030
 7298TIP3   OH243308   2.164   5.078  16.915 -0.4622 -0.6040  0.3126
 7298TIP3    H143309   2.099   5.008  16.925 -1.2540  0.0322 -0.2737
 7298TIP3    H243310   2.239   5.035  16.874 -1.8003 -0.6823 -2.2369
 7299TIP3   OH243311   2.039   1.735  16.722 -0.2040  0.3387  0.0402
 7299TIP3    H143312   2.023   1.641  16.733  0.5065  0.3879  2.0380
 7299TIP3    H243313   2.134   1.741  16.711  0.1637  0.9443  2.8035
 7300TIP3   OH243314   1.305   3.291   2.786  0.1061 -0.5516 -0.0664
 7300TIP3    H143315   1.248   3.235   2.733  0.9375 -0.2726 -1.3245
 7300TIP3    H243316   1.293   3.378   2.749 -0.5551 -0.0363  1.3362
 7301TIP3   OH243317   5.515   4.801   5.119 -0.2753 -0.1012  0.8908
 7301TIP3    H143318   5.597   4.772   5.078 -0.7186 -0.7000  0.4245
 7301TIP3    H243319   5.453   4.731   5.102 -0.7268  0.0733  1.7859
 7302TIP3   OH243320   4.514   0.008   1.711  0.0745  0.3387 -0.5291
 7302TIP3    H143321   4.555  -0.027   1.790  1.1393  1.0301 -0.7528
 7302TIP3    H243322   4.588   0.029   1.653 -0.5905  1.6077 -0.9580
 7303TIP3   OH243323   6.246   4.552  12.719 -0.0883  0.3831  0.0912
 7303TIP3    H143324   6.154   4.536  12.698 -0.2002 -1.2597  1.5716
 7303TIP3    H243325   6.278   4.469  12.754  0.9910  1.8288  2.9110
 7304TIP3   OH243326   2.366   0.064   4.502  0.7146  0.4304  0.5104
 7304TIP3    H143327   2.395   0.136   4.446  0.0523 -0.0032 -0.4367
 7304TIP3    H243328   2.433  -0.003   4.491  0.4043  0.2085 -0.0607
 7305TIP3   OH243329   4.923   0.587  15.611 -0.2524 -0.0195 -0.0107
 7305TIP3    H143330   4.910   0.584  15.706  2.2669  0.4112  0.4086
 7305TIP3    H243331   4.944   0.678  15.592 -0.0449 -0.2396 -0.8814
 7306TIP3   OH243332   5.751   6.269   6.055  0.3847 -0.2926 -0.5313
 7306TIP3    H143333   5.707   6.264   6.141 -1.1701 -0.3402 -1.2962
 7306TIP3    H243334   5.798   6.352   6.057 -0.6747  0.3263 -0.0801
 7307TIP3   OH243335   0.550   5.935   0.312 -0.0169 -0.0274  0.6278
 7307TIP3    H143336   0.575   5.973   0.228 -1.4099 -0.7816 -0.1548
 7307TIP3    H243337   0.460   5.965   0.327 -0.2317 -0.9343  1.2296
 7308TIP3   OH243338   1.779   6.583   2.985 -0.0915 -0.1004  0.3952
 7308TIP3    H143339   1.692   6.543   2.985 -0.1356 -0.0054  0.0917
 7308TIP3    H243340   1.783   6.633   2.903  0.1097  0.1984  0.5844
 7309TIP3   OH243341   4.295   0.116  14.807 -0.2668 -0.0102  0.4324
 7309TIP3    H143342   4.375   0.070  14.830  0.0272  1.3334  2.3885
 7309TIP3    H243343   4.226   0.050  14.814  0.5133 -0.8674  0.0634
 7310TIP3   OH243344   3.615   5.524  10.978 -0.3827  0.4476 -0.1408
 7310TIP3    H143345   3.607   5.429  10.967  2.2667 -0.0171  0.9959
 7310TIP3    H243346   3.556   5.562  10.913 -1.6574 -1.9719 -0.4845
 7311TIP3   OH243347   4.420   6.528   4.614 -0.1057 -0.2725  0.1809
 7311TIP3    H143348   4.463   6.613   4.621 -0.5488 -0.1589  2.2116
 7311TIP3    H243349   4.491   6.467   4.593  0.7766  0.1780  1.6633
 7312TIP3   OH243350   3.294   6.514   4.360 -0.1445 -0.1305  0.5303
 7312TIP3    H143351   3.286   6.435   4.306  1.1115 -2.2803  3.2236
 7312TIP3    H243352   3.267   6.585   4.303 -3.0534 -2.6546 -1.5779
 7313TIP3   OH243353   5.724   1.351  14.735  0.0982  0.1235  0.3825
 7313TIP3    H143354   5.629   1.337  14.730 -0.2166  1.8643  0.9031
 7313TIP3    H243355   5.758   1.311  14.655 -1.1027 -0.3159  0.0714
 7314TIP3   OH243356   0.606   4.637   5.245 -0.1745 -0.4565 -0.4818
 7314TIP3    H143357   0.554   4.700   5.195 -0.9718 -0.1995  0.6412
 7314TIP3    H243358   0.692   4.677   5.252 -0.5070  0.2421 -0.2847
 7315TIP3   OH243359   4.880   1.613  15.349 -0.4232 -0.1766  0.3260
 7315TIP3    H143360   4.870   1.585  15.440  2.7580 -0.2991  0.7551
 7315TIP3    H243361   4.921   1.538  15.306 -0.2114  0.5430 -0.7433
 7316TIP3   OH243362   5.224   0.659  16.123 -0.3752  0.1827 -0.3794
 7316TIP3    H143363   5.179   0.576  16.109 -0.9131  0.2569  0.8475
 7316TIP3    H243364   5.292   0.661  16.055 -0.0629 -1.4689 -0.1600
 7317TIP3   OH243365   1.428   5.338   6.319  0.1858 -0.4663 -0.2316
 7317TIP3    H143366   1.415   5.403   6.249  0.6222 -0.7258 -0.5592
 7317TIP3    H243367   1.369   5.366   6.389 -0.8715 -0.6659 -1.0176
 7318TIP3   OH243368   1.847   0.017  17.143 -0.0104 -0.6628 -0.8171
 7318TIP3    H143369   1.786  -0.053  17.165 -2.3989  1.0493 -1.4815
 7318TIP3    H243370   1.921   0.005  17.203 -1.4957 -2.2362  0.8196
 7319TIP3   OH243371   5.263   5.192   5.336 -0.0167 -0.5110  0.2055
 7319TIP3    H143372   5.262   5.286   5.353 -0.0157 -0.7894  1.8939
 7319TIP3    H243373   5.352   5.175   5.303  0.3650 -0.0787  0.9687
 7320TIP3   OH243374   3.690   4.128   3.055  0.1207  0.2466  0.1530
 7320TIP3    H143375   3.707   4.061   2.989  0.8631 -0.3295  0.9127
 7320TIP3    H243376   3.764   4.188   3.048  1.0114 -0.6457  1.4599
 7321TIP3   OH243377   2.078   0.249   4.591 -0.4957  0.2945  0.3850
 7321TIP3    H143378   2.160   0.200   4.581 -2.0758 -2.3473 -0.9244
 7321TIP3    H243379   2.061   0.248   4.685 -0.9617 -2.8520  0.3923
 7322TIP3   OH243380   1.892   1.389  16.193 -0.1018  0.1155 -0.0822
 7322TIP3    H143381   1.899   1.368  16.100 -1.2919  0.1414 -0.1932
 7322TIP3    H243382   1.925   1.311  16.237 -1.4514 -0.7497 -0.5270
 7323TIP3   OH243383   2.757   2.942  13.311  0.1836  0.4073  0.3545
 7323TIP3    H143384   2.702   2.877  13.267  0.1592 -0.0788  1.0836
 7323TIP3    H243385   2.705   3.023  13.308 -0.2654  0.1284  0.4076
 7324TIP3   OH243386   1.330   3.482   1.667 -0.3193 -0.0361  0.2083
 7324TIP3    H143387   1.385   3.423   1.718 -1.1486  0.9475  2.3838
 7324TIP3    H243388   1.364   3.476   1.578  1.7958 -1.1782  1.0223
 7325TIP3   OH243389   6.277   1.075  11.517 -0.1983  0.4592  0.0834
 7325TIP3    H143390   6.331   1.129  11.459  0.0075  0.9743  0.7334
 7325TIP3    H243391   6.339   1.042  11.583 -0.4956  0.2139  0.2426
 7326TIP3   OH243392   6.494   4.111  11.755 -0.1163 -0.5319 -0.2528
 7326TIP3    H143393   6.508   4.204  11.735  1.0519  0.0647  2.7549
 7326TIP3    H243394   6.573   4.068  11.722  1.8179  0.4342  2.6338
 7327TIP3   OH243395   1.415   5.570   4.309 -0.3796  0.0755 -0.2244
 7327TIP3    H143396   1.474   5.578   4.234  0.1285 -0.1177  0.1534
 7327TIP3    H243397   1.456   5.621   4.378 -1.6362  1.5830 -0.5319
 7328TIP3   OH243398   2.205   3.114  16.001 -0.3433 -0.0340  0.8885
 7328TIP3    H143399   2.211   3.161  16.084 -2.1439  0.7161  0.6316
 7328TIP3    H243400   2.269   3.043  16.010  1.5774  1.6906  1.7624
 7329TIP3   OH243401   4.957   2.310  13.522  0.2033 -0.8606 -0.5835
 7329TIP3    H143402   4.972   2.393  13.475  0.0047 -0.5837 -0.1652
 7329TIP3    H243403   4.908   2.336  13.600  0.2470 -1.3615 -0.3908
 7330TIP3   OH243404   4.043   6.009   3.346  0.2577 -0.1616 -0.2335
 7330TIP3    H143405   3.985   5.940   3.377 -2.7010  1.6707 -1.2627
 7330TIP3    H243406   4.128   5.990   3.386 -1.1302 -2.7721  1.7113
 7331TIP3   OH243407   2.184   0.978   0.801 -0.5479  0.3099 -0.1714
 7331TIP3    H143408   2.116   0.917   0.831 -0.0111 -0.0713  0.2774
 7331TIP3    H243409   2.173   1.055   0.857 -1.1363  0.5774 -0.6458
 7332TIP3   OH243410   6.730   5.929  15.064  0.0552  0.6030 -0.0846
 7332TIP3    H143411   6.739   5.948  15.157 -0.9556  3.7963 -0.5128
 7332TIP3    H243412   6.711   6.014  15.024  1.7963 -0.3924 -3.4221
 7333TIP3   OH243413   2.391   1.863  12.092 -0.0395 -0.0582  0.2620
 7333TIP3    H143414   2.379   1.942  12.146 -1.9119  1.0041 -1.5261
 7333TIP3    H243415   2.345   1.794  12.140  0.8012  0.1491  1.3916
 7334TIP3   OH243416   5.092   0.498   1.565  0.2009  0.2379  0.4220
 7334TIP3    H143417   5.115   0.475   1.655 -1.2326  0.2476  0.8164
 7334TIP3    H243418   5.083   0.593   1.566 -0.7925  0.1528  0.5272
 7335TIP3   OH243419   4.527   2.730  13.644 -0.1539 -0.1125 -0.2431
 7335TIP3    H143420   4.486   2.704  13.562 -1.2633  1.3698 -0.1958
 7335TIP3    H243421   4.461   2.712  13.711  1.0257 -2.0618  0.4912
 7336TIP3   OH243422   0.898   1.550   1.387 -0.1595 -0.1936  0.1504
 7336TIP3    H143423   0.930   1.591   1.467 -0.3465 -0.5921  0.4320
 7336TIP3    H243424   0.808   1.583   1.377  0.7085  1.9309 -1.3259
 7337TIP3   OH243425   5.326   6.133  14.400 -0.0160 -0.4506 -0.2049
 7337TIP3    H143426   5.308   6.162  14.489 -1.9167 -0.4506 -0.5537
 7337TIP3    H243427   5.266   6.183  14.345  0.3022 -1.2855 -1.3637
 7338TIP3   OH243428   0.431   4.889   4.504 -0.0362 -0.4249 -0.3972
 7338TIP3    H143429   0.361   4.934   4.551 -0.8207 -0.9370 -1.0664
 7338TIP3    H243430   0.495   4.867   4.572  0.0236  1.0361  0.0538
 7339TIP3   OH243431   3.826   3.266  12.419 -0.0688  0.6148 -0.2566
 7339TIP3    H143432   3.836   3.310  12.504 -0.3955  0.8851 -0.3555
 7339TIP3    H243433   3.771   3.325  12.368 -1.3208 -0.3356 -0.0686
 7340TIP3   OH243434   4.020   2.424   1.203  0.2262 -0.0552  0.1134
 7340TIP3    H143435   4.001   2.330   1.205  0.1564 -0.0284  1.3806
 7340TIP3    H243436   4.075   2.439   1.280  2.5058  0.5013 -1.5161
 7341TIP3   OH243437   5.414   0.487   1.925 -0.6139 -0.6388 -0.4620
 7341TIP3    H143438   5.508   0.476   1.942 -0.0052  0.5927 -2.5281
 7341TIP3    H243439   5.409   0.568   1.874 -2.7550 -0.9753 -0.8899
 7342TIP3   OH243440   2.892   5.783   2.211  0.4489 -0.3949 -0.1961
 7342TIP3    H143441   2.917   5.698   2.175 -2.1381 -1.1467 -0.3852
 7342TIP3    H243442   2.912   5.845   2.142  0.1628 -1.1793 -0.9959
 7343TIP3   OH243443   5.747   4.706   0.831 -0.2530  0.0842  0.2865
 7343TIP3    H143444   5.691   4.628   0.838 -0.7231  0.4165  0.2339
 7343TIP3    H243445   5.713   4.753   0.755  1.3810 -0.7406 -1.0421
 7344TIP3   OH243446   5.621   1.446   0.594  0.2499 -0.3728 -0.3327
 7344TIP3    H143447   5.693   1.460   0.532 -0.2737 -0.0031 -0.8705
 7344TIP3    H243448   5.647   1.494   0.672  0.2916  0.3294 -0.7621
 7345TIP3   OH243449   0.912   2.440  16.861  0.4128  0.1320 -0.2905
 7345TIP3    H143450   0.965   2.512  16.897  0.2701  0.1665 -0.1465
 7345TIP3    H243451   0.969   2.364  16.865  1.5164  0.7085 -2.8394
 7346TIP3   OH243452   4.514   3.541   4.291  0.0500 -0.3996  0.0889
 7346TIP3    H143453   4.474   3.568   4.208  1.2042 -1.1934 -0.7649
 7346TIP3    H243454   4.608   3.539   4.272  0.1933 -3.0643  0.6236
 7347TIP3   OH243455   5.232   1.851  13.908 -0.2030  0.4846 -0.6825
 7347TIP3    H143456   5.251   1.778  13.968  0.2559 -0.2157 -1.6467
 7347TIP3    H243457   5.218   1.808  13.824 -1.9522  1.3468 -0.8739
 7348TIP3   OH243458   0.544   3.782   0.118  0.0319  0.1604  0.1492
 7348TIP3    H143459   0.578   3.869   0.095  1.3810 -0.4658 -0.3061
 7348TIP3    H243460   0.549   3.779   0.214 -0.4268  0.7423  0.1936
 7349TIP3   OH243461   3.777   3.117  12.687 -0.5525 -0.1036  0.3994
 7349TIP3    H143462   3.772   3.022  12.677 -0.5063 -0.0513 -0.1037
 7349TIP3    H243463   3.852   3.144  12.635 -0.5598  0.2112  0.5452
 7350TIP3   OH243464   3.658   1.245   3.265  0.1315 -0.1643 -0.1187
 7350TIP3    H143465   3.701   1.195   3.195 -1.3951  0.0479 -1.2555
 7350TIP3    H243466   3.656   1.184   3.339  0.5472 -0.8935 -0.6822
 7351TIP3   OH243467   3.664   4.341   6.032  0.2653  0.5369 -0.5656
 7351TIP3    H143468   3.584   4.379   6.067  0.0115 -0.3828 -0.1123
 7351TIP3    H243469   3.725   4.341   6.105  0.4201  0.5044 -0.6926
 7352TIP3   OH243470   3.353   4.308   1.812 -0.4669  0.0165  0.2955
 7352TIP3    H143471   3.265   4.313   1.776 -0.0434  0.5378 -0.6965
 7352TIP3    H243472   3.360   4.219   1.846 -1.1533 -0.2265 -0.1819
 7353TIP3   OH243473   5.132   1.396  10.880  0.0864 -0.0881  0.3126
 7353TIP3    H143474   5.114   1.338  10.807 -3.0868 -1.6439  2.1347
 7353TIP3    H243475   5.117   1.484  10.845 -0.6525 -0.7332 -1.0720
 7354TIP3   OH243476   0.425   4.258   4.849  0.1813 -0.3395 -0.0924
 7354TIP3    H143477   0.423   4.254   4.945 -2.6148  0.6399 -0.0462
 7354TIP3    H243478   0.448   4.349   4.829  1.4352 -0.7001 -0.4177
 7355TIP3   OH243479   4.255   0.226  16.657  0.5002 -0.2957 -0.5796
 7355TIP3    H143480   4.347   0.239  16.679  0.4550 -2.0128  0.8519
 7355TIP3    H243481   4.243   0.131  16.659 -1.9248 -0.0784  2.2345
 7356TIP3   OH243482   3.807   0.265   5.119 -0.1790  0.1245 -0.3020
 7356TIP3    H143483   3.882   0.237   5.065 -0.3417 -0.1424 -0.3908
 7356TIP3    H243484   3.813   0.361   5.119  1.4865  0.0865  1.5707
 7357TIP3   OH243485   1.717   2.374   5.044  0.1497 -0.0888 -0.3057
 7357TIP3    H143486   1.677   2.298   5.086 -0.8862  0.5877 -0.0298
 7357TIP3    H243487   1.659   2.447   5.066 -0.1057  0.4093 -2.3773
 7358TIP3   OH243488   6.098   1.084   4.206  0.3542  0.1207 -0.2297
 7358TIP3    H143489   6.017   1.105   4.253 -0.3984 -2.2076 -0.3824
 7358TIP3    H243490   6.080   1.106   4.115  0.4468  1.0005 -0.0462
 7359TIP3   OH243491   4.850   1.253  10.903  0.5384 -0.3607  0.0375
 7359TIP3    H143492   4.832   1.171  10.857  2.3880  0.4995 -2.4148
 7359TIP3    H243493   4.911   1.300  10.846  1.1346  1.8594  2.3179
 7360TIP3   OH243494   4.478   4.710  11.389  0.1582  0.2968  0.2953
 7360TIP3    H143495   4.473   4.785  11.329 -0.1789  0.2715  0.2908
 7360TIP3    H243496   4.387   4.684  11.402  0.1488  0.9870  1.6969
 7361TIP3   OH243497   1.459   0.826   3.855 -0.2273  0.0347 -0.2302
 7361TIP3    H143498   1.459   0.877   3.774 -1.9548  1.4143  0.5716
 7361TIP3    H243499   1.380   0.854   3.901  0.8432 -0.4794  2.0716
 7362TIP3   OH243500   6.530   4.338   5.234 -0.5899  0.0521  0.0031
 7362TIP3    H143501   6.479   4.418   5.218  0.2008  0.3203 -1.4374
 7362TIP3    H243502   6.597   4.339   5.165 -0.3208 -1.6605  0.1988
 7363TIP3   OH243503   5.072   2.584  12.031 -0.1963  0.5484 -0.5157
 7363TIP3    H143504   5.065   2.541  12.115 -0.1951  0.9899 -0.2859
 7363TIP3    H243505   5.050   2.517  11.967 -1.5867  0.5800 -0.0950
 7364TIP3   OH243506   2.338   4.206  15.012 -0.2154  0.2071 -0.1869
 7364TIP3    H143507   2.350   4.279  14.951  0.0176 -0.2106 -0.6599
 7364TIP3    H243508   2.266   4.233  15.069 -0.4758  0.5924 -0.6858
 7365TIP3   OH243509   5.466   2.417  16.669  0.1765 -0.5246 -0.5850
 7365TIP3    H143510   5.476   2.511  16.688  0.5241 -0.6666 -0.0284
 7365TIP3    H243511   5.396   2.388  16.727  1.6672 -1.0938  1.0065
 7366TIP3   OH243512   0.612   1.804   0.345 -0.6433  0.3700 -0.0245
 7366TIP3    H143513   0.592   1.822   0.253 -0.6790 -3.2805 -0.8852
 7366TIP3    H243514   0.706   1.784   0.346 -0.8698 -0.7689  0.4623
 7367TIP3   OH243515   3.071   1.532   2.434  0.4415 -0.4834  0.5509
 7367TIP3    H143516   2.990   1.481   2.431 -0.0284 -0.0825  3.5267
 7367TIP3    H243517   3.060   1.598   2.366 -1.9363 -0.2155  1.1095
 7368TIP3   OH243518   4.974   0.303   5.721  0.6827  0.0999 -0.3002
 7368TIP3    H143519   5.004   0.351   5.643 -0.2875  1.1618 -0.0359
 7368TIP3    H243520   5.043   0.318   5.785  0.3397  1.2940 -0.1770
 7369TIP3   OH243521   4.032   5.776  16.916 -0.1374 -0.3144 -0.2536
 7369TIP3    H143522   3.946   5.739  16.894 -1.2942  2.6421 -1.0774
 7369TIP3    H243523   4.082   5.770  16.835  0.0383 -0.9031 -0.1100
 7370TIP3   OH243524   0.719   6.571  13.385  0.3508  0.4671 -0.0027
 7370TIP3    H143525   0.767   6.630  13.443  1.8032 -1.9449  1.3927
 7370TIP3    H243526   0.787   6.520  13.341 -0.8637 -1.1186 -0.1142
 7371TIP3   OH243527   4.038   2.098  12.039  0.3285  0.4103 -0.4816
 7371TIP3    H143528   3.983   2.029  12.073  0.9654 -0.1272 -0.5207
 7371TIP3    H243529   4.036   2.166  12.106 -0.6043  0.5237 -0.6165
 7372TIP3   OH243530   0.039   0.391   5.303  0.2148  0.1439  0.2134
 7372TIP3    H143531  -0.042   0.425   5.341  0.3967  1.0554 -0.1708
 7372TIP3    H243532   0.106   0.454   5.331  0.3433  0.9013 -1.6594
 7373TIP3   OH243533   5.927   3.412  12.130  0.3727 -0.5553 -0.4523
 7373TIP3    H143534   5.905   3.369  12.047  1.5433  1.3221 -1.8274
 7373TIP3    H243535   5.851   3.398  12.186 -1.3948 -0.0745 -2.5908
 7374TIP3   OH243536   5.281   2.652  14.509  0.0625 -0.4276  0.1135
 7374TIP3    H143537   5.309   2.677  14.421  1.2562 -0.7330  0.3771
 7374TIP3    H243538   5.350   2.688  14.566 -0.8375  0.0120  0.9547
 7375TIP3   OH243539   6.571   2.263   3.990 -0.1055 -0.0236  0.1097
 7375TIP3    H143540   6.571   2.297   3.900 -0.6538 -1.3382 -0.4200
 7375TIP3    H243541   6.510   2.189   3.987  0.8691 -0.9132  1.2378
 7376TIP3   OH243542   1.009   4.267  14.205 -0.2107 -0.4501  0.0405
 7376TIP3    H143543   0.940   4.268  14.271 -1.6207 -0.5618 -1.3680
 7376TIP3    H243544   0.984   4.336  14.144  2.2118  1.1079  0.6984
 7377TIP3   OH243545   1.709   0.293   2.055  0.0564 -0.4806  0.2569
 7377TIP3    H143546   1.680   0.212   2.096 -1.8274  0.0269  0.0434
 7377TIP3    H243547   1.668   0.292   1.968  0.1923  0.5708  0.1640
 7378TIP3   OH243548   4.880   2.623   5.236 -0.3880 -0.0431  0.4805
 7378TIP3    H143549   4.927   2.589   5.160 -1.3098 -0.0668 -0.0935
 7378TIP3    H243550   4.874   2.549   5.296  0.4210 -0.0013  0.6204
 7379TIP3   OH243551   3.786   1.205   2.683  0.5056 -0.5303 -0.0570
 7379TIP3    H143552   3.745   1.120   2.673 -1.9605  0.8042 -2.5608
 7379TIP3    H243553   3.740   1.246   2.756  1.1713 -1.0134  0.6503
 7380TIP3   OH243554   4.755   3.565   2.859  0.3548  0.3894  0.4217
 7380TIP3    H143555   4.830   3.569   2.800  0.7877 -0.2981  0.9006
 7380TIP3    H243556   4.683   3.604   2.810  1.4740  2.9615  0.7008
 7381TIP3   OH243557   4.392   4.104   1.385 -0.5766  0.1468 -0.1334
 7381TIP3    H143558   4.358   4.188   1.419  0.4745  0.6196 -0.2206
 7381TIP3    H243559   4.482   4.123   1.361 -0.3801 -0.9855 -0.3192
 7382TIP3   OH243560   6.414   6.266   3.092 -0.1903  0.3915  0.4044
 7382TIP3    H143561   6.489   6.243   3.037  1.0524  1.8715  1.3977
 7382TIP3    H243562   6.341   6.271   3.031  0.5192 -0.9986 -0.6083
 7383TIP3   OH243563   1.133   6.643  13.815 -0.2862 -0.3114  0.1555
 7383TIP3    H143564   1.197   6.573  13.832  0.6253  0.4775  0.0959
 7383TIP3    H243565   1.127   6.690  13.898 -0.2208  0.0619 -0.0481
 7384TIP3   OH243566   6.052   3.390   2.828 -0.0349 -0.4770  0.2325
 7384TIP3    H143567   6.090   3.470   2.865 -2.3824  1.0015 -0.4112
 7384TIP3    H243568   6.096   3.319   2.876  1.7884  1.1635  1.1356
 7385TIP3   OH243569   1.431   4.313  16.300 -0.3934  0.1917 -0.3662
 7385TIP3    H143570   1.440   4.218  16.300 -1.4598  0.0734 -0.9942
 7385TIP3    H243571   1.385   4.333  16.382 -0.2423  0.1547 -0.2733
 7386TIP3   OH243572   6.304   6.163   2.864 -0.3288  0.1026 -0.3564
 7386TIP3    H143573   6.356   6.216   2.804  0.6858  0.8156  1.0995
 7386TIP3    H243574   6.355   6.083   2.876  1.0156  1.2005  1.8247
 7387TIP3   OH243575   4.400   0.521  11.158 -0.7987 -0.4877  0.1119
 7387TIP3    H143576   4.483   0.560  11.187 -0.9180  0.0034 -0.1926
 7387TIP3    H243577   4.377   0.571  11.080 -1.2766 -0.7648  0.0781
 7388TIP3   OH243578   1.954   0.095  15.013  0.2116  0.5498  0.1327
 7388TIP3    H143579   2.004   0.128  14.939  1.6745  1.5577  1.4905
 7388TIP3    H243580   2.019   0.057  15.072 -0.7905  0.4781  1.2509
 7389TIP3   OH243581   1.553   0.703  15.982 -0.3924  0.0951 -0.1562
 7389TIP3    H143582   1.635   0.654  15.992 -0.3056  0.1497 -0.5852
 7389TIP3    H243583   1.539   0.707  15.888 -1.3656 -0.7067 -0.0656
 7390TIP3   OH243584   3.050   0.004   3.047  0.5786  0.2218 -0.1236
 7390TIP3    H143585   3.137   0.031   3.076  0.6029  0.8505 -0.7492
 7390TIP3    H243586   2.991   0.071   3.083  0.5694  0.8120 -1.1845
 7391TIP3   OH243587   5.246   1.612   5.778 -0.0270  0.6843  0.4210
 7391TIP3    H143588   5.188   1.586   5.706  0.9416  0.0796 -0.1709
 7391TIP3    H243589   5.206   1.574   5.856 -0.6228  0.6032  0.0833
 7392TIP3   OH243590   2.043   6.675   3.359 -0.2328  0.0587 -0.0786
 7392TIP3    H143591   2.039   6.617   3.282 -2.6697  0.4346 -0.3255
 7392TIP3    H243592   2.083   6.621   3.427  2.0640 -0.2641 -1.5702
 7393TIP3   OH243593   6.728   5.539   0.841 -0.1462  0.2172  0.5830
 7393TIP3    H143594   6.726   5.459   0.788 -0.5819  1.0020 -0.6180
 7393TIP3    H243595   6.820   5.565   0.841  0.0800 -0.5199  1.3825
 7394TIP3   OH243596   0.411   5.851   2.987 -0.1439 -0.0078 -0.3370
 7394TIP3    H143597   0.476   5.812   2.928 -0.7063  1.7958 -2.2643
 7394TIP3    H243598   0.396   5.784   3.054  1.0293 -1.8945 -1.8600
 7395TIP3   OH243599   1.435   6.014  12.439 -0.2434 -0.2097  0.5877
 7395TIP3    H143600   1.499   5.986  12.505  0.5815  2.4459  1.0684
 7395TIP3    H243601   1.370   5.945  12.437  1.1968 -1.7047  2.1438
 7396TIP3   OH243602   2.251   3.337   0.928  0.2918  0.0352  0.5233
 7396TIP3    H143603   2.275   3.399   0.859 -0.7543  0.8992  0.9006
 7396TIP3    H243604   2.219   3.260   0.882 -1.1506  0.9038  0.0010
 7397TIP3   OH243605   6.025   2.048  14.216  0.2750 -0.0864 -0.1292
 7397TIP3    H143606   6.025   2.095  14.299 -0.5322  1.4983 -0.9610
 7397TIP3    H243607   5.971   1.970  14.232  2.3090 -1.2593  1.5077
 7398TIP3   OH243608   6.750   3.255  11.109 -0.1643 -0.1417  0.6160
 7398TIP3    H143609   6.669   3.241  11.060 -0.0535  0.4959  0.2290
 7398TIP3    H243610   6.820   3.229  11.049 -0.0676 -0.4844  0.8700
 7399TIP3   OH243611   2.829   0.103   2.842  0.4287  0.1089  0.4845
 7399TIP3    H143612   2.918   0.085   2.872  0.9431  1.3558 -0.2082
 7399TIP3    H243613   2.779   0.114   2.923  0.8545 -0.7680  0.8810
 7400TIP3   OH243614   0.442   6.726  12.753  0.0638 -0.5556  0.5913
 7400TIP3    H143615   0.470   6.795  12.693 -0.6427 -1.8385 -1.3408
 7400TIP3    H243616   0.518   6.709  12.808  0.9835  0.2349 -0.4016
 7401TIP3   OH243617   6.113   5.367   1.468 -0.4772 -0.2976 -0.2920
 7401TIP3    H143618   6.201   5.372   1.430 -0.9761 -1.3548 -1.6492
 7401TIP3    H243619   6.056   5.403   1.400 -1.2368 -0.8904  0.0247
 7402TIP3   OH243620   0.631   6.044   2.339  0.0703  0.4001  0.8498
 7402TIP3    H143621   0.546   6.049   2.383 -0.5313  2.2419 -0.4210
 7402TIP3    H243622   0.692   6.017   2.408 -1.3817 -0.1432  1.9819
 7403TIP3   OH243623   4.702   2.971   0.475 -0.1731  0.5287 -0.3553
 7403TIP3    H143624   4.691   2.910   0.548  1.6458 -0.0460 -0.5133
 7403TIP3    H243625   4.742   2.918   0.406 -1.2401  1.2286 -1.5482
 7404TIP3   OH243626   0.935   1.357   3.623  0.1072  0.4665 -0.6501
 7404TIP3    H143627   0.877   1.426   3.593 -0.9846 -1.3465 -3.0114
 7404TIP3    H243628   1.009   1.359   3.563 -0.0102 -0.4734 -0.8469
 7405TIP3   OH243629   2.395   3.348   1.857  0.1438 -0.0021  0.3302
 7405TIP3    H143630   2.340   3.369   1.782 -0.5665  2.0762  1.3441
 7405TIP3    H243631   2.479   3.391   1.838  0.1641  0.0064  0.4361
 7406TIP3   OH243632   6.487   6.319   3.798 -0.2842 -0.2731 -0.1199
 7406TIP3    H143633   6.409   6.299   3.848 -0.2123  0.8322  0.4739
 7406TIP3    H243634   6.458   6.321   3.707 -1.1989  1.1720  0.1770
 7407TIP3   OH243635   2.789   1.786   5.759  0.0950 -0.1598 -0.0067
 7407TIP3    H143636   2.830   1.783   5.846  1.8194  1.2423 -0.7078
 7407TIP3    H243637   2.762   1.877   5.749 -3.4346 -1.0191  0.4379
 7408TIP3   OH243638   4.258   0.759   0.206  0.0209 -0.3438  0.2868
 7408TIP3    H143639   4.218   0.799   0.284 -0.3282  1.2370 -0.6721
 7408TIP3    H243640   4.204   0.788   0.133  1.1856 -0.6301 -0.7239
 7409TIP3   OH243641   3.190   6.539  14.650 -0.3260 -0.3245  0.4589
 7409TIP3    H143642   3.283   6.520  14.642 -0.1633  0.0850  1.2814
 7409TIP3    H243643   3.161   6.554  14.560  0.6747  0.7553  0.2861
 7410TIP3   OH243644   1.117   1.191  12.763  0.4542 -1.0083 -0.3628
 7410TIP3    H143645   1.182   1.158  12.825  1.2500  1.1959  0.0654
 7410TIP3    H243646   1.038   1.141  12.783  1.4748 -2.3951  0.4195
 7411TIP3   OH243647   6.699   3.522  15.705 -0.4697  0.2834  0.2373
 7411TIP3    H143648   6.700   3.617  15.701 -0.2845  0.2594 -0.3511
 7411TIP3    H243649   6.672   3.502  15.795 -0.4625  0.8864  0.3769
 7412TIP3   OH243650   0.328   1.877  14.439 -0.7630 -0.8123 -0.0730
 7412TIP3    H143651   0.236   1.859  14.418 -0.1989 -0.9307 -2.8432
 7412TIP3    H243652   0.326   1.962  14.482 -2.0825 -0.0951 -1.4457
 7413TIP3   OH243653   2.067   6.233   1.708 -0.3853  0.0993  0.0765
 7413TIP3    H143654   2.045   6.141   1.725  0.4283 -0.0053  0.6139
 7413TIP3    H243655   2.007   6.283   1.764 -1.7308 -0.0278 -1.1702
 7414TIP3   OH243656   5.579   4.624  16.233 -0.2796  1.1579  0.0269
 7414TIP3    H143657   5.494   4.651  16.199 -1.1733  0.4579  1.5932
 7414TIP3    H243658   5.572   4.639  16.327  1.0003  0.2017  0.2858
 7415TIP3   OH243659   5.665   6.148   3.094 -0.7181 -0.5332  0.2451
 7415TIP3    H143660   5.756   6.130   3.070 -0.3654  2.4658 -1.1054
 7415TIP3    H243661   5.618   6.143   3.011 -1.1040  1.3055  0.3128
 7416TIP3   OH243662   2.136   3.447   3.530 -0.0383 -0.2360  0.3125
 7416TIP3    H143663   2.168   3.358   3.514  1.3821  0.1334  0.9005
 7416TIP3    H243664   2.102   3.445   3.619  0.4360 -0.0882  0.5017
 7417TIP3   OH243665   2.397   4.979  14.343  1.0551 -0.2496 -0.1463
 7417TIP3    H143666   2.410   4.914  14.273  1.3704  0.7564 -1.0535
 7417TIP3    H243667   2.486   5.000  14.373  0.8896 -1.2246  1.1087
 7418TIP3   OH243668   0.460   0.632  12.886  0.5055 -0.6676 -0.2595
 7418TIP3    H143669   0.433   0.645  12.976  0.6121 -0.2796 -0.2827
 7418TIP3    H243670   0.537   0.576  12.891  0.4304 -0.7566 -0.1179
 7419TIP3   OH243671   4.158   2.915  17.099  0.2672  0.3711 -0.2283
 7419TIP3    H143672   4.144   2.856  17.025 -0.3493  1.3340 -0.8971
 7419TIP3    H243673   4.253   2.931  17.098  0.2376  0.5690 -0.9748
 7420TIP3   OH243674   3.937   3.136   1.160 -0.1621  0.1110  0.0960
 7420TIP3    H143675   3.944   3.065   1.224  0.1414  0.0085 -0.0465
 7420TIP3    H243676   3.928   3.215   1.213 -0.5291 -0.0349  0.2559
 7421TIP3   OH243677   2.877   0.204  16.732 -0.4098 -0.3086  0.5085
 7421TIP3    H143678   2.950   0.169  16.681 -0.0149  0.6625  0.4033
 7421TIP3    H243679   2.821   0.249  16.668 -0.4160  0.0836  0.7862
 7422TIP3   OH243680   0.842   0.179  17.216 -0.1196 -0.4347 -0.3825
 7422TIP3    H143681   0.840   0.251  17.153  3.1908  0.9551  0.8507
 7422TIP3    H243682   0.758   0.184  17.261  0.2867  3.3326  0.2438
 7423TIP3   OH243683   4.634   3.265  14.375 -0.0637  0.2905 -0.4474
 7423TIP3    H143684   4.550   3.235  14.411  1.0156  1.6082  3.6949
 7423TIP3    H243685   4.698   3.203  14.409  1.0255  1.4066 -0.3978
 7424TIP3   OH243686   1.873   3.159  13.025  0.3598  0.5504  0.0476
 7424TIP3    H143687   1.852   3.225  12.959  1.7296 -0.9278 -1.9888
 7424TIP3    H243688   1.896   3.081  12.974 -1.0109 -1.4699  2.3433
 7425TIP3   OH243689   4.904   3.290   1.451 -0.1716  0.0514  0.3068
 7425TIP3    H143690   4.992   3.324   1.434  0.2194 -0.5962  0.9936
 7425TIP3    H243691   4.869   3.346   1.520  0.1027 -0.3331  0.7614
 7426TIP3   OH243692   6.726   2.796   4.883 -0.0845 -0.2092 -0.1644
 7426TIP3    H143693   6.758   2.879   4.848  0.9846  0.2068  1.6830
 7426TIP3    H243694   6.804   2.752   4.916 -1.1114  0.0546  2.8970
 7427TIP3   OH243695   6.062   1.999   0.236  0.4034  0.4080  0.8499
 7427TIP3    H143696   6.075   1.935   0.307  0.7717  0.1770  0.5799
 7427TIP3    H243697   6.124   2.069   0.257  2.2974 -0.7435 -0.4956
 7428TIP3   OH243698   0.328   4.696  13.376  0.2292 -0.2150 -0.0076
 7428TIP3    H143699   0.375   4.756  13.318  0.0512 -0.6947 -0.6617
 7428TIP3    H243700   0.306   4.621  13.320 -1.0628 -0.1212  0.3494
 7429TIP3   OH243701   0.791   4.465  14.917  0.3512 -0.5542  0.0250
 7429TIP3    H143702   0.733   4.390  14.903 -1.4106  0.4876  1.3845
 7429TIP3    H243703   0.783   4.517  14.836 -0.0174 -0.8135 -0.1069
 7430TIP3   OH243704   5.942   0.926   1.637  0.2378 -0.3123  0.1579
 7430TIP3    H143705   5.980   0.989   1.575  0.8248 -1.1246 -0.3383
 7430TIP3    H243706   5.884   0.978   1.692  1.0347  0.7317  0.0391
 7431TIP3   OH243707   2.234   5.160   0.084 -0.6045  0.3516 -0.1688
 7431TIP3    H143708   2.237   5.068   0.109  1.2464  0.5970  0.6893
 7431TIP3    H243709   2.211   5.206   0.165 -2.5139  0.5923 -0.8213
 7432TIP3   OH243710   3.995   4.124   2.008 -0.2229 -0.1142  0.0617
 7432TIP3    H143711   3.979   4.095   2.098 -2.4148 -0.0692 -0.2550
 7432TIP3    H243712   4.016   4.043   1.961  0.7879 -0.1576  0.5565
 7433TIP3   OH243713   2.307   1.332  16.113  0.2619  0.1592 -0.0615
 7433TIP3    H143714   2.352   1.368  16.037  0.9939  0.6183  0.5763
 7433TIP3    H243715   2.245   1.269  16.076  1.4004 -0.4693 -0.9584
 7434TIP3   OH243716   1.994   3.039  17.088 -0.0830 -0.4883  0.1057
 7434TIP3    H143717   1.934   3.113  17.101 -0.4490 -0.9861  1.4099
 7434TIP3    H243718   2.071   3.062  17.139 -0.7692 -1.6158  1.7304
 7435TIP3   OH243719   6.195   1.022  12.951  0.2972  0.0321  0.0009
 7435TIP3    H143720   6.111   0.983  12.973 -1.0760  1.7849 -1.6946
 7435TIP3    H243721   6.248   1.013  13.030 -0.9589 -2.4003  0.6501
 7436TIP3   OH243722   1.271   3.586  11.568 -0.1681 -0.0915  0.5909
 7436TIP3    H143723   1.341   3.545  11.619  0.4070  0.2498  0.0929
 7436TIP3    H243724   1.209   3.515  11.550 -0.1865 -0.2949  1.4375
 7437TIP3   OH243725   6.686   1.629  11.711 -0.2830 -0.1637 -0.2098
 7437TIP3    H143726   6.718   1.718  11.693 -0.8624 -0.0499 -0.7132
 7437TIP3    H243727   6.757   1.572  11.681  0.2433  0.1337  0.4462
 7438TIP3   OH243728   2.928   2.482   5.554 -0.7076 -0.2857 -0.3325
 7438TIP3    H143729   2.984   2.451   5.483 -1.4075 -0.6321 -0.7568
 7438TIP3    H243730   2.846   2.432   5.542 -0.0135 -2.1999  2.1849
 7439TIP3   OH243731   6.520   0.768  10.691 -1.2786  0.6471  0.1008
 7439TIP3    H143732   6.557   0.782  10.778 -2.4945  1.1519  0.5550
 7439TIP3    H243733   6.532   0.674  10.675  0.1150  0.7827  0.2443
 7440TIP3   OH243734   0.980   1.376  16.039  0.2068 -0.6767  0.4295
 7440TIP3    H143735   0.919   1.398  15.969  0.2684 -1.2334  0.1928
 7440TIP3    H243736   1.061   1.349  15.994 -0.1930 -2.3777  0.6396
 7441TIP3   OH243737   0.637   5.467   5.702  0.3491  0.0122 -0.0438
 7441TIP3    H143738   0.634   5.372   5.693 -0.1855 -0.1063  1.2130
 7441TIP3    H243739   0.568   5.487   5.765  1.6306  1.0521  1.0873
 7442TIP3   OH243740   6.471   2.060  14.869 -0.1179 -0.5187  0.0997
 7442TIP3    H143741   6.503   2.071  14.958 -2.5704  0.6110  0.9270
 7442TIP3    H243742   6.439   2.147  14.844 -0.3788 -1.0435 -1.5257
 7443TIP3   OH243743   1.511   3.824   6.517  0.4486 -0.0157 -0.3333
 7443TIP3    H143744   1.473   3.877   6.587  0.7268  1.5905 -1.3599
 7443TIP3    H243745   1.436   3.796   6.465  0.4369  1.0840 -0.9386
 7444TIP3   OH243746   5.212   4.079  13.479  0.0889 -0.0007  0.0542
 7444TIP3    H143747   5.297   4.074  13.435  0.2645  1.3933  0.1758
 7444TIP3    H243748   5.201   3.993  13.519  1.3858 -0.2543 -0.0717
 7445TIP3   OH243749   2.014   5.452  16.229  0.0141 -0.1698 -0.0420
 7445TIP3    H143750   2.038   5.402  16.150 -0.5178 -1.3155  0.5053
 7445TIP3    H243751   2.053   5.403  16.301  0.0815  0.6070  0.4576
 7446TIP3   OH243752   0.711   2.044   1.338  0.1285 -0.0747  0.2757
 7446TIP3    H143753   0.785   2.014   1.391  0.8056  0.1952 -0.4913
 7446TIP3    H243754   0.637   1.993   1.369  0.9253 -1.3818  0.0834
 7447TIP3   OH243755   6.046   6.659   5.297 -0.1788  0.7041  0.2078
 7447TIP3    H143756   6.123   6.627   5.345  0.3315 -0.0916 -1.0806
 7447TIP3    H243757   6.078   6.736   5.249  0.2945 -0.5570 -1.5941
 7448TIP3   OH243758   6.404   0.921   2.444 -0.2167  0.4818  0.2624
 7448TIP3    H143759   6.333   0.926   2.379  0.1794  1.9314 -0.1132
 7448TIP3    H243760   6.369   0.966   2.521 -0.1947 -0.0370  0.5804
 7449TIP3   OH243761   6.250   1.466  13.129  0.1159  0.2366 -0.7675
 7449TIP3    H143762   6.342   1.486  13.114  0.7159 -1.4278  0.3100
 7449TIP3    H243763   6.212   1.547  13.161  1.3259  0.8238 -0.7812
 7450TIP3   OH243764   1.764   2.735   2.583 -0.2622  0.0229 -0.3400
 7450TIP3    H143765   1.732   2.722   2.494 -1.0705 -2.8627  0.2712
 7450TIP3    H243766   1.859   2.730   2.575 -0.2840  0.6865 -1.1472
 7451TIP3   OH243767   3.035   5.469   6.101 -0.2893  0.2180  0.0293
 7451TIP3    H143768   2.963   5.474   6.164  0.5720  0.5949  1.0148
 7451TIP3    H243769   2.992   5.467   6.015 -1.4581  1.0028  0.5712
 7452TIP3   OH243770   2.639   5.897  12.146  0.3193  0.1870 -0.2916
 7452TIP3    H143771   2.664   5.950  12.070 -0.1200  1.0938  0.1756
 7452TIP3    H243772   2.692   5.817  12.138  1.2916  0.8582 -0.8016
 7453TIP3   OH243773   5.407   4.350  13.279  0.2265 -0.0460 -0.2160
 7453TIP3    H143774   5.327   4.375  13.234  0.7676 -1.1683 -1.9030
 7453TIP3    H243775   5.477   4.374  13.218  1.1039 -0.1867  0.7104
 7454TIP3   OH243776   5.648   2.901   1.873  0.2837 -0.1151  0.2655
 7454TIP3    H143777   5.641   2.983   1.824 -0.1511 -0.1883  0.1988
 7454TIP3    H243778   5.561   2.888   1.911  1.3202  1.4131  3.4762
 7455TIP3   OH243779   6.029   5.803  14.110 -0.6406 -0.3149 -0.2123
 7455TIP3    H143780   6.001   5.738  14.044 -2.9442  0.3027  0.0790
 7455TIP3    H243781   6.001   5.887  14.074  0.8941  0.3996  0.1672
 7456TIP3   OH243782   2.656   2.943   1.062 -0.3557  0.0513 -0.4331
 7456TIP3    H143783   2.597   2.870   1.045 -0.8523 -0.0114  1.4503
 7456TIP3    H243784   2.739   2.902   1.088 -0.4282  0.1605 -0.0315
 7457TIP3   OH243785   1.955   1.945  15.819  0.7755  0.3668 -0.4781
 7457TIP3    H143786   1.984   1.868  15.771  1.4710  1.4450 -1.8825
 7457TIP3    H243787   1.998   2.018  15.775 -1.2663  1.7269 -0.3737
 7458TIP3   OH243788   4.329   3.395  13.553 -0.3936 -0.4484  0.2693
 7458TIP3    H143789   4.385   3.404  13.630 -1.2294 -0.8229  0.9319
 7458TIP3    H243790   4.351   3.310  13.517  0.9936  0.2939 -0.7363
 7459TIP3   OH243791   5.055   5.962  12.384 -0.1101 -0.1156  0.4202
 7459TIP3    H143792   4.962   5.977  12.363 -0.1741 -1.1774 -0.0795
 7459TIP3    H243793   5.058   5.873  12.417  0.6463  0.1451  1.0799
 7460TIP3   OH243794   0.893   4.455  16.738 -0.4175 -0.5403 -0.3397
 7460TIP3    H143795   0.862   4.390  16.801 -1.4385 -1.4271 -1.6945
 7460TIP3    H243796   0.813   4.497  16.706  0.1989  1.1948  0.2561
 7461TIP3   OH243797   2.275   2.484   4.644  0.0375  0.0094  0.1903
 7461TIP3    H143798   2.271   2.578   4.656 -1.2310  0.2421 -1.5607
 7461TIP3    H243799   2.221   2.448   4.715  0.2730  0.6038  0.6765
 7462TIP3   OH243800   2.768   0.751  14.148  0.2454  0.2756  0.4445
 7462TIP3    H143801   2.849   0.707  14.119 -0.2715 -1.2951  1.2843
 7462TIP3    H243802   2.778   0.758  14.243 -0.7667 -0.2908  0.6004
 7463TIP3   OH243803   3.613   5.216  12.377  0.2649 -0.3428  0.7189
 7463TIP3    H143804   3.597   5.123  12.358  1.0401 -0.8791  2.4363
 7463TIP3    H243805   3.581   5.262  12.300 -0.0368 -2.0459 -0.2363
 7464TIP3   OH243806   3.752   2.485  16.162 -0.0385 -0.4817 -0.0951
 7464TIP3    H143807   3.810   2.410  16.176  1.5466  0.8719  1.1086
 7464TIP3    H243808   3.693   2.458  16.092  0.1619 -2.9963  0.6003
 7465TIP3   OH243809   4.196   3.761  15.615  0.0736  0.1135  0.2934
 7465TIP3    H143810   4.221   3.678  15.575 -1.5928 -0.4163  0.2774
 7465TIP3    H243811   4.274   3.790  15.662  0.8146 -1.2403 -0.0614
 7466TIP3   OH243812   4.767   2.804   0.687  0.0183  0.2892 -0.0294
 7466TIP3    H143813   4.710   2.859   0.740  0.2772  1.4076 -0.8628
 7466TIP3    H243814   4.844   2.789   0.742 -0.8432 -0.8569  0.9246
 7467TIP3   OH243815   5.252   1.366  15.257  0.5850 -0.1016 -0.8239
 7467TIP3    H143816   5.272   1.458  15.240  0.8866 -0.3603 -1.9857
 7467TIP3    H243817   5.288   1.348  15.344  1.6155  0.5600 -1.1039
 7468TIP3   OH243818   0.739   0.592   5.704  0.3504  0.2139  0.1428
 7468TIP3    H143819   0.798   0.539   5.651  1.8789 -0.2481  2.2120
 7468TIP3    H243820   0.661   0.539   5.715  0.0459  0.2745 -1.4936
 7469TIP3   OH243821   1.698   2.199   6.394 -0.1134 -0.3324 -0.6352
 7469TIP3    H143822   1.671   2.151   6.472  0.5755 -1.7507 -1.2198
 7469TIP3    H243823   1.618   2.241   6.363 -0.0897  1.6692  1.7029
 7470TIP3   OH243824   6.010   2.383  10.613 -0.1002  0.2173  0.0729
 7470TIP3    H143825   5.962   2.409  10.534 -0.2031  0.9178  0.3590
 7470TIP3    H243826   6.081   2.329  10.580 -0.1500  0.4906 -0.5052
 7471TIP3   OH243827   0.500   6.170  13.491 -0.5901 -0.0612 -0.2071
 7471TIP3    H143828   0.542   6.093  13.452  1.3590  0.6006  0.4845
 7471TIP3    H243829   0.564   6.203  13.554 -1.6871  1.7162  0.0401
 7472TIP3   OH243830   5.004   1.598  14.828  0.0790  0.0367 -0.1342
 7472TIP3    H143831   5.045   1.675  14.788  1.7856 -0.2655  0.9327
 7472TIP3    H243832   4.925   1.632  14.871 -0.4573  0.7606 -1.6347
 7473TIP3   OH243833   6.480   1.195  12.139 -0.1141  0.5648 -0.0162
 7473TIP3    H143834   6.497   1.103  12.117  0.3413  0.7844 -0.5943
 7473TIP3    H243835   6.558   1.223  12.187 -0.7422  0.3322  1.1905
 7474TIP3   OH243836   0.541   2.232  13.196  0.2747  0.0332 -0.5555
 7474TIP3    H143837   0.486   2.287  13.139 -0.4955 -0.0027  0.1300
 7474TIP3    H243838   0.570   2.291  13.265 -0.0379 -0.2715 -0.1606
 7475TIP3   OH243839   2.564   6.619   5.791  0.1741 -0.0702  0.0037
 7475TIP3    H143840   2.584   6.529   5.817  0.9437  0.0630 -0.1147
 7475TIP3    H243841   2.578   6.620   5.696 -0.4055  0.0279 -0.0840
 7476TIP3   OH243842   6.674   3.381  16.927 -0.3841  0.6464 -0.4032
 7476TIP3    H143843   6.669   3.327  17.006  0.2115  0.5322 -0.4391
 7476TIP3    H243844   6.647   3.323  16.856  0.5483  0.2989 -0.4833
 7477TIP3   OH243845   0.988   0.908  12.976  0.2297  0.0717 -0.1218
 7477TIP3    H143846   0.941   0.907  13.059 -0.3730 -0.6848 -0.4643
 7477TIP3    H243847   0.922   0.934  12.912  0.0009 -1.9210 -0.7553
 7478TIP3   OH243848   1.170   2.222  15.216 -0.1362 -0.1587  0.2057
 7478TIP3    H143849   1.187   2.134  15.249 -0.8162  0.1687  1.4901
 7478TIP3    H243850   1.115   2.208  15.139 -1.8772 -0.8067  1.5105
 7479TIP3   OH243851   2.955   6.677  12.910 -0.1763  0.4347  0.1401
 7479TIP3    H143852   2.910   6.702  12.829  1.9452  0.3367 -1.1344
 7479TIP3    H243853   2.896   6.615  12.952 -1.8655  1.3845 -0.7145
 7480TIP3   OH243854   4.055   6.636  16.314  0.0578  0.3393  0.6789
 7480TIP3    H143855   4.052   6.666  16.223  0.2579 -0.9650  0.2132
 7480TIP3    H243856   4.021   6.547  16.310 -1.4762  0.8129  2.1475
 7481TIP3   OH243857   3.824   1.243   2.098  0.4377 -0.3998 -0.9299
 7481TIP3    H143858   3.824   1.149   2.118 -0.6457  0.1743  2.4034
 7481TIP3    H243859   3.739   1.258   2.056  0.3392 -0.8332 -0.8907
 7482TIP3   OH243860   5.508   6.478   6.115 -0.0860 -0.1132  0.6950
 7482TIP3    H143861   5.555   6.406   6.158  1.2235 -0.8765 -1.8304
 7482TIP3    H243862   5.562   6.501   6.040 -1.5390  2.1345  0.2288
 7483TIP3   OH243863   2.267   0.921  16.140  0.1470  0.2003  0.4767
 7483TIP3    H143864   2.270   0.877  16.055  0.5107 -0.3544  0.7773
 7483TIP3    H243865   2.213   0.864  16.195 -2.0141  1.6322  0.0158
 7484TIP3   OH243866   4.892   1.895  16.609  0.0880 -0.4867  0.6313
 7484TIP3    H143867   4.814   1.944  16.636  1.0181  0.6622  1.3422
 7484TIP3    H243868   4.884   1.810  16.653 -0.2185  0.0408  1.6318
 7485TIP3   OH243869   4.607   4.067  14.554  0.4086  0.5894  0.5710
 7485TIP3    H143870   4.546   4.101  14.489  1.1450  0.2547 -0.3243
 7485TIP3    H243871   4.675   4.134  14.560  0.9966  0.0603  0.0370
 7486TIP3   OH243872   4.424   2.921  17.027 -0.1287 -0.4363  0.0478
 7486TIP3    H143873   4.470   2.838  17.018  0.6369 -0.0139 -0.0678
 7486TIP3    H243874   4.491   2.982  17.058 -0.3713  0.4332 -1.0740
 7487TIP3   OH243875   5.625   2.899  15.660  0.2039  0.0164  0.2884
 7487TIP3    H143876   5.536   2.927  15.680  1.2963  1.6086  3.7587
 7487TIP3    H243877   5.635   2.817  15.709  0.6712 -0.1125 -0.0188
 7488TIP3   OH243878   2.407   2.915  12.797 -0.5336 -0.1904  0.0547
 7488TIP3    H143879   2.328   2.865  12.777 -0.0158 -1.7263  1.5538
 7488TIP3    H243880   2.413   2.913  12.893  0.1808  1.7678  0.0941
 7489TIP3   OH243881   4.762   1.885  16.142  0.1976  0.3546  0.3204
 7489TIP3    H143882   4.708   1.823  16.191 -0.8082  1.0165  0.0787
 7489TIP3    H243883   4.845   1.839  16.128 -0.3498 -0.7368  0.5740
 7490TIP3   OH243884   4.742   3.219   3.559  0.1367 -0.3629 -0.5199
 7490TIP3    H143885   4.753   3.201   3.652 -0.7533 -0.0947 -0.3562
 7490TIP3    H243886   4.825   3.191   3.520  0.2473 -1.1713  0.2488
 7491TIP3   OH243887   3.719   0.205   5.679  0.4096  0.5582 -0.1681
 7491TIP3    H143888   3.683   0.222   5.766  0.5689  0.6398 -0.1181
 7491TIP3    H243889   3.666   0.258   5.620 -0.1394 -0.0063 -0.2051
 7492TIP3   OH243890   5.200   1.177   1.125 -0.4192  0.4496 -0.5305
 7492TIP3    H143891   5.120   1.194   1.175  0.3067 -0.1066  0.8694
 7492TIP3    H243892   5.227   1.263   1.093 -0.9069  0.8163  0.0231
 7493TIP3   OH243893   3.990   5.956   1.679  0.0269  0.0307 -0.6776
 7493TIP3    H143894   3.995   5.862   1.661  1.8115  0.2757 -1.7119
 7493TIP3    H243895   3.912   5.966   1.733  0.5687 -2.2149  0.6373
 7494TIP3   OH243896   3.594   6.551   3.768 -0.3370 -0.9645 -0.0859
 7494TIP3    H143897   3.630   6.491   3.834  0.8795 -0.8420 -0.6261
 7494TIP3    H243898   3.628   6.518   3.685 -0.0843  0.1662 -0.4393
 7495TIP3   OH243899   5.600   0.319  14.325  0.2507  0.0716  0.1407
 7495TIP3    H143900   5.516   0.297  14.284 -0.0258  0.4633  0.4919
 7495TIP3    H243901   5.651   0.357  14.254  0.8163 -1.8379 -0.5375
 7496TIP3   OH243902   3.337   4.538  11.956  0.0133 -0.0143 -0.0424
 7496TIP3    H143903   3.339   4.443  11.950  0.3618 -0.0196  0.1275
 7496TIP3    H243904   3.347   4.568  11.866  1.1144 -0.1285  0.0321
 7497TIP3   OH243905   5.813   5.970  14.052 -0.2001  0.3678 -0.2869
 7497TIP3    H143906   5.797   6.058  14.086 -0.6294  0.1329  0.1411
 7497TIP3    H243907   5.757   5.964  13.975  0.2082  0.6421 -0.6080
 7498TIP3   OH243908   5.830   2.532   6.374 -0.0585 -0.4971  0.1608
 7498TIP3    H143909   5.827   2.443   6.340 -0.9488 -0.1067 -0.8180
 7498TIP3    H243910   5.804   2.524   6.466 -1.5900 -1.0720 -0.3079
 7499TIP3   OH243911   4.382   1.187  16.000 -0.0909  0.1029  0.2414
 7499TIP3    H143912   4.394   1.094  16.018 -0.8466 -0.2183 -0.8686
 7499TIP3    H243913   4.377   1.193  15.905  0.5886  1.3644  0.2651
 7500TIP3   OH243914   5.417   1.756  16.473  0.3537 -0.3706 -0.3191
 7500TIP3    H143915   5.481   1.693  16.441 -0.3033 -1.4784  0.4792
 7500TIP3    H243916   5.355   1.765  16.401  0.5305 -0.5193 -0.4912
 7501TIP3   OH243917   0.436   0.173  16.518 -0.5891 -0.0537  0.3685
 7501TIP3    H143918   0.478   0.128  16.445 -1.9516 -1.4394  0.3903
 7501TIP3    H243919   0.343   0.150  16.511 -1.0067  1.0799  1.6162
 7502TIP3   OH243920   2.053   1.512  15.440 -0.2288 -0.5701  0.3061
 7502TIP3    H143921   2.062   1.586  15.380  0.6208 -0.2767  0.7796
 7502TIP3    H243922   2.017   1.549  15.520 -0.5189 -0.8031  0.2850
 7503TIP3   OH243923   4.052   3.225  12.636  0.3749  0.1215  0.4416
 7503TIP3    H143924   4.062   3.204  12.728 -0.6412  0.2809  0.6063
 7503TIP3    H243925   4.090   3.151  12.589  0.3520 -0.2361  0.9906
 7504TIP3   OH243926   0.224   2.809   3.956 -0.3424 -0.4041 -0.5173
 7504TIP3    H143927   0.170   2.761   4.018 -0.1254  1.7060  1.4492
 7504TIP3    H243928   0.314   2.789   3.981 -0.2466  1.1742  0.5342
 7505TIP3   OH243929   2.453   2.035  12.716  0.3582 -0.3185 -0.3122
 7505TIP3    H143930   2.407   2.118  12.709  0.0949 -0.3599  0.6854
 7505TIP3    H243931   2.408   1.989  12.787  1.4535 -0.6721  0.1819
 7506TIP3   OH243932   1.594   2.028  13.564  0.5467 -0.4752  0.2183
 7506TIP3    H143933   1.576   2.105  13.618 -0.0089  0.1765 -0.8647
 7506TIP3    H243934   1.552   2.046  13.480  1.6898 -1.2985 -0.5786
 7507TIP3   OH243935   3.885   5.989  12.510 -0.4947 -0.1812 -0.2553
 7507TIP3    H143936   3.894   6.084  12.518  1.3873 -0.3115 -0.4271
 7507TIP3    H243937   3.910   5.971  12.419 -1.8611 -0.7638 -0.5408
 7508TIP3   OH243938   3.760   0.268  10.838 -0.6052 -0.5226 -0.1411
 7508TIP3    H143939   3.705   0.190  10.835 -1.8159  0.2456  1.0818
 7508TIP3    H243940   3.704   0.338  10.803 -1.0752  0.6044  2.6314
 7509TIP3   OH243941   0.366   0.869  15.492  0.1147 -0.2192  0.5785
 7509TIP3    H143942   0.284   0.843  15.450  1.3028 -0.6152 -1.6294
 7509TIP3    H243943   0.393   0.948  15.445  2.0228 -1.2638 -0.1743
 7510TIP3   OH243944   1.034   2.398  16.353 -0.0615 -0.8485  0.1601
 7510TIP3    H143945   1.040   2.459  16.427 -1.1787  0.1008 -0.5045
 7510TIP3    H243946   1.123   2.395  16.317 -0.0546  0.6798 -0.0107
 7511TIP3   OH243947   2.740   1.765   2.658 -0.4389 -0.0858 -0.0062
 7511TIP3    H143948   2.773   1.731   2.741 -1.2441  1.5485  1.0492
 7511TIP3    H243949   2.714   1.687   2.609  1.9873 -1.2383  0.3641
 7512TIP3   OH243950   0.861   2.464   5.584  0.2674  0.2939  0.0114
 7512TIP3    H143951   0.833   2.552   5.609  0.2106  0.0356  0.8695
 7512TIP3    H243952   0.900   2.427   5.663  0.0724 -0.5419 -0.2744
 7513TIP3   OH243953   6.416   3.762  11.061 -0.0019  0.0705 -0.2085
 7513TIP3    H143954   6.322   3.750  11.046 -0.8408  1.5068  3.0292
 7513TIP3    H243955   6.437   3.703  11.133  1.5688 -0.0620 -0.7315
 7514TIP3   OH243956   1.404   6.446   2.640 -0.7514  0.3682  0.1909
 7514TIP3    H143957   1.332   6.420   2.582 -0.5496  0.2906 -0.0261
 7514TIP3    H243958   1.369   6.435   2.728 -1.7807  2.4204  0.1164
 7515TIP3   OH243959   3.120   1.160  12.267  0.4241 -0.3187 -0.7670
 7515TIP3    H143960   3.211   1.186  12.279  0.2125  0.3169 -0.4973
 7515TIP3    H243961   3.074   1.242  12.248 -0.2380 -0.5139 -0.0295
 7516TIP3   OH243962   1.268   2.185   5.222  0.3473 -0.2740  0.1269
 7516TIP3    H143963   1.184   2.138   5.223 -0.3005  0.8716  1.6489
 7516TIP3    H243964   1.325   2.132   5.277  0.2527 -0.3900  0.1148
 7517TIP3   OH243965   6.467   2.767   4.793  0.1043 -0.0463  0.2748
 7517TIP3    H143966   6.547   2.790   4.839 -0.8124  0.8126  1.4879
 7517TIP3    H243967   6.493   2.696   4.734  2.4290  2.1885 -1.6354
 7518TIP3   OH243968   3.830   5.505  15.624  0.0085  0.0913  0.1634
 7518TIP3    H143969   3.825   5.528  15.531 -0.2803  0.8942  0.3725
 7518TIP3    H243970   3.792   5.417  15.628 -0.7458  0.3835 -0.3622
 7519TIP3   OH243971   3.548   3.137  10.798 -0.1887 -0.5780  0.0558
 7519TIP3    H143972   3.585   3.078  10.863  1.1702 -0.1703 -0.3089
 7519TIP3    H243973   3.472   3.090  10.763 -1.6040 -0.3683  2.6124
 7520TIP3   OH243974   4.243   2.595  15.078  0.2409 -0.0474 -0.4677
 7520TIP3    H143975   4.180   2.547  15.025 -0.4598 -1.9238  1.8892
 7520TIP3    H243976   4.282   2.658  15.018  0.9589 -3.2758 -3.7145
 7521TIP3   OH243977   2.116   4.878  17.165  0.4461 -0.2664  0.1857
 7521TIP3    H143978   2.173   4.950  17.191 -0.1421  0.7789 -1.2655
 7521TIP3    H243979   2.138   4.807  17.224  0.3846  1.3926  2.3337
 7522TIP3   OH243980   0.580   2.262   1.261  0.3499 -0.3790 -0.3033
 7522TIP3    H143981   0.628   2.186   1.293  1.0885 -0.3599 -1.3457
 7522TIP3    H243982   0.497   2.260   1.310  0.8544 -1.1633  0.5382
 7523TIP3   OH243983   0.334   4.171  17.074 -0.1433 -0.3276  0.0515
 7523TIP3    H143984   0.346   4.262  17.100 -1.9944 -0.0479  0.0981
 7523TIP3    H243985   0.302   4.176  16.984  2.6644 -1.1183 -1.0806
 7524TIP3   OH243986   1.358   2.988   3.802 -0.5584 -0.1772 -0.1119
 7524TIP3    H143987   1.279   2.937   3.821 -0.5984  0.1421  0.6196
 7524TIP3    H243988   1.351   3.066   3.858 -0.0852  0.2194 -0.5857
 7525TIP3   OH243989   1.260   0.491   0.816  0.5508  0.0602  0.2096
 7525TIP3    H143990   1.237   0.552   0.886 -1.4665 -0.6400  0.2152
 7525TIP3    H243991   1.188   0.428   0.815  1.8899 -1.5394 -0.6986
 7526TIP3   OH243992   0.654   4.931   3.336  0.2201 -0.6626 -0.3292
 7526TIP3    H143993   0.602   4.894   3.264  0.2160  0.5438 -0.9681
 7526TIP3    H243994   0.694   5.010   3.298  0.0208  0.1302  1.0623
 7527TIP3   OH243995   4.831   1.470   3.246 -0.2941 -0.2276 -0.1252
 7527TIP3    H143996   4.743   1.459   3.211  0.0178 -0.7055 -0.7881
 7527TIP3    H243997   4.828   1.551   3.295 -1.4626 -0.9186  1.0007
 7528TIP3   OH243998   4.853   3.207   0.562  0.3624  0.4778  0.1274
 7528TIP3    H143999   4.937   3.167   0.542  0.8500  2.6147 -2.7970
 7528TIP3    H244000   4.789   3.136   0.551  1.4901 -0.3894 -1.1120
 7529TIP3   OH244001   1.665   1.744   3.996 -0.7056 -0.0023  0.5078
 7529TIP3    H144002   1.639   1.810   3.932  1.7051  0.3139 -0.2802
 7529TIP3    H244003   1.707   1.794   4.066 -0.7293 -0.5570  0.9242
 7530TIP3   OH244004   2.965   0.080  11.705  0.1901  0.3340 -0.1263
 7530TIP3    H144005   2.983   0.074  11.611  1.3854 -0.1984  0.1149
 7530TIP3    H244006   3.046   0.049  11.746 -0.8408 -0.8800  1.0684
 7531TIP3   OH244007   3.026   1.025  16.157 -0.1981 -0.4025 -0.4045
 7531TIP3    H144008   3.096   1.060  16.211  0.2895 -2.3043  0.2523
 7531TIP3    H244009   2.961   0.991  16.219 -0.6341 -0.6851 -0.9996
 7532TIP3   OH244010   4.668   1.680   2.938 -0.2589 -0.5055  0.4575
 7532TIP3    H144011   4.747   1.734   2.928 -0.2128 -0.5565  0.5533
 7532TIP3    H244012   4.686   1.601   2.886 -0.0823 -0.6998  0.8153
 7533TIP3   OH244013   0.864   1.337   1.090 -0.0679  0.0966 -0.0085
 7533TIP3    H144014   0.804   1.391   1.142 -1.2385 -0.4599 -0.7340
 7533TIP3    H244015   0.890   1.393   1.017 -1.6522 -0.4189 -1.0187
 7534TIP3   OH244016   1.496   0.968  13.209  0.3780  0.2572  0.6954
 7534TIP3    H144017   1.430   1.033  13.231  0.3110  0.4371  0.0060
 7534TIP3    H244018   1.510   0.980  13.115  0.0731 -0.9970  0.4719
 7535TIP3   OH244019   5.938   4.266   3.653 -0.1843 -0.3399 -0.1616
 7535TIP3    H144020   5.937   4.353   3.612  1.7761 -0.7965 -1.3084
 7535TIP3    H244021   5.896   4.209   3.589 -0.0675 -0.5020 -0.0939
 7536TIP3   OH244022   3.522   5.978  13.164  0.0189  0.1076  0.1103
 7536TIP3    H144023   3.571   5.909  13.120  0.9587  1.2402 -0.6757
 7536TIP3    H244024   3.435   5.976  13.124  0.0584 -0.5717  0.0544
 7537TIP3   OH244025   4.658   4.576   2.824 -0.2441  0.7798  0.9665
 7537TIP3    H144026   4.609   4.569   2.742 -0.2365  1.0680  0.9342
 7537TIP3    H244027   4.728   4.638   2.805  0.5935 -0.1886  0.7975
 7538TIP3   OH244028   5.738   2.419  16.618  0.0239 -0.3624 -0.3939
 7538TIP3    H144029   5.644   2.406  16.604  0.3743 -0.9241 -2.6258
 7538TIP3    H244030   5.746   2.512  16.642 -1.0787 -0.2391 -0.4647
 7539TIP3   OH244031   3.687   2.303  14.213 -0.3758  0.2840 -0.6353
 7539TIP3    H144032   3.619   2.344  14.160 -0.4623  1.2239  0.1719
 7539TIP3    H244033   3.717   2.373  14.272  0.0107 -0.5989  0.2456
 7540TIP3   OH244034   4.581   6.351  16.043 -0.0534  0.0880 -0.0637
 7540TIP3    H144035   4.668   6.321  16.016 -1.0358 -0.5101 -2.8909
 7540TIP3    H244036   4.556   6.291  16.113  1.8389  0.3969  0.9397
 7541TIP3   OH244037   4.916   2.638   3.106  0.5441 -0.0318  0.4735
 7541TIP3    H144038   4.951   2.549   3.097 -0.8846 -0.5954  0.0683
 7541TIP3    H244039   4.862   2.635   3.184  2.1227  1.0992  1.6674
 7542TIP3   OH244040   0.801   3.264   1.238  0.1872  0.1776  0.0358
 7542TIP3    H144041   0.811   3.324   1.165  0.6024  0.7617  0.5630
 7542TIP3    H244042   0.739   3.198   1.207  0.0526  0.6433 -0.6950
 7543TIP3   OH244043   0.196   3.361   4.134  0.1584  0.4083 -0.1728
 7543TIP3    H144044   0.232   3.279   4.101 -0.3186 -0.1777  0.7105
 7543TIP3    H244045   0.161   3.405   4.056  0.5778 -0.1424 -0.6796
 7544TIP3   OH244046   1.876   0.807   2.807  0.0660 -0.0466  0.3150
 7544TIP3    H144047   1.806   0.758   2.851 -0.6245  0.8057  0.1927
 7544TIP3    H244048   1.864   0.898   2.836  0.1515  0.3833 -0.9334
 7545TIP3   OH244049   6.500   3.857   1.391 -0.1841 -0.5071  0.6051
 7545TIP3    H144050   6.456   3.865   1.306 -0.5345  0.6516  0.8745
 7545TIP3    H244051   6.563   3.929   1.392  0.5017 -1.1033  0.9433
 7546TIP3   OH244052   4.387   1.265   4.883  0.1553  0.3627  0.3519
 7546TIP3    H144053   4.340   1.342   4.914  1.0053  1.0166  0.0721
 7546TIP3    H244054   4.417   1.289   4.795 -3.0989 -1.8063 -1.5930
 7547TIP3   OH244055   1.902   4.326  12.636  0.3309 -0.1913 -0.3990
 7547TIP3    H144056   1.948   4.406  12.610 -2.3839  1.8338  0.4873
 7547TIP3    H244057   1.948   4.256  12.591  3.3384  1.7373 -0.6286
 7548TIP3   OH244058   4.002   1.360   3.762  0.9856  0.7854 -0.8795
 7548TIP3    H144059   4.062   1.324   3.697  1.4730  2.7744 -1.6251
 7548TIP3    H244060   3.998   1.294   3.831  4.0911  0.5318 -0.7690
 7549TIP3   OH244061   4.809   5.945   0.041 -0.2203 -0.1993 -0.4976
 7549TIP3    H144062   4.827   5.868   0.095 -3.3088 -0.3591  0.5328
 7549TIP3    H244063   4.746   5.914  -0.024 -2.4653  1.5903  0.6708
 7550TIP3   OH244064   2.195   2.059   5.399  0.0739 -0.5529 -0.5005
 7550TIP3    H144065   2.241   2.002   5.338 -0.2210 -0.7874 -0.5073
 7550TIP3    H244066   2.107   2.069   5.361  0.1419 -0.0376 -0.5382
 7551TIP3   OH244067   0.708   5.262   5.958  0.4960  0.4812  0.2440
 7551TIP3    H144068   0.672   5.181   5.922  1.2579 -0.0463  0.6297
 7551TIP3    H244069   0.743   5.308   5.882  2.7833 -0.9756  0.3225
 7552TIP3   OH244070   4.028   0.266   3.981  0.0027 -0.3997 -0.1444
 7552TIP3    H144071   4.077   0.248   4.061 -0.7872  0.6498  0.6127
 7552TIP3    H244072   3.981   0.185   3.962 -1.1002 -0.1813  1.4285
 7553TIP3   OH244073   0.389   3.053   5.695  0.4199  0.0103  0.6212
 7553TIP3    H144074   0.305   3.073   5.737  0.1738 -2.5231  1.4939
 7553TIP3    H244075   0.455   3.086   5.756  0.0708  0.7702  0.5995
 7554TIP3   OH244076   3.096   3.012   4.706 -0.6683  0.4249 -0.0739
 7554TIP3    H144077   3.032   3.079   4.731  0.9712  2.3675 -0.8356
 7554TIP3    H244078   3.124   3.036   4.617  0.4322 -0.9241 -0.1415
 7555TIP3   OH244079   4.711   2.026   4.864 -0.0779 -0.0016  0.5617
 7555TIP3    H144080   4.738   2.112   4.830  0.8808 -0.1730  0.8471
 7555TIP3    H244081   4.668   2.045   4.947 -1.3107  0.3179 -0.1260
 7556TIP3   OH244082   2.220   6.691   3.959  0.3300  0.0389  0.1225
 7556TIP3    H144083   2.267   6.760   4.006  0.8162 -0.3133  0.1542
 7556TIP3    H244084   2.135   6.686   4.003  0.2910  0.6192  0.1171
 7557TIP3   OH244085   4.191   4.017  12.376 -0.2141  0.4851 -0.2230
 7557TIP3    H144086   4.265   4.073  12.353  1.2665 -1.0318  0.6169
 7557TIP3    H244087   4.229   3.931  12.391 -2.2909 -0.5837 -0.6271
 7558TIP3   OH244088   0.535   0.024  16.323 -0.5116 -0.0674 -0.0847
 7558TIP3    H144089   0.617   0.026  16.273  0.1772  2.1196  1.0092
 7558TIP3    H244090   0.468   0.049  16.260  0.4565  3.5092  0.0972
 7559TIP3   OH244091   0.693   0.232   3.063  0.7327 -0.4754 -0.0665
 7559TIP3    H144092   0.669   0.142   3.087  2.5876 -0.9820  0.0544
 7559TIP3    H244093   0.649   0.287   3.128 -1.2374 -1.1848 -0.7225
 7560TIP3   OH244094   6.135   2.906  16.827  0.5104 -0.4473 -0.4569
 7560TIP3    H144095   6.165   2.982  16.777  0.6285  0.2921  0.7166
 7560TIP3    H244096   6.175   2.917  16.913 -1.0556 -0.8011  0.3433
 7561TIP3   OH244097   6.691   5.205  12.825 -0.0871 -0.1247 -0.4616
 7561TIP3    H144098   6.729   5.293  12.819 -0.7462  0.2402  0.4756
 7561TIP3    H244099   6.714   5.175  12.913  1.8863 -1.7611 -1.4274
 7562TIP3   OH244100   6.029   1.411   4.391  0.9267 -0.5180 -0.1973
 7562TIP3    H144101   6.098   1.381   4.332  0.0640 -0.6085 -1.2042
 7562TIP3    H244102   5.972   1.335   4.402 -1.3245  0.6220 -2.8316
 7563TIP3   OH244103   1.532   6.377   0.690 -0.2536 -0.4856  0.4703
 7563TIP3    H144104   1.480   6.314   0.641 -0.1635 -0.4781  0.3662
 7563TIP3    H244105   1.599   6.324   0.733 -0.3661 -0.4996  0.6292
 7564TIP3   OH244106   4.398   0.248  11.127 -0.4201  0.3061  0.4108
 7564TIP3    H144107   4.325   0.245  11.065 -2.8212  0.3487  3.0232
 7564TIP3    H244108   4.388   0.332  11.172 -1.6503 -1.4615  3.8395
 7565TIP3   OH244109   5.168   2.988  12.057  0.6470 -0.8757 -0.5494
 7565TIP3    H144110   5.223   3.017  12.130  1.2244 -1.4547 -0.7451
 7565TIP3    H244111   5.087   2.957  12.098  0.7141 -0.5982 -0.2091
 7566TIP3   OH244112   4.402   6.666   1.085 -0.1614  0.4616 -0.0214
 7566TIP3    H144113   4.343   6.591   1.090 -0.4241  0.4398 -2.4956
 7566TIP3    H244114   4.446   6.667   1.170  0.8896 -3.3246 -0.3350
 7567TIP3   OH244115   5.486   4.091  14.303 -0.0562  0.1887  0.2410
 7567TIP3    H144116   5.541   4.127  14.372 -0.4728 -0.3298  0.8554
 7567TIP3    H244117   5.546   4.042  14.247  0.6199  2.2038 -0.9105
 7568TIP3   OH244118   0.901   3.094  14.915 -0.5165 -0.0812 -0.1981
 7568TIP3    H144119   0.826   3.073  14.971  1.1083 -1.0050  1.7633
 7568TIP3    H244120   0.895   3.033  14.842 -0.0731 -2.2898  1.5083
 7569TIP3   OH244121   6.023   0.762  15.292  0.2898 -0.4786  0.2573
 7569TIP3    H144122   6.091   0.719  15.240  1.4023  0.9216  0.4980
 7569TIP3    H244123   5.967   0.690  15.320  0.2827 -1.4229 -1.9100
 7570TIP3   OH244124   5.541   2.817   0.581 -0.2082  0.2026  0.0143
 7570TIP3    H144125   5.454   2.779   0.574  0.2453 -0.8193 -0.2896
 7570TIP3    H244126   5.530   2.908   0.555 -0.7987 -0.4489 -2.2516
 7571TIP3   OH244127   3.627   2.285   0.987 -0.6147 -0.0411  0.0922
 7571TIP3    H144128   3.556   2.350   0.990  0.0187  0.6523  0.3411
 7571TIP3    H244129   3.585   2.206   0.952 -1.3401  0.5779 -0.4904
 7572TIP3   OH244130   1.642   0.788   4.281 -0.1341  0.1065  0.2744
 7572TIP3    H144131   1.696   0.787   4.359 -1.1120  1.4801  1.0068
 7572TIP3    H244132   1.692   0.838   4.216  0.5786 -0.8447  0.0803
 7573TIP3   OH244133   1.752   1.617  15.157  0.1146  0.1401 -0.2038
 7573TIP3    H144134   1.843   1.638  15.177  0.5319 -1.1718 -0.6354
 7573TIP3    H244135   1.724   1.559  15.228 -0.5474  0.9097  0.1809
 7574TIP3   OH244136   6.632   5.934  13.231  0.1057  0.4553  0.1582
 7574TIP3    H144137   6.604   5.902  13.146  1.1084 -1.4157  0.4782
 7574TIP3    H244138   6.633   5.857  13.287  1.2242  1.3052  1.3872
 7575TIP3   OH244139   1.787   0.388  10.836 -0.7377 -0.2877  0.2936
 7575TIP3    H144140   1.692   0.387  10.830 -0.8100 -0.6995  1.3170
 7575TIP3    H244141   1.815   0.306  10.796 -0.8329 -0.2792  0.2111
 7576TIP3   OH244142   6.748   5.046  17.212 -0.1456 -0.4760 -0.3462
 7576TIP3    H144143   6.751   5.056  17.307 -0.2447 -2.3805 -0.1080
 7576TIP3    H244144   6.734   5.135  17.180 -1.6021  0.0433  1.4916
 7577TIP3   OH244145   1.029   3.179   4.362  0.1645 -0.3346  0.4769
 7577TIP3    H144146   0.980   3.101   4.336 -0.1382  0.1387 -0.4256
 7577TIP3    H244147   0.966   3.251   4.357  0.7477  0.1647  0.0481
 7578TIP3   OH244148   4.677   6.536   5.132 -0.0028  0.2682  0.0448
 7578TIP3    H144149   4.655   6.558   5.041  0.0180 -0.8111 -0.2342
 7578TIP3    H244150   4.767   6.567   5.143  0.2045 -0.1128 -0.5008
 7579TIP3   OH244151   0.480   1.225  16.777 -0.5879  0.0370  0.0717
 7579TIP3    H144152   0.527   1.147  16.807 -1.4154 -0.4062  0.2617
 7579TIP3    H244153   0.482   1.284  16.852  0.1639  0.2567 -0.1201
 7580TIP3   OH244154   0.568   5.150  12.823 -0.2571  0.6846 -0.6628
 7580TIP3    H144155   0.662   5.164  12.821 -0.1226 -0.3439 -2.0142
 7580TIP3    H244156   0.532   5.235  12.851  1.0067  1.2958 -0.8579
 7581TIP3   OH244157   5.731   4.003  10.705  0.4110 -0.0780  0.3896
 7581TIP3    H144158   5.737   4.043  10.618  1.2138  0.9015  0.8816
 7581TIP3    H244159   5.645   3.961  10.706 -0.9070  2.4251  0.1835
 7582TIP3   OH244160   4.649   3.343  17.295 -0.0831  0.2944  0.1312
 7582TIP3    H144161   4.615   3.403  17.228  1.7141  2.8883  1.4067
 7582TIP3    H244162   4.603   3.367  17.375 -0.7508 -1.4417  0.3320
 7583TIP3   OH244163   0.601   5.117  11.354  0.6433 -1.0846  1.0545
 7583TIP3    H144164   0.673   5.180  11.364 -1.5665  1.5335  1.4730
 7583TIP3    H244165   0.602   5.067  11.435  0.3489  0.8118  2.3038
 7584TIP3   OH244166   1.849   3.503  12.294  0.3934 -0.0270  0.1186
 7584TIP3    H144167   1.846   3.573  12.230  0.1524 -1.1913 -1.1991
 7584TIP3    H244168   1.767   3.512  12.343 -0.2989 -0.1865 -0.9636
 7585TIP3   OH244169   1.215   1.035   0.097 -0.6112  0.5621 -0.6425
 7585TIP3    H144170   1.306   1.031   0.068 -1.1908 -0.3689 -2.5323
 7585TIP3    H244171   1.220   1.035   0.192  1.3516  0.2961 -0.6958
 7586TIP3   OH244172   5.204   1.432   1.961  0.4048 -0.4887 -0.0582
 7586TIP3    H144173   5.116   1.399   1.976  0.1972 -0.1435 -0.5144
 7586TIP3    H244174   5.193   1.525   1.942  0.9622 -0.2071  0.9243
 7587TIP3   OH244175   1.844   0.919  11.269 -0.2506  0.3629 -0.2692
 7587TIP3    H144176   1.805   1.006  11.281 -0.3126  0.4019 -0.7268
 7587TIP3    H244177   1.848   0.882  11.357  0.2737  1.0449  0.0082
 7588TIP3   OH244178   4.227   1.250  13.921 -0.6420 -0.5077 -0.2701
 7588TIP3    H144179   4.132   1.248  13.911 -0.5300 -3.0341 -1.3844
 7588TIP3    H244180   4.261   1.204  13.845  1.6015  1.4127 -0.5764
 7589TIP3   OH244181   5.046   0.179   2.579  0.0915  0.5841  0.4419
 7589TIP3    H144182   5.114   0.130   2.534 -0.7954 -1.1265  0.8676
 7589TIP3    H244183   5.016   0.244   2.515 -0.6621 -1.3194 -1.2442
 7590TIP3   OH244184   3.021   4.720   4.027 -0.0228  0.4128 -0.6021
 7590TIP3    H144185   3.076   4.746   4.101  1.8698 -2.8650 -0.6738
 7590TIP3    H244186   2.949   4.783   4.028  0.6837  1.4052  3.0868
 7591TIP3   OH244187   6.409   1.953   1.574 -0.4605  0.1060 -0.5877
 7591TIP3    H144188   6.344   1.885   1.594  0.6789 -0.4015  1.6070
 7591TIP3    H244189   6.363   2.036   1.590 -0.9567 -0.2085 -0.3735
 7592TIP3   OH244190   3.939   2.864  14.746  0.0544  0.1937  0.2000
 7592TIP3    H144191   3.873   2.871  14.815  0.3589  0.5593  0.4516
 7592TIP3    H244192   3.896   2.812  14.678  0.2221 -1.3470  1.2312
 7593TIP3   OH244193   3.327   5.506  12.457  0.2816 -0.8485 -0.0514
 7593TIP3    H144194   3.336   5.460  12.373 -0.0268  0.6121 -0.9205
 7593TIP3    H244195   3.302   5.595  12.432  0.4480 -0.3244  1.5980
 7594TIP3   OH244196   3.696   2.704  11.440 -0.0082 -0.1423 -0.2032
 7594TIP3    H144197   3.740   2.729  11.359  0.7636  0.3609  0.3638
 7594TIP3    H244198   3.753   2.737  11.510 -0.5588 -0.7427  0.5470
 7595TIP3   OH244199   6.700   4.142   0.932 -0.2249 -0.0472 -0.2739
 7595TIP3    H144200   6.732   4.232   0.940  1.9660 -0.7120 -0.6997
 7595TIP3    H244201   6.608   4.146   0.957 -0.3019  2.3800 -0.7551
 7596TIP3   OH244202   1.531   1.460  15.659 -0.3396 -0.3420  0.3584
 7596TIP3    H144203   1.621   1.490  15.647  0.2159 -1.4971  1.3814
 7596TIP3    H244204   1.493   1.522  15.722 -0.3264  0.2694 -0.2373
 7597TIP3   OH244205   1.170   4.944  15.984 -0.0794 -0.1750 -0.0071
 7597TIP3    H144206   1.221   4.945  16.065  2.0938 -0.5283 -1.2645
 7597TIP3    H244207   1.167   5.036  15.957  0.2812 -0.2007 -0.1415
 7598TIP3   OH244208   4.876   5.227  13.321  0.1378  0.4811 -0.0011
 7598TIP3    H144209   4.939   5.164  13.286 -1.5044 -0.3926 -1.5963
 7598TIP3    H244210   4.808   5.172  13.361 -0.1727  1.3435  0.6806
 7599TIP3   OH244211   1.474   5.357  13.078  0.2044 -0.3178 -0.9378
 7599TIP3    H144212   1.490   5.448  13.055 -0.3564  0.1267  0.3631
 7599TIP3    H244213   1.539   5.336  13.145  0.8461 -1.1290 -1.7891
 7600TIP3   OH244214   5.390   4.481  16.004 -0.3088 -0.6076  0.2917
 7600TIP3    H144215   5.328   4.550  15.982 -1.5160 -1.5297  0.6822
 7600TIP3    H244216   5.431   4.510  16.085 -1.1239 -0.5300  0.6910
 7601TIP3   OH244217   3.109   2.734  15.819  0.0255 -0.2932 -0.0279
 7601TIP3    H144218   3.139   2.714  15.730  1.9184 -0.8271  0.6757
 7601TIP3    H244219   3.046   2.664  15.839  0.9131 -1.2063 -0.3324
 7602TIP3   OH244220   5.240   2.034  15.556  0.2552  0.2741 -0.2555
 7602TIP3    H144221   5.293   1.981  15.615  0.0304  1.1694  0.7821
 7602TIP3    H244222   5.303   2.084  15.505  0.4420  0.3172  0.0124
 7603TIP3   OH244223   4.382   4.653  16.138 -0.0984 -0.3344 -0.6289
 7603TIP3    H144224   4.297   4.644  16.095 -0.8604  2.7749 -0.0790
 7603TIP3    H244225   4.362   4.701  16.219  2.0801 -0.1626 -0.1433
 7604TIP3   OH244226   4.122   6.494  13.928 -0.0689 -1.2655  0.4218
 7604TIP3    H144227   4.174   6.532  13.998  0.1112 -0.6951 -0.0104
 7604TIP3    H244228   4.148   6.402  13.925  2.1134 -0.6729 -0.8216
 7605TIP3   OH244229   5.164   3.732  14.647  0.6097  0.4247 -0.2451
 7605TIP3    H144230   5.149   3.721  14.553  1.0152 -0.6961 -0.1972
 7605TIP3    H244231   5.089   3.783  14.678  1.0083  1.7229 -1.3423
 7606TIP3   OH244232   6.198   3.157  12.236 -0.5581  0.4814  0.0537
 7606TIP3    H144233   6.272   3.216  12.250 -0.7215  0.3326  1.7878
 7606TIP3    H244234   6.128   3.193  12.291 -1.5982  0.2962 -1.1056
 7607TIP3   OH244235   1.512   0.883  12.812  0.0514 -0.7613  0.1987
 7607TIP3    H144236   1.595   0.908  12.772 -1.0212 -0.1552 -1.7680
 7607TIP3    H244237   1.481   0.964  12.853  1.3055 -1.4558  2.7318
 7608TIP3   OH244238   5.944   6.598  15.589  0.6613 -0.3013  0.7588
 7608TIP3    H144239   6.034   6.569  15.578  0.4676 -1.0370  1.0567
 7608TIP3    H244240   5.949   6.669  15.653  1.3126  1.3330 -0.9982
 7609TIP3   OH244241   2.052   3.821   1.851  0.0545  0.2770 -0.1850
 7609TIP3    H144242   1.974   3.766   1.843 -0.3900  0.8437  0.1754
 7609TIP3    H244243   2.124   3.764   1.827 -0.1801 -1.0197  1.9562
 7610TIP3   OH244244   3.827   1.971  13.396 -0.1974  0.1379  0.1087
 7610TIP3    H144245   3.915   1.999  13.372 -0.0811 -0.1078  0.2473
 7610TIP3    H244246   3.785   2.051  13.428 -0.2245  0.3796 -0.5204
 7611TIP3   OH244247   5.176   3.215   1.416  0.3457  0.3555 -0.2381
 7611TIP3    H144248   5.179   3.253   1.503  1.8751  1.0208 -0.5412
 7611TIP3    H244249   5.219   3.281   1.360  0.0970 -0.3960 -1.3402
 7612TIP3   OH244250   1.930   3.273   0.338 -0.2713 -0.9743 -0.8859
 7612TIP3    H144251   1.960   3.353   0.296  0.5073 -0.0223  1.3323
 7612TIP3    H244252   1.845   3.295   0.375 -1.1753 -1.9471 -2.2424
 7613TIP3   OH244253   1.296   5.952   5.479 -0.7523 -0.6672  0.8166
 7613TIP3    H144254   1.388   5.949   5.506  0.1226 -0.3302 -1.8339
 7613TIP3    H244255   1.257   6.020   5.535  1.0151  0.3247  0.9318
 7614TIP3   OH244256   5.425   4.950   3.718 -0.9870 -0.2393  0.1083
 7614TIP3    H144257   5.402   4.929   3.808  0.5144  1.4568  0.9537
 7614TIP3    H244258   5.356   5.010   3.689 -0.9272  0.0216  0.4941
 7615TIP3   OH244259   0.767   0.565   2.665 -0.2615  0.0872  0.4245
 7615TIP3    H144260   0.849   0.603   2.697  0.0665  0.7801 -1.1211
 7615TIP3    H244261   0.746   0.496   2.728  2.2925 -1.1050  0.0754
 7616TIP3   OH244262   2.019   3.511  13.910  0.3813  1.2043  0.2576
 7616TIP3    H144263   1.925   3.522  13.893  0.8316  2.4683 -1.6923
 7616TIP3    H244264   2.029   3.417  13.925 -0.9196  0.7119 -1.6004
 7617TIP3   OH244265   3.105   6.140   4.617 -0.2073 -0.1943 -0.6910
 7617TIP3    H144266   3.176   6.076   4.617 -0.0746 -0.0632  0.1319
 7617TIP3    H244267   3.048   6.112   4.689 -0.6653  0.0530 -0.9527
 7618TIP3   OH244268   3.354   6.680  16.032 -0.4007  0.1933 -0.9540
 7618TIP3    H144269   3.410   6.640  16.099  0.8624  0.5023 -1.8024
 7618TIP3    H244270   3.272   6.697  16.078  0.8911  1.7805  0.9711
 7619TIP3   OH244271   1.344   6.173  14.438 -0.0142  0.0274 -0.6733
 7619TIP3    H144272   1.370   6.092  14.482  1.6789  1.4467  1.1487
 7619TIP3    H244273   1.396   6.173  14.357  0.6813 -0.3062 -0.2432
 7620TIP3   OH244274   4.157   2.009   4.477 -0.8586 -0.0855  0.1047
 7620TIP3    H144275   4.238   1.985   4.520  0.7481  2.0513 -1.5094
 7620TIP3    H244276   4.088   1.983   4.539  1.0992 -0.5695  2.2027
 7621TIP3   OH244277   6.194   2.384   5.447  0.8358  0.7503 -0.1583
 7621TIP3    H144278   6.282   2.361   5.476  1.7035  1.9582 -1.6537
 7621TIP3    H244279   6.198   2.377   5.351 -1.3423 -1.2758 -0.2022
 7622TIP3   OH244280   3.471   0.160   2.925 -0.5883  0.0034 -0.0626
 7622TIP3    H144281   3.524   0.149   3.003  1.8084  0.7492 -1.4894
 7622TIP3    H244282   3.458   0.255   2.918 -2.0279 -0.1462  0.1565
 7623TIP3   OH244283   0.098   1.815  12.512 -0.1710  0.2090 -0.0108
 7623TIP3    H144284   0.144   1.865  12.445  2.2996  2.0742  2.8454
 7623TIP3    H244285   0.068   1.736  12.466  2.0324  0.9725 -3.0901
 7624TIP3   OH244286   1.191   5.103   2.868 -0.7273  0.0887  0.0711
 7624TIP3    H144287   1.145   5.052   2.801 -1.6818 -0.2040  0.9126
 7624TIP3    H244288   1.218   5.183   2.824 -1.3629 -0.0901 -0.6588
 7625TIP3   OH244289   6.370   1.649   1.143 -0.1529 -0.6068 -0.0384
 7625TIP3    H144290   6.389   1.577   1.083 -2.6311 -0.9991 -0.4473
 7625TIP3    H244291   6.455   1.673   1.178  0.9782 -2.5175 -1.2666
 7626TIP3   OH244292   4.346   2.536   0.989 -0.7703 -0.0866  0.0374
 7626TIP3    H144293   4.404   2.598   1.034 -2.2536  0.4292  1.3318
 7626TIP3    H244294   4.277   2.591   0.952 -1.3963 -0.8294  0.0688
 7627TIP3   OH244295   4.542   3.159   2.481  0.2346 -0.2813 -0.0665
 7627TIP3    H144296   4.462   3.197   2.518  0.4937 -0.5984  0.8433
 7627TIP3    H244297   4.547   3.071   2.519  0.6537 -0.5169 -0.6572
 7628TIP3   OH244298   6.393   6.118   5.121 -0.4821 -0.1088 -0.2680
 7628TIP3    H144299   6.378   6.178   5.194  0.1455 -1.0867  0.6881
 7628TIP3    H244300   6.485   6.131   5.098 -1.0379  1.2805 -1.9152
 7629TIP3   OH244301   4.164   4.446  17.292  0.3304  0.0009  0.7080
 7629TIP3    H144302   4.149   4.433  17.199 -0.1057  0.3930  0.7204
 7629TIP3    H244303   4.235   4.385  17.314  1.4860  0.9526 -0.1986
 7630TIP3   OH244304   4.333   0.775  16.325  0.8956 -0.1818  0.8016
 7630TIP3    H144305   4.278   0.704  16.359 -0.0777  0.4118  0.4872
 7630TIP3    H244306   4.369   0.740  16.244  1.6753 -0.8819  1.4249
 7631TIP3   OH244307   4.375   5.526  14.295 -0.1020 -0.5551 -0.1208
 7631TIP3    H144308   4.375   5.470  14.218  1.0841 -0.1874 -0.4029
 7631TIP3    H244309   4.375   5.615  14.260  3.0468 -0.3132  0.1790
 7632TIP3   OH244310   3.391   1.376  12.012  0.4223  0.0155  0.0858
 7632TIP3    H144311   3.343   1.303  12.050 -1.1606  0.0332 -1.7243
 7632TIP3    H244312   3.467   1.387  12.069 -0.8586 -1.0773  2.1401
 7633TIP3   OH244313   1.624   4.274   0.509  0.1597 -0.0386 -0.1652
 7633TIP3    H144314   1.621   4.269   0.604 -0.5140 -0.8174 -0.2067
 7633TIP3    H244315   1.717   4.277   0.487  0.3324 -0.4521  0.4965
 7634TIP3   OH244316   3.094   4.786  13.656  0.3966 -0.0715  0.1561
 7634TIP3    H144317   3.032   4.824  13.719 -0.2634 -0.9975  0.0787
 7634TIP3    H244318   3.081   4.837  13.576  0.0625  0.0477  0.2822
 7635TIP3   OH244319   6.591   5.746   4.962  0.3699  0.6781  0.6434
 7635TIP3    H144320   6.626   5.695   4.889 -0.1323 -0.1608  0.9723
 7635TIP3    H244321   6.565   5.829   4.923 -2.2175 -0.6371 -0.6978
 7636TIP3   OH244322   3.626   3.384   0.217 -0.3219 -0.6207  0.2464
 7636TIP3    H144323   3.547   3.414   0.263 -1.1494  0.7400 -1.8946
 7636TIP3    H244324   3.662   3.464   0.178  1.2498 -1.4668 -0.0988
 7637TIP3   OH244325   5.816   1.070  16.161  0.6419  0.8636  0.6808
 7637TIP3    H144326   5.799   0.987  16.118 -1.0709  1.7220 -0.3798
 7637TIP3    H244327   5.895   1.103  16.118  1.5179 -0.3031  1.3215
 7638TIP3   OH244328   5.510   2.062   4.328 -0.6037  0.2033  0.1996
 7638TIP3    H144329   5.472   2.099   4.249  1.3857 -0.4115 -1.1206
 7638TIP3    H244330   5.462   2.104   4.400 -1.2669  2.1213 -1.2763
 7639TIP3   OH244331   6.012   5.919   4.236  0.0926  0.1125  0.0109
 7639TIP3    H144332   5.981   6.008   4.252 -0.9247 -0.0716 -0.7879
 7639TIP3    H244333   5.975   5.896   4.151 -1.4423 -1.8339  1.1169
 7640TIP3   OH244334   4.784   3.795   5.230 -0.2215  0.5421  0.2779
 7640TIP3    H144335   4.723   3.795   5.304  0.9705  0.2964  1.2955
 7640TIP3    H244336   4.849   3.861   5.252  0.9579 -0.5344  0.1663
 7641TIP3   OH244337   0.465   5.504  12.718 -0.1404 -0.1718  0.1165
 7641TIP3    H144338   0.406   5.471  12.651 -0.7561 -2.0964  1.5262
 7641TIP3    H244339   0.430   5.591  12.740 -1.6521 -0.7078 -0.0395
 7642TIP3   OH244340   4.394   5.822   2.112 -0.3851  0.3909 -0.0684
 7642TIP3    H144341   4.434   5.874   2.043  1.8521  0.3456  1.1047
 7642TIP3    H244342   4.401   5.732   2.081  0.6898  0.3629  0.2146
 7643TIP3   OH244343   4.564   1.481   2.703  0.2172  0.2590 -0.0180
 7643TIP3    H144344   4.481   1.434   2.705  0.0634  0.4246 -1.5122
 7643TIP3    H244345   4.545   1.562   2.655  1.0496  0.6876  0.3524
 7644TIP3   OH244346   6.046   6.048   5.630 -0.7266  0.7799  0.0805
 7644TIP3    H144347   6.134   6.033   5.595 -1.7512 -0.5701 -2.1192
 7644TIP3    H244348   6.046   6.141   5.656  1.7598  0.4506  1.6053
 7645TIP3   OH244349   0.357   3.776   3.975 -0.0297  0.1850 -0.2428
 7645TIP3    H144350   0.451   3.790   3.985  0.2429 -0.6474 -1.3938
 7645TIP3    H244351   0.325   3.852   3.927 -0.3955  1.5989  2.1079
 7646TIP3   OH244352   3.973   5.405   1.611  0.3467 -0.4365 -0.1668
 7646TIP3    H144353   3.930   5.326   1.579 -2.0444  0.5015  0.4738
 7646TIP3    H244354   3.924   5.428   1.690  2.3075  0.5610  0.8319
 7647TIP3   OH244355   3.312   5.705   2.176 -0.6962 -0.0062 -0.1475
 7647TIP3    H144356   3.311   5.756   2.257 -2.1996  0.2139 -0.2858
 7647TIP3    H244357   3.245   5.745   2.121  0.5248  0.0424 -1.6448
 7648TIP3   OH244358   4.426   0.368  10.681 -0.2950  0.2177  0.1488
 7648TIP3    H144359   4.473   0.368  10.765  0.0238  0.1337 -0.0275
 7648TIP3    H244360   4.494   0.383  10.615 -0.7967  2.5634  0.0503
 7649TIP3   OH244361   0.718   2.724   5.612  0.2800  0.0204  0.0935
 7649TIP3    H144362   0.660   2.689   5.680 -1.5436  1.2422 -0.7731
 7649TIP3    H244363   0.721   2.818   5.630  1.9290  0.0075  0.0292
 7650TIP3   OH244364   1.161   2.193   4.701 -0.4659  0.3265  0.4700
 7650TIP3    H144365   1.193   2.176   4.790  2.1701  1.2806 -0.2285
 7650TIP3    H244366   1.088   2.254   4.714 -0.0534  0.5462  1.9823
 7651TIP3   OH244367   0.807   1.488  17.124  0.1372  0.0413  0.7308
 7651TIP3    H144368   0.867   1.562  17.115 -1.2064  0.8789 -4.0038
 7651TIP3    H244369   0.731   1.524  17.171  0.2429  1.1595  0.0741
 7652TIP3   OH244370   5.023   0.339  14.102 -0.2338 -0.6423 -0.0346
 7652TIP3    H144371   4.957   0.307  14.041 -0.7347  0.1171  0.0942
 7652TIP3    H244372   4.974   0.359  14.182 -0.1793  1.5504 -0.4775
 7653TIP3   OH244373   4.489   4.421   3.760 -0.2994  0.1146 -0.1003
 7653TIP3    H144374   4.428   4.495   3.749 -0.1074  0.8162  2.8224
 7653TIP3    H244375   4.572   4.454   3.725 -0.3196  1.1854  0.7805
 7654TIP3   OH244376   5.621   4.142  16.288  0.0393  0.0322  0.3965
 7654TIP3    H144377   5.545   4.184  16.247 -0.9277  0.0193  2.0442
 7654TIP3    H244378   5.606   4.048  16.275  0.1248  0.0560  0.1295
 7655TIP3   OH244379   5.165   1.377   1.376  0.0999 -0.3329 -0.0015
 7655TIP3    H144380   5.112   1.455   1.390  0.0730 -0.0864 -1.3896
 7655TIP3    H244381   5.101   1.306   1.367 -0.0154 -0.0449 -1.6147
 7656TIP3   OH244382   0.145   4.284  16.843  0.3534 -0.5828  0.5051
 7656TIP3    H144383   0.211   4.242  16.789  0.2560 -1.1844  0.8441
 7656TIP3    H244384   0.167   4.377  16.841  1.8564 -0.8866  1.4775
 7657TIP3   OH244385   4.475   0.092   2.531  0.3066  0.3535  0.4294
 7657TIP3    H144386   4.452   0.088   2.438  0.6055  1.5379  0.2852
 7657TIP3    H244387   4.571   0.089   2.532  0.2663 -1.4277  0.8255
 7658TIP3   OH244388   1.843   2.179  11.065  0.1719  0.3016  0.0711
 7658TIP3    H144389   1.828   2.128  10.986  0.4569 -1.4886  1.1255
 7658TIP3    H244390   1.779   2.251  11.059 -2.5258 -1.9215 -0.0050
 7659TIP3   OH244391   6.327   3.601  13.645 -0.5482 -0.0632 -0.4872
 7659TIP3    H144392   6.378   3.574  13.721  0.6210  2.9557 -0.0420
 7659TIP3    H244393   6.239   3.568  13.662  0.4156 -2.3345  0.4894
 7660TIP3   OH244394   0.664   3.368   1.926 -0.3790 -0.2965  0.4741
 7660TIP3    H144395   0.612   3.294   1.894  0.8589 -0.9786 -0.0586
 7660TIP3    H244396   0.755   3.336   1.921  0.0314  0.5083  2.2381
 7661TIP3   OH244397   0.359   3.340   4.404 -0.1258 -0.0403 -0.2656
 7661TIP3    H144398   0.331   3.385   4.324  0.8453  1.0475 -0.0171
 7661TIP3    H244399   0.285   3.284   4.427 -1.0366  0.7930 -1.0678
 7662TIP3   OH244400   1.381   2.881  11.941 -0.2405  0.1669  0.5037
 7662TIP3    H144401   1.368   2.827  11.863  1.2430  0.0224  0.3310
 7662TIP3    H244402   1.392   2.818  12.012  0.2235  0.2490  0.5112
 7663TIP3   OH244403   5.076   3.101  11.323  0.2902 -0.1297  0.1409
 7663TIP3    H144404   5.089   3.013  11.360  1.1640  0.0677  0.3212
 7663TIP3    H244405   5.159   3.122  11.281 -0.2172  0.2433 -0.7101
 7664TIP3   OH244406   1.662   2.937   4.533 -0.9115 -0.2293 -0.4590
 7664TIP3    H144407   1.654   2.940   4.628 -0.6800  0.0971 -0.4492
 7664TIP3    H244408   1.745   2.892   4.517 -0.4659  0.5882 -0.4889
 7665TIP3   OH244409   4.067   2.643  11.816  0.5974  0.3781 -0.0580
 7665TIP3    H144410   4.155   2.623  11.850  0.5374 -0.2276 -0.2586
 7665TIP3    H244411   4.025   2.691  11.888  1.0771  0.6467  0.0520
 7666TIP3   OH244412   1.555   2.859   3.942 -0.5947 -0.1303  0.3637
 7666TIP3    H144413   1.497   2.815   4.004 -0.3294 -2.1938 -0.7491
 7666TIP3    H244414   1.497   2.895   3.875 -0.6997 -1.5821 -0.3734
 7667TIP3   OH244415   4.819   4.469  15.765  0.5383  0.2021 -1.0682
 7667TIP3    H144416   4.729   4.492  15.740 -1.4868 -3.4500  1.8786
 7667TIP3    H244417   4.842   4.396  15.707  1.5512  0.9358 -1.6178
 7668TIP3   OH244418   4.230   2.269  15.953  0.4850 -0.1087 -0.6757
 7668TIP3    H144419   4.206   2.237  15.866 -0.1359 -0.0225 -0.5438
 7668TIP3    H244420   4.208   2.197  16.012 -0.3970  0.3328 -0.4434
 7669TIP3   OH244421   1.815   5.190  16.972  0.4288 -0.6205 -0.4119
 7669TIP3    H144422   1.862   5.261  16.928  0.1072  0.0644  0.3224
 7669TIP3    H244423   1.883   5.142  17.019  0.5651 -0.3802 -0.3588
 7670TIP3   OH244424   4.292   2.319   2.641 -0.6147  0.0491  0.0809
 7670TIP3    H144425   4.302   2.229   2.612 -0.0970 -0.6544  2.2916
 7670TIP3    H244426   4.202   2.326   2.671 -0.1181 -0.3761  1.7986
 7671TIP3   OH244427   1.397   1.609   1.815  0.3282 -0.3883  0.0932
 7671TIP3    H144428   1.353   1.640   1.895 -0.2989 -2.2957  0.5340
 7671TIP3    H244429   1.332   1.553   1.772  1.5765 -1.5621 -0.3469
 7672TIP3   OH244430   6.565   5.970   1.898 -0.7339 -0.2364 -0.3222
 7672TIP3    H144431   6.479   5.980   1.856 -0.3167 -0.4339 -1.2694
 7672TIP3    H244432   6.601   5.891   1.857 -0.4322 -0.6097  0.6561
 7673TIP3   OH244433   4.551   4.850  14.308  0.2537 -0.2432  0.0304
 7673TIP3    H144434   4.535   4.766  14.264  0.8662 -0.7809  0.8103
 7673TIP3    H244435   4.638   4.876  14.279  0.6031 -0.5308  0.7865
 7674TIP3   OH244436   5.385   2.573  15.964  0.6635 -0.4757 -0.2534
 7674TIP3    H144437   5.422   2.489  15.938 -0.4712 -0.6707 -1.3844
 7674TIP3    H244438   5.306   2.551  16.013  1.9631 -0.0712  2.1497
 7675TIP3   OH244439   3.035   5.439  17.194 -0.3524  0.7744  0.1065
 7675TIP3    H144440   3.108   5.436  17.255 -0.0477  2.7172 -0.0892
 7675TIP3    H244441   2.957   5.432  17.249 -0.1002 -2.4974  0.2202
 7676TIP3   OH244442   4.939   6.645   5.124 -0.0220  0.5743 -0.2083
 7676TIP3    H144443   4.905   6.734   5.126  0.1038  0.6181 -0.0335
 7676TIP3    H244444   5.032   6.654   5.144  0.4016  0.5986 -2.0074
 7677TIP3   OH244445   5.217   3.478   1.979 -0.5628 -0.6078 -0.2455
 7677TIP3    H144446   5.281   3.424   1.933  1.4186  1.3560  0.0321
 7677TIP3    H244447   5.203   3.553   1.920 -2.5177 -0.9021 -0.2113
 7678TIP3   OH244448   1.559   0.710  13.036  0.0755  0.2087 -0.0652
 7678TIP3    H144449   1.504   0.752  13.101  0.5655 -0.3253  0.7103
 7678TIP3    H244450   1.565   0.774  12.965  0.5141  1.3184  0.9268
 7679TIP3   OH244451   1.625   5.872  16.024  0.2371  1.0308 -0.4905
 7679TIP3    H144452   1.700   5.843  15.972  0.6536 -2.0315  1.5938
 7679TIP3    H244453   1.656   5.950  16.070  2.1590 -0.1711  0.3188
 7680TIP3   OH244454   2.337   6.681   3.199 -0.3502 -0.5098  0.2049
 7680TIP3    H144455   2.300   6.759   3.241  0.8212  1.2725 -1.8543
 7680TIP3    H244456   2.405   6.652   3.259 -0.0958  0.7029  0.5350
 7681TIP3   OH244457   4.415   1.721   5.241  0.3327  0.0957  0.4132
 7681TIP3    H144458   4.505   1.692   5.225  0.3266 -2.4500  4.0043
 7681TIP3    H244459   4.365   1.681   5.170  1.8390  0.6777 -1.0478
 7682TIP3   OH244460   3.958   1.087   1.617  0.4706  0.0958  0.3493
 7682TIP3    H144461   3.907   1.011   1.646  1.1854 -0.5817 -0.1366
 7682TIP3    H244462   3.897   1.138   1.564  0.3766 -0.8731 -0.5033
 7683TIP3   OH244463   2.739   2.505  16.842  0.2521 -0.0003 -0.7236
 7683TIP3    H144464   2.718   2.582  16.788  2.5150 -0.8477 -3.0261
 7683TIP3    H244465   2.831   2.515  16.864  0.1362 -1.2264  0.4326
 7684TIP3   OH244466   2.616   3.198   3.497  0.2136  0.2825  0.4595
 7684TIP3    H144467   2.628   3.103   3.496  2.3338  0.5212 -0.1910
 7684TIP3    H244468   2.598   3.221   3.406  0.7380  0.6199  0.4398
 7685TIP3   OH244469   4.127   5.473  15.300  0.3543  0.6214  0.5984
 7685TIP3    H144470   4.154   5.493  15.210 -1.7628 -0.7918 -0.4317
 7685TIP3    H244471   4.120   5.378  15.302 -0.4675  0.6934  2.0100
 7686TIP3   OH244472   1.663   2.700   1.911  0.2758  0.8112  0.4583
 7686TIP3    H144473   1.752   2.680   1.942  0.4450  0.8793  0.0190
 7686TIP3    H244474   1.637   2.623   1.860  0.4014  1.1281 -0.0961
 7687TIP3   OH244475   4.701   1.354  11.587  0.0962  0.0945  0.5395
 7687TIP3    H144476   4.723   1.272  11.630  0.5345  0.0580  0.2500
 7687TIP3    H244477   4.780   1.378  11.539 -0.5540 -0.1450 -0.6951
 7688TIP3   OH244478   2.845   2.629  12.856  0.6571 -0.3828 -0.0971
 7688TIP3    H144479   2.791   2.550  12.856  0.2572 -0.1290 -0.9439
 7688TIP3    H244480   2.866   2.644  12.764 -2.8557  2.8348 -0.6509
 7689TIP3   OH244481   0.292   0.704   0.048 -0.5785  0.2108  0.2033
 7689TIP3    H144482   0.219   0.699  -0.015  0.5071 -0.8734 -1.0429
 7689TIP3    H244483   0.278   0.631   0.108 -0.4353 -0.1149 -0.1538
 7690TIP3   OH244484   1.565   3.342  14.515 -0.3740 -0.0631 -0.8532
 7690TIP3    H144485   1.502   3.375  14.579  0.4388  2.0239 -1.0695
 7690TIP3    H244486   1.519   3.270  14.472 -1.7804 -0.0270  0.4798
 7691TIP3   OH244487   2.419   3.271  16.743  0.1646  0.4713  0.0060
 7691TIP3    H144488   2.437   3.219  16.665 -1.2098 -0.2983  0.1740
 7691TIP3    H244489   2.453   3.218  16.816  2.7362  1.8136 -0.1098
 7692TIP3   OH244490   5.766   1.254  15.009 -0.2539  0.6359  0.5758
 7692TIP3    H144491   5.743   1.300  14.929 -0.0524  3.1545  1.8504
 7692TIP3    H244492   5.741   1.163  14.993  0.2948  0.9165 -2.4957
 7693TIP3   OH244493   2.452   6.682   6.063 -0.2179 -0.5899 -0.1220
 7693TIP3    H144494   2.399   6.731   6.126 -0.9114  0.8917 -1.7529
 7693TIP3    H244495   2.388   6.637   6.007  0.3918 -2.4973  0.6230
 7694TIP3   OH244496   2.096   1.395   6.104 -0.0169 -0.0785  0.0100
 7694TIP3    H144497   2.163   1.364   6.165  0.2829  0.7763  0.1280
 7694TIP3    H244498   2.028   1.433   6.159  0.4333  1.0425 -0.1859
 7695TIP3   OH244499   4.263   3.312  15.263  0.8239 -0.0006  0.3183
 7695TIP3    H144500   4.171   3.283  15.260  1.4004 -1.9996  0.4429
 7695TIP3    H244501   4.280   3.345  15.175  0.1184 -0.0678  0.1465
 7696TIP3   OH244502   2.328   4.623  16.931  0.1512  0.6828  0.4313
 7696TIP3    H144503   2.299   4.685  16.998 -0.2996 -0.9975  1.8548
 7696TIP3    H244504   2.402   4.666  16.889  0.0994  2.0114  1.6248
 7697TIP3   OH244505   3.798   0.129   3.624 -0.0889 -0.2284  0.7581
 7697TIP3    H144506   3.857   0.070   3.577  0.0434  0.5703 -0.0979
 7697TIP3    H244507   3.855   0.199   3.656 -0.7099  1.1993 -1.1198
 7698TIP3   OH244508   3.354   5.706  11.793 -0.4339 -0.0994  0.1535
 7698TIP3    H144509   3.309   5.661  11.721 -1.1877 -0.0944  0.6104
 7698TIP3    H244510   3.340   5.799  11.775  0.0065 -0.0822 -0.0916
 7699TIP3   OH244511   1.738   3.717  17.250  0.1474  0.4377  0.3280
 7699TIP3    H144512   1.750   3.705  17.344  1.6899 -0.3239  0.0508
 7699TIP3    H244513   1.739   3.812  17.238  2.2724  0.5164  0.8294
 7700TIP3   OH244514   3.087   4.352   2.435  0.1475 -0.1358 -0.2270
 7700TIP3    H144515   3.107   4.397   2.517 -1.0682  1.5437 -0.7829
 7700TIP3    H244516   3.165   4.361   2.381 -0.0285  1.2434 -0.2703
 7701TIP3   OH244517   5.302   1.915  11.059 -0.6205 -0.1316 -0.4705
 7701TIP3    H144518   5.340   2.002  11.053  0.1672 -0.2930  1.4019
 7701TIP3    H244519   5.283   1.890  10.969  0.5095  1.3743 -1.1607
 7702TIP3   OH244520   2.128   6.470   1.224 -0.3542  0.1114 -0.5533
 7702TIP3    H144521   2.169   6.520   1.154 -2.2941  0.1369 -1.7540
 7702TIP3    H244522   2.041   6.448   1.190 -1.2284 -0.2039  1.6955
 7703TIP3   OH244523   6.234   2.804  15.244  0.2975 -0.2870 -0.5452
 7703TIP3    H144524   6.178   2.881  15.242 -0.4200 -0.8043 -1.0414
 7703TIP3    H244525   6.321   2.836  15.220  0.3728  0.6290  0.8019
 7704TIP3   OH244526   1.685   5.167   2.802 -0.3665 -0.4700  0.4084
 7704TIP3    H144527   1.718   5.236   2.745 -1.0103  0.6150  1.3079
 7704TIP3    H244528   1.704   5.086   2.755 -0.1671  0.3457 -0.9770
 7705TIP3   OH244529   0.316   0.299   0.006  0.3905 -1.1365  0.3303
 7705TIP3    H144530   0.276   0.340   0.083 -0.8848 -1.0333 -0.3527
 7705TIP3    H244531   0.245   0.296  -0.059  1.2978 -1.6718 -0.6721
 7706TIP3   OH244532   4.535   6.423  17.338 -0.2547  0.4163 -0.3046
 7706TIP3    H144533   4.519   6.454  17.427 -0.9868  1.1303 -0.6757
 7706TIP3    H244534   4.618   6.464  17.313 -0.0251  0.1816  0.0501
 7707TIP3   OH244535   4.383   2.168  14.397 -0.0800  0.5647 -0.2617
 7707TIP3    H144536   4.477   2.174  14.413  0.0569 -2.2915  0.7020
 7707TIP3    H244537   4.376   2.139  14.306 -0.0223  0.7264 -0.3178
 7708TIP3   OH244538   4.804   1.288   2.577  0.8581 -0.2821 -0.2792
 7708TIP3    H144539   4.790   1.216   2.516 -0.9097 -0.3221  0.1361
 7708TIP3    H244540   4.798   1.248   2.664  0.6268  0.2409 -0.0515
 7709TIP3   OH244541   5.723   0.597  13.923  0.7533 -0.0073  0.3311
 7709TIP3    H144542   5.649   0.540  13.901 -0.3605  2.4428 -3.0053
 7709TIP3    H244543   5.792   0.572  13.861  0.9585  0.9710  0.1569
 7710TIP3   OH244544   3.797   0.461   0.468 -0.4440  0.4841  0.1208
 7710TIP3    H144545   3.716   0.494   0.505 -0.3599 -0.1360  0.8642
 7710TIP3    H244546   3.797   0.494   0.378 -2.4417 -1.0753 -0.5267
 7711TIP3   OH244547   0.538   5.290   5.098  0.1539  0.2615 -0.3055
 7711TIP3    H144548   0.591   5.269   5.174  1.3352 -0.6581 -1.3315
 7711TIP3    H244549   0.515   5.205   5.060 -0.4556  0.6953 -0.9377
 7712TIP3   OH244550   5.132   5.991   3.541 -0.6178 -1.0443 -0.3469
 7712TIP3    H144551   5.178   6.068   3.576 -1.3023 -0.9320  0.3244
 7712TIP3    H244552   5.163   5.985   3.451 -0.2006 -0.2505 -0.2728
 7713TIP3   OH244553   4.661   6.260   1.562 -0.1005  0.9782  0.0181
 7713TIP3    H144554   4.675   6.168   1.541  0.7271  0.7508  1.4251
 7713TIP3    H244555   4.707   6.308   1.493  0.8872  0.3052  0.1834
 7714TIP3   OH244556   5.292   0.273  11.189 -0.4512  0.3076  0.0031
 7714TIP3    H144557   5.377   0.285  11.146 -0.5095  0.8719  0.0318
 7714TIP3    H244558   5.248   0.206  11.138  0.0057  0.0259 -0.0260
 7715TIP3   OH244559   0.184   3.169   4.706 -0.1015 -0.2053  0.0291
 7715TIP3    H144560   0.219   3.167   4.617  0.7167  0.0333  0.3327
 7715TIP3    H244561   0.260   3.192   4.760 -1.0436  1.9045  0.5485
 7716TIP3   OH244562   1.423   0.097   1.181 -0.0291  0.0879  0.1174
 7716TIP3    H144563   1.469   0.181   1.170 -1.6934  0.9980 -0.1738
 7716TIP3    H244564   1.341   0.108   1.134 -1.4101 -0.7905  2.1869
 7717TIP3   OH244565   4.826   4.173  10.697 -0.3313  0.0704 -0.4114
 7717TIP3    H144566   4.819   4.095  10.642  0.2304 -0.9749  0.9428
 7717TIP3    H244567   4.918   4.197  10.694 -0.8448  2.1349 -2.6675
 7718TIP3   OH244568   3.239   5.473   1.830  0.1196 -0.6436 -0.2879
 7718TIP3    H144569   3.306   5.426   1.780  0.7454 -1.1183  0.9364
 7718TIP3    H244570   3.278   5.484   1.917 -0.5113  1.0744 -0.1904
 7719TIP3   OH244571   0.984   2.387   5.825 -0.1624 -0.4292 -0.3314
 7719TIP3    H144572   0.972   2.456   5.890 -2.5941  0.3058 -1.4357
 7719TIP3    H244573   1.010   2.310   5.876 -1.0431  0.3678  1.3988
 7720TIP3   OH244574   3.311   2.557   4.851  0.2464 -0.2458  0.1725
 7720TIP3    H144575   3.331   2.485   4.792  1.2014 -0.1166  0.3101
 7720TIP3    H244576   3.234   2.599   4.813  1.5215  0.5801 -1.7187
 7721TIP3   OH244577   6.011   6.586  12.676 -0.0084 -0.1876 -1.0430
 7721TIP3    H144578   5.969   6.663  12.716 -1.5925 -2.4475  2.1097
 7721TIP3    H244579   6.101   6.589  12.708 -0.9549 -1.3361  2.0927
 7722TIP3   OH244580   2.189   1.226  15.866 -0.2671  0.1714 -0.4870
 7722TIP3    H144581   2.144   1.174  15.934 -0.6726 -1.1943 -1.7504
 7722TIP3    H244582   2.181   1.173  15.787  1.6361  0.9534 -1.2516
 7723TIP3   OH244583   5.825   4.263  12.203  0.0703  0.3459  0.1126
 7723TIP3    H144584   5.797   4.354  12.210 -1.6684 -0.1981  0.9231
 7723TIP3    H244585   5.841   4.236  12.294 -0.3557 -0.4037 -0.0238
 7724TIP3   OH244586   2.292   0.135   3.734  0.6438  0.6540  0.2558
 7724TIP3    H144587   2.216   0.103   3.783 -0.5688  0.8391 -1.4093
 7724TIP3    H244588   2.319   0.060   3.681  1.7795  0.5298  0.9878
 7725TIP3   OH244589   2.077   5.248   5.938  0.4415  0.0730 -0.1869
 7725TIP3    H144590   2.022   5.239   6.015  1.4235  0.2133  0.5435
 7725TIP3    H244591   2.076   5.161   5.897 -0.0215 -0.0183  0.0148
 7726TIP3   OH244592   6.542   4.074  15.575  0.2294 -0.3311  0.2850
 7726TIP3    H144593   6.625   4.097  15.616 -0.1223 -0.0546  0.8700
 7726TIP3    H244594   6.548   4.109  15.486  0.3657  0.5532  0.6320
 7727TIP3   OH244595   5.851   0.723  14.890  0.5231 -0.1121 -0.0647
 7727TIP3    H144596   5.833   0.804  14.937 -1.9321 -0.6753  0.0752
 7727TIP3    H244597   5.879   0.750  14.803  0.4400  0.8735  0.2107
 7728TIP3   OH244598   4.036   3.977  12.152  0.4915 -0.5318  0.0987
 7728TIP3    H144599   4.083   4.011  12.228 -0.7436 -1.5077  1.3459
 7728TIP3    H244600   3.947   3.962  12.183  0.4372 -2.8451 -0.9802
 7729TIP3   OH244601   6.051   5.778  11.416  0.8315 -0.5353  0.1560
 7729TIP3    H144602   5.996   5.778  11.337  0.0482  1.0814  0.6512
 7729TIP3    H244603   6.067   5.685  11.433 -1.6730 -1.1047 -0.0993
 7730TIP3   OH244604   4.260   3.953   4.144 -0.1935 -0.3868  0.3425
 7730TIP3    H144605   4.196   3.896   4.100  0.0594 -0.2364 -0.2381
 7730TIP3    H244606   4.213   4.036   4.156  0.1193 -0.0342 -0.7629
 7731TIP3   OH244607   0.202   1.693   1.020 -0.0101  0.4403 -0.3415
 7731TIP3    H144608   0.189   1.780   1.057  0.1395  0.3290 -0.0304
 7731TIP3    H244609   0.163   1.699   0.933 -1.8883  0.2139  0.4357
 7732TIP3   OH244610   3.179   5.863   3.415 -0.2873  0.2091 -0.2210
 7732TIP3    H144611   3.189   5.773   3.445 -0.1530 -0.6543 -2.6231
 7732TIP3    H244612   3.085   5.873   3.398  0.0183 -0.5449 -2.7708
 7733TIP3   OH244613   1.753   1.869   2.412 -0.5681 -0.2999 -0.0001
 7733TIP3    H144614   1.815   1.933   2.376 -0.5075 -0.5325 -0.3136
 7733TIP3    H244615   1.679   1.922   2.442 -0.7324 -0.1169 -0.6998
 7734TIP3   OH244616   4.861   3.930  13.239 -0.0309  0.1006  0.4383
 7734TIP3    H144617   4.863   3.865  13.309 -1.2238  0.3591  0.7435
 7734TIP3    H244618   4.878   4.013  13.283 -3.1582  0.6135  0.9347
 7735TIP3   OH244619   5.044   2.014  13.174  0.0598 -0.0350 -0.1001
 7735TIP3    H144620   5.090   1.935  13.144 -0.5106 -0.5593  0.3698
 7735TIP3    H244621   5.059   2.016  13.268 -0.0979  0.3084 -0.0825
 7736TIP3   OH244622   1.949   6.696   4.044 -0.1035  0.1302  0.0793
 7736TIP3    H144623   1.904   6.615   4.066  1.6780 -0.7352  0.7051
 7736TIP3    H244624   1.898   6.733   3.971 -1.1688 -1.3213  0.0480
 7737TIP3   OH244625   0.017   2.732  16.902  0.5841  0.2037 -0.3190
 7737TIP3    H144626   0.023   2.740  16.997  0.3492 -0.5078 -0.2437
 7737TIP3    H244627  -0.043   2.802  16.876  1.1013  0.7769 -0.0121
 7738TIP3   OH244628   3.518   2.985  12.992 -0.2866  0.5434  0.6268
 7738TIP3    H144629   3.431   2.952  12.970  0.1713 -0.6027  0.4867
 7738TIP3    H244630   3.568   2.907  13.016  0.8200  1.1404  0.3055
 7739TIP3   OH244631   0.249   0.370   3.943 -0.4336 -0.3296 -0.0571
 7739TIP3    H144632   0.315   0.309   3.975 -0.2045  0.4275  0.9832
 7739TIP3    H244633   0.165   0.326   3.960 -0.2267 -1.0381 -0.8300
 7740TIP3   OH244634   2.296   2.916   3.738 -0.0017 -0.2021  0.5795
 7740TIP3    H144635   2.232   2.858   3.778  0.4925 -0.0852  1.5653
 7740TIP3    H244636   2.284   2.904   3.644 -0.4657 -1.2695  0.7656
 7741TIP3   OH244637   2.785   0.881  11.491  0.2343  0.1771 -0.3049
 7741TIP3    H144638   2.738   0.825  11.552 -0.5846  0.3621 -0.7552
 7741TIP3    H244639   2.865   0.832  11.470  0.5903  0.1753  0.9973
 7742TIP3   OH244640   0.552   1.174   2.196  0.2109 -0.2668 -0.3864
 7742TIP3    H144641   0.637   1.182   2.240  1.6080  0.1082 -2.9481
 7742TIP3    H244642   0.501   1.247   2.231  1.0392 -0.3202  1.0049
 7743TIP3   OH244643   6.448   4.371  13.979 -0.2808  0.1264 -0.0201
 7743TIP3    H144644   6.434   4.278  13.960  0.9927  0.1304 -1.0795
 7743TIP3    H244645   6.426   4.416  13.898  0.5342  0.6128  0.0277
 7744TIP3   OH244646   4.480   3.290   5.003  0.5931  0.3663  0.2044
 7744TIP3    H144647   4.547   3.245   4.952 -0.2285 -1.1767  0.3961
 7744TIP3    H244648   4.425   3.219   5.037  0.6434  1.3985  2.5789
 7745TIP3   OH244649   1.644   4.864   3.750 -0.2695  0.1532 -0.1024
 7745TIP3    H144650   1.583   4.929   3.786  0.2445  0.0578  0.9664
 7745TIP3    H244651   1.650   4.797   3.817  0.7974  0.0168 -0.3202
 7746TIP3   OH244652   0.523   3.592   0.423 -0.6911  0.0845 -0.2940
 7746TIP3    H144653   0.484   3.505   0.432  0.3191 -0.3138  0.4719
 7746TIP3    H244654   0.604   3.576   0.374 -0.0421  0.4423  0.6416
 7747TIP3   OH244655   4.002   1.561   4.810 -0.3271 -0.3241  0.2096
 7747TIP3    H144656   4.075   1.618   4.834  0.6404 -1.2113 -0.5490
 7747TIP3    H244657   4.024   1.529   4.723 -1.0005 -1.6082  0.4853
 7748TIP3   OH244658   2.516   4.479  16.062 -0.1563 -0.0057  0.1551
 7748TIP3    H144659   2.527   4.384  16.060 -2.3206 -0.3173  0.4790
 7748TIP3    H244660   2.434   4.492  16.109 -1.0020  1.9055 -1.7091
 7749TIP3   OH244661   5.242   3.042   0.331  0.4020  0.7412  0.0183
 7749TIP3    H144662   5.296   2.975   0.288 -1.8482 -0.0195 -1.8615
 7749TIP3    H244663   5.245   3.117   0.271 -1.1284  0.4231 -0.5035
 7750TIP3   OH244664   2.991   0.608   0.299 -0.7323 -0.6333 -0.4112
 7750TIP3    H144665   2.984   0.688   0.350  0.7145 -1.4845  1.2107
 7750TIP3    H244666   3.068   0.564   0.334 -2.2842 -3.4282 -0.2542
 7751TIP3   OH244667   1.585   2.935   0.114 -0.1027  0.0207 -0.1109
 7751TIP3    H144668   1.532   3.014   0.104 -0.5189 -0.2411  0.0002
 7751TIP3    H244669   1.627   2.923   0.028  1.8619  1.6876  0.5433
 7752TIP3   OH244670   2.409   0.017   1.209 -0.1968  0.4876 -0.3319
 7752TIP3    H144671   2.458  -0.060   1.180 -2.1778 -1.5171  1.2280
 7752TIP3    H244672   2.476   0.082   1.230  1.7562 -1.7023  0.6379
 7753TIP3   OH244673   4.509   6.045   6.013  0.4062  0.0425 -0.5466
 7753TIP3    H144674   4.591   6.092   6.008 -0.4251  1.4722 -1.3159
 7753TIP3    H244675   4.445   6.110   6.042 -0.0018 -1.6855  3.0045
 7754TIP3   OH244676   6.234   4.231  16.509  0.0902 -0.5299 -0.1563
 7754TIP3    H144677   6.142   4.218  16.528  0.0156 -0.2905 -0.3424
 7754TIP3    H244678   6.268   4.144  16.492 -0.5341 -0.4527 -2.0077
 7755TIP3   OH244679   3.611   0.973   2.685 -0.1733 -0.5226 -0.3353
 7755TIP3    H144680   3.662   0.920   2.624 -1.4000 -0.2571 -1.6332
 7755TIP3    H244681   3.526   0.930   2.689 -0.0552 -0.6553  1.3873
 7756TIP3   OH244682   6.469   4.818  13.117  0.3313  0.1903 -0.0581
 7756TIP3    H144683   6.474   4.837  13.023  0.7850 -1.4469 -0.3980
 7756TIP3    H244684   6.445   4.725  13.122  0.4346  0.2114  1.4406
 7757TIP3   OH244685   1.549   3.168   2.909 -0.2287  0.5121  0.6859
 7757TIP3    H144686   1.468   3.217   2.901 -0.7178 -0.5455 -1.6101
 7757TIP3    H244687   1.618   3.233   2.894 -0.8496  0.6972 -1.8261
 7758TIP3   OH244688   1.048   3.392   3.192  0.8445  0.1089  0.0795
 7758TIP3    H144689   1.038   3.472   3.243  0.6357  0.8238 -1.0379
 7758TIP3    H244690   1.026   3.322   3.253  0.2751  0.9460  0.8706
 7759TIP3   OH244691   5.662   5.049   3.573 -0.0047 -0.4058 -0.1578
 7759TIP3    H144692   5.719   4.974   3.593 -0.3300 -0.8231 -0.7329
 7759TIP3    H244693   5.583   5.034   3.625 -0.1342 -0.5497 -0.3943
 7760TIP3   OH244694   4.499   4.181  16.387  0.1767  0.5662 -0.1913
 7760TIP3    H144695   4.455   4.217  16.310  0.9977 -1.1191 -1.4910
 7760TIP3    H244696   4.562   4.248  16.412 -1.1316  1.7857 -0.0122
 7761TIP3   OH244697   3.019   5.334  11.506 -0.1756 -0.5422  0.9366
 7761TIP3    H144698   2.986   5.247  11.529 -0.2066 -0.2775  1.9745
 7761TIP3    H244699   2.952   5.372  11.450 -0.0222 -1.2987  0.2281
 7762TIP3   OH244700   3.078   4.721   3.685 -0.7372  0.1853 -1.0610
 7762TIP3    H144701   3.163   4.715   3.729 -1.6922 -0.3827  0.8232
 7762TIP3    H244702   3.058   4.631   3.658 -2.1819 -0.3719  1.5266
 7763TIP3   OH244703   4.155   1.502  16.699  0.4453  0.5847 -0.0757
 7763TIP3    H144704   4.221   1.556  16.657  0.5671 -0.4873 -1.3090
 7763TIP3    H244705   4.130   1.552  16.777  0.8428  2.2136 -0.9387
 7764TIP3   OH244706   3.470   2.621  11.572 -0.1438 -0.3015 -0.1129
 7764TIP3    H144707   3.494   2.673  11.648  1.0010 -1.3753  0.2863
 7764TIP3    H244708   3.545   2.627  11.513 -0.3610 -0.7861 -0.4491
 7765TIP3   OH244709   3.480   2.401   0.017 -0.4722 -0.3784 -0.4672
 7765TIP3    H144710   3.425   2.379   0.092  0.4410 -1.4267 -0.0922
 7765TIP3    H244711   3.564   2.359   0.035  1.0704  2.5827 -0.2022
 7766TIP3   OH244712   0.682   3.501  12.965  0.4655 -0.0957  0.1171
 7766TIP3    H144713   0.631   3.466  12.892 -0.3193 -1.4225  1.2518
 7766TIP3    H244714   0.773   3.495  12.936  0.0934  2.6175 -2.0826
 7767TIP3   OH244715   6.497   2.457  16.702 -0.0976 -0.4067  0.1988
 7767TIP3    H144716   6.428   2.516  16.732 -0.6793 -0.7910 -0.3547
 7767TIP3    H244717   6.520   2.406  16.780  0.2005  0.3365  0.6040
 7768TIP3   OH244718   1.606   5.973  17.048  0.5523  0.2537 -0.0463
 7768TIP3    H144719   1.576   6.062  17.069  1.8323  0.3758  1.4943
 7768TIP3    H244720   1.667   5.985  16.975 -1.9618  0.1487 -2.3233
 7769TIP3   OH244721   1.689   1.922  14.363  0.0901  0.2145  0.4460
 7769TIP3    H144722   1.712   1.841  14.408 -2.2714 -0.4228  0.6240
 7769TIP3    H244723   1.694   1.990  14.430  0.6444 -0.0136  0.6420
 7770TIP3   OH244724   4.058   1.550  11.310  0.2201  0.0066 -0.3285
 7770TIP3    H144725   4.030   1.467  11.349  1.8086  0.0963  1.1083
 7770TIP3    H244726   4.102   1.524  11.229  0.2520 -0.5073 -0.1520
 7771TIP3   OH244727   6.492   3.799  12.859 -0.2433 -0.4272  0.0101
 7771TIP3    H144728   6.569   3.782  12.914 -0.2661  0.3561  0.2964
 7771TIP3    H244729   6.422   3.747  12.899 -0.7162  1.4909  1.8438
 7772TIP3   OH244730   0.045   5.771   4.171  0.0977  0.6416 -0.3520
 7772TIP3    H144731   0.024   5.749   4.081 -0.5673 -0.5017  0.0606
 7772TIP3    H244732   0.051   5.687   4.216 -1.9382  1.2362  1.1768
 7773TIP3   OH244733   0.383   0.840  14.190 -0.0095  0.1968  0.3286
 7773TIP3    H144734   0.441   0.773  14.154 -1.0735 -0.3101 -0.5079
 7773TIP3    H244735   0.426   0.923  14.171  1.1267 -0.2138  1.0113
 7774TIP3   OH244736   5.181   4.315  12.587  0.0729 -0.4329  0.1399
 7774TIP3    H144737   5.112   4.372  12.621  0.5653 -0.0715  0.5394
 7774TIP3    H244738   5.224   4.279  12.665  1.2188  0.4147 -0.0752
 7775TIP3   OH244739   2.041   1.748  13.537  0.2413 -0.1075 -0.2372
 7775TIP3    H144740   2.130   1.767  13.508 -0.4134  0.8816 -1.7479
 7775TIP3    H244741   1.988   1.757  13.458 -1.1899 -0.8132  0.5966
 7776TIP3   OH244742   3.141   3.988  16.895  0.1513 -0.0925  0.1822
 7776TIP3    H144743   3.232   4.015  16.902  0.4184 -0.6735 -0.8720
 7776TIP3    H244744   3.098   4.026  16.972  0.9317  1.6089 -0.1901
 7777TIP3   OH244745   4.235   2.802  11.198  0.5003 -0.3227 -0.3824
 7777TIP3    H144746   4.205   2.717  11.230 -2.3582  0.1368 -1.5211
 7777TIP3    H244747   4.220   2.798  11.104 -0.6719  1.7485 -0.3401
 7778TIP3   OH244748   5.704   0.217   0.270  0.2993 -0.1521 -0.0473
 7778TIP3    H144749   5.726   0.126   0.288  1.1879  0.4925  2.7040
 7778TIP3    H244750   5.768   0.246   0.205  0.7743 -1.1623 -0.0463
 7779TIP3   OH244751   0.233   4.550  11.301  0.5452 -0.1150  0.0162
 7779TIP3    H144752   0.320   4.550  11.341  0.7974 -0.3146 -0.5128
 7779TIP3    H244753   0.174   4.583  11.369  0.9089 -0.7368  0.6422
 7780TIP3   OH244754   3.613   1.358  15.836  0.7790  0.1190  0.4325
 7780TIP3    H144755   3.637   1.451  15.834  2.1489 -0.2321 -0.1525
 7780TIP3    H244756   3.540   1.354  15.898  0.5443  1.6163  0.2872
 7781TIP3   OH244757   3.513   5.549   3.443 -0.4203  0.5515  0.6494
 7781TIP3    H144758   3.562   5.524   3.364 -0.9127  0.5943  0.3250
 7781TIP3    H244759   3.539   5.485   3.509  0.7702  1.1056  0.7578
 7782TIP3   OH244760   3.283   4.537  16.572  0.6111 -0.7828  1.3261
 7782TIP3    H144761   3.224   4.611  16.578  1.4582  0.2014 -1.3347
 7782TIP3    H244762   3.285   4.501  16.661 -3.3402 -0.4460  1.7077
 7783TIP3   OH244763   5.454   4.311  13.770  0.1148  0.1177  0.1175
 7783TIP3    H144764   5.489   4.358  13.694  0.5082  0.5196  0.5405
 7783TIP3    H244765   5.486   4.360  13.845  0.5277 -0.8182  0.5692
 7784TIP3   OH244766   3.934   2.399   3.172  0.6565  0.1712  0.6282
 7784TIP3    H144767   3.937   2.475   3.230  2.4689  0.0700  0.7424
 7784TIP3    H244768   3.915   2.435   3.086 -0.3538  0.5178  0.9817
 7785TIP3   OH244769   2.151   6.535  16.563 -0.3849  0.7221  0.3354
 7785TIP3    H144770   2.163   6.545  16.658 -2.2157  0.1489  0.6642
 7785TIP3    H244771   2.202   6.607  16.525  0.3556  0.9830  1.7452
 7786TIP3   OH244772   0.760   2.873   1.904  0.5906  0.1159  0.1116
 7786TIP3    H144773   0.795   2.891   1.816 -0.3651 -0.9174 -0.5058
 7786TIP3    H244774   0.755   2.778   1.909 -2.1260  0.2059  0.1455
 7787TIP3   OH244775   5.170   2.419   0.420 -0.2306  0.5249  0.9428
 7787TIP3    H144776   5.241   2.478   0.446  2.0828 -0.9129 -1.5106
 7787TIP3    H244777   5.097   2.477   0.399  0.9701  2.2801  1.3615
 7788TIP3   OH244778   4.224   3.439  12.203  0.7289  0.3342 -0.1992
 7788TIP3    H144779   4.206   3.456  12.295 -0.6862 -0.3115 -0.3369
 7788TIP3    H244780   4.208   3.522  12.159  1.6581  0.7119  0.1593
 7789TIP3   OH244781   0.178   0.377  14.951  0.3168  0.3646 -0.3013
 7789TIP3    H144782   0.270   0.398  14.935  0.1007 -0.1309 -2.4329
 7789TIP3    H244783   0.158   0.309  14.888 -1.1579 -0.5705  1.1028
 7790TIP3   OH244784   2.730   4.812  14.240 -0.5378 -0.1219  0.0468
 7790TIP3    H144785   2.714   4.795  14.148  0.7772  0.0477 -0.2312
 7790TIP3    H244786   2.712   4.728  14.283 -1.3260 -0.1536 -0.3161
 7791TIP3   OH244787   5.893   5.921   5.091 -0.3602  0.1808 -0.1079
 7791TIP3    H144788   5.898   5.901   4.997 -0.6706 -0.1250 -0.0598
 7791TIP3    H244789   5.805   5.892   5.117  0.2296 -1.0487  0.5922
 7792TIP3   OH244790   2.235   2.297   5.550  0.2526  0.0516  0.5723
 7792TIP3    H144791   2.216   2.224   5.491  1.2304 -0.0189  0.3260
 7792TIP3    H244792   2.222   2.375   5.496  1.2880 -0.0174  0.2015
 7793TIP3   OH244793   1.346   2.766  11.697 -0.0778  0.0919 -0.3757
 7793TIP3    H144794   1.342   2.746  11.603 -0.2108  0.7652 -0.5207
 7793TIP3    H244795   1.257   2.793  11.720  0.2253  1.1160 -0.3429
 7794TIP3   OH244796   6.593   0.742  17.146  0.2653 -0.3305  0.3013
 7794TIP3    H144797   6.674   0.774  17.186  0.1582 -0.8700  0.9694
 7794TIP3    H244798   6.615   0.730  17.054  0.0736  2.5105 -0.2178
 7795TIP3   OH244799   5.520   0.230   3.654  0.6335 -0.2795  0.2704
 7795TIP3    H144800   5.558   0.299   3.709 -0.2744 -1.0914  1.9951
 7795TIP3    H244801   5.559   0.244   3.568  1.6270  1.4462  0.9459
 7796TIP3   OH244802   1.319   0.770  16.783  0.0391 -0.2222  0.3165
 7796TIP3    H144803   1.362   0.724  16.711 -0.7092 -0.2116 -0.1443
 7796TIP3    H244804   1.377   0.845  16.800 -0.1718  0.2366 -0.8282
 7797TIP3   OH244805   0.649   2.318  16.949 -0.0988  0.1783 -0.3325
 7797TIP3    H144806   0.564   2.333  16.906 -0.2309 -0.0978 -0.1685
 7797TIP3    H244807   0.684   2.240  16.906  0.9312  1.3432 -1.7102
 7798TIP3   OH244808   6.021   0.228   5.158  0.2882 -0.2261  0.0683
 7798TIP3    H144809   5.953   0.295   5.157 -0.4859 -0.9990 -0.7710
 7798TIP3    H244810   6.103   0.278   5.164 -0.0752  1.0305 -3.3024
 7799TIP3   OH244811   0.847   1.684   3.218 -0.2516 -0.1137  0.0452
 7799TIP3    H144812   0.845   1.744   3.144 -0.2659  0.7204  0.7046
 7799TIP3    H244813   0.940   1.672   3.238 -0.2304 -0.7134 -0.3996
 7800TIP3   OH244814   1.992   5.129  11.986  0.1944 -0.9138  0.0972
 7800TIP3    H144815   2.062   5.149  11.924  0.9424 -2.8554  0.2393
 7800TIP3    H244816   1.915   5.114  11.931  0.5254 -1.2991 -0.2720
 7801TIP3   OH244817   2.766   4.485   1.300  0.1097  0.5379  0.3969
 7801TIP3    H144818   2.847   4.521   1.335  0.0023  0.8892  0.2929
 7801TIP3    H244819   2.786   4.393   1.283  1.3543  1.1719 -2.1155
 7802TIP3   OH244820   0.539   4.159  16.456  0.0529 -0.3236  0.6020
 7802TIP3    H144821   0.500   4.197  16.378  1.9274 -1.6950 -1.1181
 7802TIP3    H244822   0.569   4.234  16.507  1.0359  0.6104 -1.2485
 7803TIP3   OH244823   6.206   3.959   5.700  0.4030 -0.1347  0.2710
 7803TIP3    H144824   6.274   3.895   5.681  0.1103 -0.7798  1.3133
 7803TIP3    H244825   6.203   3.963   5.796  0.7936  1.8513  0.2466
 7804TIP3   OH244826   3.324   3.566   2.489  0.0996  0.4904  0.0996
 7804TIP3    H144827   3.385   3.622   2.442  0.8585 -0.3719  0.0366
 7804TIP3    H244828   3.375   3.530   2.561 -1.3573  2.7947  2.4552
 7805TIP3   OH244829   5.370   2.768   3.977  0.0736  1.0112  0.1602
 7805TIP3    H144830   5.463   2.746   3.973  0.0036  0.5053  1.1247
 7805TIP3    H244831   5.367   2.848   4.031 -0.1502  0.2827  1.2630
 7806TIP3   OH244832   3.369   5.468   2.076  0.7214  0.0711  0.0935
 7806TIP3    H144833   3.330   5.549   2.108  1.2517  0.6543 -0.7198
 7806TIP3    H244834   3.444   5.453   2.134  1.1139  0.6191 -0.2562
 7807TIP3   OH244835   2.520   5.536  14.101  0.2289 -0.0905 -0.4059
 7807TIP3    H144836   2.604   5.494  14.121 -0.4351 -1.3343 -0.1278
 7807TIP3    H244837   2.506   5.517  14.008 -0.4397 -1.2005 -0.0964
 7808TIP3   OH244838   2.150   1.804  14.789  0.3086 -0.2924 -0.4976
 7808TIP3    H144839   2.194   1.888  14.805  0.1610 -0.2290 -0.4205
 7808TIP3    H244840   2.071   1.809  14.842  1.0398 -1.1009  0.7371
 7809TIP3   OH244841   3.954   2.691   0.469  0.2585  0.0323  0.5049
 7809TIP3    H144842   3.866   2.728   0.462  0.7956  1.2454 -0.1160
 7809TIP3    H244843   4.012   2.762   0.442  1.5010 -0.4291  1.8284
 7810TIP3   OH244844   5.745   2.064  11.654 -0.0952 -0.7622  0.4483
 7810TIP3    H144845   5.695   2.135  11.614  0.6986  0.2723  1.2584
 7810TIP3    H244846   5.702   1.984  11.622  0.0090  0.0089 -1.8210
 7811TIP3   OH244847   4.589   0.661  14.365 -0.0946  0.6744  0.5252
 7811TIP3    H144848   4.652   0.647  14.294 -1.3096  0.8730 -0.6338
 7811TIP3    H244849   4.534   0.733  14.334 -0.3178  1.1463  1.9269
 7812TIP3   OH244850   0.500   5.880   5.007 -0.1969  0.5021 -0.0030
 7812TIP3    H144851   0.587   5.898   5.043  0.1175  0.6592 -0.8285
 7812TIP3    H244852   0.440   5.913   5.074  0.3801  1.1988  0.1888
 7813TIP3   OH244853   6.443   4.075   5.914 -0.1926 -0.2947  0.3815
 7813TIP3    H144854   6.528   4.093   5.875 -0.4095 -0.3936 -0.1348
 7813TIP3    H244855   6.400   4.161   5.920  0.1500 -0.1611  1.1522
 7814TIP3   OH244856   2.973   4.177   4.304 -0.1191  0.0733 -0.3951
 7814TIP3    H144857   2.908   4.120   4.345  0.7355 -1.0255 -0.5323
 7814TIP3    H244858   2.992   4.137   4.220  2.8583 -1.3633  0.7921
 7815TIP3   OH244859   1.223   1.877  13.512 -0.0306  0.0755  0.3291
 7815TIP3    H144860   1.302   1.882  13.565 -0.9355  1.0417  1.6360
 7815TIP3    H244861   1.202   1.784  13.508  0.5935 -0.0914  0.8342
 7816TIP3   OH244862   6.224   0.556   5.615 -0.4452  0.7080 -0.0897
 7816TIP3    H144863   6.189   0.634   5.573  1.8713  1.4479 -0.8347
 7816TIP3    H244864   6.250   0.585   5.702  0.7673  0.9095 -0.4995
 7817TIP3   OH244865   0.346   5.975  14.070  0.2340 -0.0169 -0.8070
 7817TIP3    H144866   0.343   6.070  14.065  0.7927 -0.0410 -1.9623
 7817TIP3    H244867   0.282   5.952  14.137  0.1315  1.1687 -0.4831
 7818TIP3   OH244868   6.075   3.239  15.896  0.6989 -0.5499  0.8070
 7818TIP3    H144869   6.110   3.157  15.863  3.2580  0.6913  0.2302
 7818TIP3    H244870   6.029   3.215  15.977 -0.1295 -2.7242 -0.2465
 7819TIP3   OH244871   3.120   5.266   6.424 -0.4173  0.3842 -0.1654
 7819TIP3    H144872   3.089   5.356   6.422 -1.6117  0.0498  1.4194
 7819TIP3    H244873   3.211   5.274   6.455 -0.6254  1.0343  0.3180
 7820TIP3   OH244874   5.326   5.639   5.530 -0.3015  0.2823 -0.0274
 7820TIP3    H144875   5.243   5.617   5.488 -0.2346 -0.4346  0.2123
 7820TIP3    H244876   5.337   5.573   5.598  0.5284  0.2953 -0.1425
 7821TIP3   OH244877   2.071   3.251   2.779  0.1290 -0.4781  0.3475
 7821TIP3    H144878   1.989   3.258   2.829  0.4755 -0.5685  0.9391
 7821TIP3    H244879   2.043   3.253   2.687 -0.5097 -0.1793  0.5384
 7822TIP3   OH244880   6.124   6.504   2.717 -0.1769  0.1519 -0.5366
 7822TIP3    H144881   6.108   6.535   2.806  0.3714  1.5859 -0.9006
 7822TIP3    H244882   6.114   6.582   2.662  1.5419 -0.2331 -1.4913
 7823TIP3   OH244883   0.929   2.245  13.957  0.2224  0.3838  0.1655
 7823TIP3    H144884   0.903   2.169  14.011  1.7953  0.1141  0.5973
 7823TIP3    H244885   1.018   2.266  13.987 -0.2485  2.5584  0.2076
 7824TIP3   OH244886   2.845   5.752  15.611 -0.2762 -0.1716 -0.7726
 7824TIP3    H144887   2.877   5.732  15.523  0.3239  1.0462 -0.8443
 7824TIP3    H244888   2.758   5.788  15.598  0.1409  0.7907 -0.9420
 7825TIP3   OH244889   1.125   1.637   0.442  0.5675  0.9068  0.5714
 7825TIP3    H144890   1.190   1.627   0.371  0.8558 -0.4638  1.0042
 7825TIP3    H244891   1.168   1.600   0.519 -0.2850  1.0814  1.1412
 7826TIP3   OH244892   2.684   6.069  15.066 -0.4320 -0.1569 -0.0837
 7826TIP3    H144893   2.749   6.138  15.052 -1.0334  0.1463 -1.6693
 7826TIP3    H244894   2.672   6.065  15.160  2.6124 -0.9065  0.3812
 7827TIP3   OH244895   2.071   4.694   0.055  0.6038 -0.3162  0.3989
 7827TIP3    H144896   1.997   4.696   0.116  1.4538  0.1264  1.4506
 7827TIP3    H244897   2.138   4.748   0.096  1.3431 -0.2945 -0.7713
 7828TIP3   OH244898   3.231   0.661  17.224 -0.1703 -0.1458  0.5247
 7828TIP3    H144899   3.225   0.614  17.141  1.3335  0.7333 -0.1195
 7828TIP3    H244900   3.142   0.659  17.259 -1.0736  0.3663 -1.6020
 7829TIP3   OH244901   4.734   0.193   2.646  0.5274  0.0767 -0.0978
 7829TIP3    H144902   4.786   0.173   2.568  0.0300  0.6881 -0.5953
 7829TIP3    H244903   4.714   0.286   2.638  1.3479  0.4004  1.2990
 7830TIP3   OH244904   2.221   1.202  14.106 -0.4489 -0.2853  0.4744
 7830TIP3    H144905   2.150   1.242  14.056 -0.2090  0.1687  0.4931
 7830TIP3    H244906   2.237   1.263  14.178  1.2005  0.5811 -0.5520
 7831TIP3   OH244907   3.144   6.626   1.781  0.1539 -0.1270  0.5965
 7831TIP3    H144908   3.095   6.553   1.743 -0.6165  0.1245  1.0873
 7831TIP3    H244909   3.127   6.620   1.875  1.0872 -0.0440  0.7878
 7832TIP3   OH244910   6.514   0.094   3.794  0.1482  0.2121 -0.4620
 7832TIP3    H144911   6.450   0.077   3.863  0.8018 -1.1357 -0.1557
 7832TIP3    H244912   6.579   0.024   3.804  1.7054  1.5725 -0.7189
 7833TIP3   OH244913   2.859   3.217  14.868  0.1805 -0.1425 -0.3781
 7833TIP3    H144914   2.814   3.301  14.854  1.6320  0.5271 -1.2461
 7833TIP3    H244915   2.816   3.158  14.806  1.8204  1.0435 -2.8318
 7834TIP3   OH244916   2.723   6.157   1.530 -0.5913 -0.7454  0.2518
 7834TIP3    H144917   2.664   6.223   1.491 -0.7594 -0.7946  0.4214
 7834TIP3    H244918   2.797   6.153   1.469 -0.0542  0.3993  0.8004
 7835TIP3   OH244919   1.183   4.391  13.273 -0.5279  0.7876 -0.2320
 7835TIP3    H144920   1.258   4.427  13.319  0.2410  0.3728 -1.1152
 7835TIP3    H244921   1.197   4.296  13.275 -1.4562  0.6523  0.2982
 7836TIP3   OH244922   1.134   3.264  12.978 -0.0408 -0.4253 -0.2885
 7836TIP3    H144923   1.206   3.209  13.011 -0.2834 -0.3913  0.2946
 7836TIP3    H244924   1.068   3.201  12.948  0.4379 -0.4661 -1.3180
 7837TIP3   OH244925   4.140   2.010  12.416  0.0690  0.4065 -0.4158
 7837TIP3    H144926   4.149   1.940  12.352 -0.1148  1.2171 -1.3547
 7837TIP3    H244927   4.047   2.011  12.439  0.6075 -2.1726  2.5890
 7838TIP3   OH244928   0.274   0.449   5.741  0.5628 -0.4628 -0.1260
 7838TIP3    H144929   0.247   0.481   5.654  0.9554 -0.6548 -0.3222
 7838TIP3    H244930   0.206   0.480   5.800  1.2635  1.3477 -0.1958
 7839TIP3   OH244931   1.301   2.626  12.021  0.2809  0.4660 -0.5601
 7839TIP3    H144932   1.215   2.667  12.030  1.2543  2.3820  1.2427
 7839TIP3    H244933   1.321   2.594  12.109  1.5835  0.4753 -0.8279
 7840TIP3   OH244934   4.334   0.252  14.327  0.2265 -0.1719 -0.1695
 7840TIP3    H144935   4.268   0.322  14.326  0.9311  0.5106 -1.1331
 7840TIP3    H244936   4.309   0.195  14.254  0.3383 -0.2512 -0.1449
 7841TIP3   OH244937   1.479   5.111   3.126  0.3231  0.0413 -0.2902
 7841TIP3    H144938   1.569   5.133   3.149  0.2948 -1.3152  1.2772
 7841TIP3    H244939   1.488   5.063   3.043  0.7880  1.6879 -1.2622
 7842TIP3   OH244940   6.240   2.789  13.841 -0.0426 -0.4974 -0.1738
 7842TIP3    H144941   6.257   2.883  13.855 -0.2756 -0.6545  1.3564
 7842TIP3    H244942   6.279   2.747  13.918  1.3338 -1.8173 -1.5328
 7843TIP3   OH244943   4.427   4.149  14.311 -0.0970  0.2835  0.1530
 7843TIP3    H144944   4.490   4.198  14.258 -0.1186 -0.6741 -0.8026
 7843TIP3    H244945   4.432   4.060  14.277 -0.7348 -0.1773  1.2196
 7844TIP3   OH244946   6.076   1.573  15.881 -0.3029  0.3736 -0.5384
 7844TIP3    H144947   6.147   1.509  15.874  1.1316  1.9923 -1.9021
 7844TIP3    H244948   6.065   1.588  15.975  1.7218  0.6246 -0.3028
 7845TIP3   OH244949   6.514   6.604  13.551 -0.3753 -0.0182  0.0231
 7845TIP3    H144950   6.460   6.608  13.472  0.7250  1.9787 -0.6887
 7845TIP3    H244951   6.584   6.542  13.529 -1.5889 -1.6225  0.4927
 7846TIP3   OH244952   2.794   0.705   5.600  0.8353 -0.2000 -0.3201
 7846TIP3    H144953   2.848   0.690   5.678  1.7827  1.3354 -0.6212
 7846TIP3    H244954   2.857   0.730   5.532  0.1241 -2.2387 -1.8436
 7847TIP3   OH244955   2.639   0.274   1.522  0.1368 -0.0733  0.3081
 7847TIP3    H144956   2.595   0.245   1.442  1.3012 -1.0218 -0.0253
 7847TIP3    H244957   2.583   0.244   1.593  0.9656 -2.6999 -0.0513
 7848TIP3   OH244958   0.705   1.514  13.982 -0.1168  0.0803  0.0297
 7848TIP3    H144959   0.676   1.605  13.994  1.7878  1.0040 -1.7027
 7848TIP3    H244960   0.790   1.510  14.026  0.9413 -0.1048 -1.9222
 7849TIP3   OH244961   4.925   6.413  16.212  0.2169  0.2942  0.2877
 7849TIP3    H144962   4.855   6.461  16.256  0.2271 -0.8864  1.6622
 7849TIP3    H244963   5.005   6.446  16.252  0.1857 -1.3656  1.8478
 7850TIP3   OH244964   5.946   5.525   5.075  0.2859 -0.0764  0.0680
 7850TIP3    H144965   5.911   5.604   5.034  0.5025 -0.3640 -0.6858
 7850TIP3    H244966   5.876   5.460   5.064 -0.7155  0.4994  2.4110
 7851TIP3   OH244967   3.121   3.752  12.288 -0.3542 -0.2210  0.3742
 7851TIP3    H144968   3.141   3.757  12.381 -1.3197  0.9238  0.5413
 7851TIP3    H244969   3.058   3.823  12.272  0.6116  0.3115 -1.3746
 7852TIP3   OH244970   6.283   1.521   1.987  0.4711 -0.3107 -0.3210
 7852TIP3    H144971   6.346   1.460   2.026  1.6736  0.2420 -1.3161
 7852TIP3    H244972   6.334   1.600   1.971 -0.7693  0.5378 -0.1690
 7853TIP3   OH244973   2.967   0.869  11.019  0.2587 -0.2380 -0.0884
 7853TIP3    H144974   2.921   0.922  10.954 -0.9482  0.5163  1.3520
 7853TIP3    H244975   2.960   0.779  10.986  0.0914  0.1832 -1.2391
 7854TIP3   OH244976   6.583   6.646   3.378  0.4282 -0.0475 -0.7152
 7854TIP3    H144977   6.525   6.590   3.327  1.0895 -0.8394 -0.6062
 7854TIP3    H244978   6.661   6.594   3.392  0.0588 -0.0779  1.6097
 7855TIP3   OH244979   4.470   4.215   4.590 -0.3230 -0.3900 -0.0799
 7855TIP3    H144980   4.489   4.254   4.505  1.6230  0.6398  0.7570
 7855TIP3    H244981   4.466   4.121   4.574  0.1921 -0.2186 -1.2684
 7856TIP3   OH244982   2.674   4.248   1.079  0.3339 -0.4673  0.0988
 7856TIP3    H144983   2.665   4.231   0.985  0.4670 -0.6110  0.1121
 7856TIP3    H244984   2.767   4.263   1.092  0.2322  0.1962  0.1032
 7857TIP3   OH244985   1.419   0.937   4.858  0.4632 -0.0314  0.1783
 7857TIP3    H144986   1.327   0.911   4.855  0.4038  0.0879  0.8410
 7857TIP3    H244987   1.417   1.032   4.866  0.6054 -0.1585  1.9499
 7858TIP3   OH244988   3.837   3.060  12.961  0.4293 -0.4616 -0.9452
 7858TIP3    H144989   3.772   3.006  12.915 -0.3445 -0.4047  0.0340
 7858TIP3    H244990   3.841   3.022  13.048 -0.1222  1.0314 -0.2369
 7859TIP3   OH244991   3.732   0.381  16.922  0.1094 -0.3000  0.5803
 7859TIP3    H144992   3.754   0.298  16.963 -1.5202 -0.8835  0.3450
 7859TIP3    H244993   3.797   0.443  16.956  2.0328 -1.8421 -0.0448
 7860TIP3   OH244994   1.727   0.442  13.368 -0.3034  0.1619 -0.0470
 7860TIP3    H144995   1.666   0.399  13.427 -0.0275 -0.5063 -0.2360
 7860TIP3    H244996   1.700   0.534  13.367 -0.5480  0.1006  0.8094
 7861TIP3   OH244997   2.366   4.636   6.011 -0.1610  0.6227  0.0827
 7861TIP3    H144998   2.322   4.712   6.049  0.4949  0.6653  0.7828
 7861TIP3    H244999   2.424   4.673   5.945  0.5729  0.7997  0.8083
 7862TIP3   OH245000   1.205   2.171   1.826  0.1781  0.3874 -0.3142
 7862TIP3    H145001   1.196   2.213   1.741  1.2439 -1.9872 -1.6837
 7862TIP3    H245002   1.296   2.142   1.829  0.2777  0.7477  1.8396
 7863TIP3   OH245003   3.326   4.055  15.611  0.6025 -0.3289 -0.5234
 7863TIP3    H145004   3.251   4.033  15.666 -1.2879  2.5284 -1.7095
 7863TIP3    H245005   3.384   4.105  15.669 -0.5844  1.2312 -0.5946
 7864TIP3   OH245006   0.959   2.699   0.899  0.5917 -0.4965  0.2258
 7864TIP3    H145007   0.864   2.689   0.888  0.6692 -1.0330  0.0348
 7864TIP3    H245008   0.978   2.785   0.861 -0.0847  0.4698  1.9014
 7865TIP3   OH245009   3.876   6.299  14.240 -0.8236 -0.5378 -0.3589
 7865TIP3    H145010   3.810   6.241  14.277 -1.0458 -0.7813 -1.1204
 7865TIP3    H245011   3.960   6.264  14.271 -1.0183 -0.4730  0.2625
 7866TIP3   OH245012   3.451   2.858   2.352 -0.2090 -0.4572  0.0683
 7866TIP3    H145013   3.508   2.839   2.426  0.0306 -0.7273 -0.1818
 7866TIP3    H245014   3.427   2.950   2.363  2.3085  0.4418 -1.1800
 7867TIP3   OH245015   4.791   0.104  14.233 -0.7008 -0.9797  0.5822
 7867TIP3    H145016   4.769   0.142  14.148 -0.7863 -1.9456  0.1572
 7867TIP3    H245017   4.830   0.019  14.212  0.1461 -0.8364  1.4740
 7868TIP3   OH245018   0.835   5.273  11.312  0.0430 -0.4608  0.4825
 7868TIP3    H145019   0.811   5.236  11.226  1.8758  0.6625 -0.5766
 7868TIP3    H245020   0.869   5.198  11.361  2.6156 -0.5410 -1.2183
 7869TIP3   OH245021   4.503   6.298  13.479  0.2049  0.4066 -0.2397
 7869TIP3    H145022   4.560   6.339  13.544  1.8455 -0.9966 -0.7179
 7869TIP3    H245023   4.508   6.205  13.498 -1.2899  0.1783 -0.8335
 7870TIP3   OH245024   2.248   1.569   1.543 -0.5966 -0.3171  0.4847
 7870TIP3    H145025   2.163   1.610   1.560 -0.7900 -1.2657  1.9960
 7870TIP3    H245026   2.301   1.593   1.619  0.0179 -0.9486  0.2620
 7871TIP3   OH245027   3.882   5.411  14.551 -0.4315 -0.8890 -0.2320
 7871TIP3    H145028   3.866   5.325  14.589 -1.6416 -0.9832 -0.9148
 7871TIP3    H245029   3.969   5.404  14.511  0.6109 -0.9769  1.9028
 7872TIP3   OH245030   4.589   0.246   2.051 -0.4656 -0.1879  0.2340
 7872TIP3    H145031   4.588   0.342   2.044  0.4184 -0.2153 -0.4738
 7872TIP3    H245032   4.600   0.230   2.145  0.5995  0.4339  0.2364
 7873TIP3   OH245033   2.650   2.614  15.078 -0.1540  0.0282  0.5543
 7873TIP3    H145034   2.727   2.662  15.046 -0.5743  0.6302  0.4372
 7873TIP3    H245035   2.683   2.565  15.154  0.2495  0.6167  0.7689
 7874TIP3   OH245036   4.988   3.053   0.820 -0.8812  0.0854  0.0834
 7874TIP3    H145037   5.045   3.104   0.878 -0.1425  2.2818 -2.3950
 7874TIP3    H245038   5.034   2.970   0.809 -1.1394 -0.4774  2.6969
 7875TIP3   OH245039   0.828   1.800   3.558 -0.2082 -0.2594 -0.5387
 7875TIP3    H145040   0.803   1.793   3.650 -0.9147  2.5923 -0.4169
 7875TIP3    H245041   0.790   1.722   3.517 -0.0904 -1.4691  1.4908
 7876TIP3   OH245042   4.584   0.330   6.166 -0.4722 -0.0523  0.3470
 7876TIP3    H145043   4.489   0.325   6.180 -0.5835 -0.0043 -0.3890
 7876TIP3    H245044   4.594   0.341   6.072  0.3001 -0.9489  0.3116
 7877TIP3   OH245045   1.819   3.339  16.589 -0.1543  0.1058 -0.6181
 7877TIP3    H145046   1.842   3.248  16.603 -0.5037  0.1934  0.6794
 7877TIP3    H245047   1.846   3.358  16.499 -0.6763 -1.4434 -1.1257
 7878TIP3   OH245048   1.286   0.996  13.607 -0.3829  0.1169  0.3397
 7878TIP3    H145049   1.215   0.931  13.609 -1.6519  1.4720  1.8930
 7878TIP3    H245050   1.261   1.062  13.672  1.4101  1.6126 -0.3847
 7879TIP3   OH245051   3.407   4.819   2.969 -0.0964  0.5331 -0.4990
 7879TIP3    H145052   3.483   4.811   3.027  0.4135  2.1003 -0.8845
 7879TIP3    H245053   3.445   4.846   2.885 -0.8199 -1.6755 -1.6063
 7880TIP3   OH245054   5.237   2.520   1.587 -0.4885  0.2910  0.2727
 7880TIP3    H145055   5.256   2.485   1.674  2.1680 -0.0387 -0.3523
 7880TIP3    H245056   5.164   2.581   1.600 -1.3896 -1.1191  2.3639
 7881TIP3   OH245057   3.508   1.233  13.847  0.5660 -0.5022 -0.1038
 7881TIP3    H145058   3.448   1.285  13.792 -0.2266  0.1628  1.3467
 7881TIP3    H245059   3.451   1.173  13.894  1.3673 -1.9306 -0.8871
 7882TIP3   OH245060   3.524   6.672   3.440  0.4056  0.4318 -0.4020
 7882TIP3    H145061   3.451   6.732   3.457 -0.7968 -0.7625 -1.1995
 7882TIP3    H245062   3.490   6.610   3.376  1.3823 -1.4943  0.8446
 7883TIP3   OH245063   2.480   6.421   6.284 -1.0347 -0.2893  0.1424
 7883TIP3    H145064   2.486   6.342   6.231 -0.6616  0.4104 -0.8997
 7883TIP3    H245065   2.388   6.447   6.279 -1.2292 -0.8529  0.7848
 7884TIP3   OH245066   2.442   3.781   1.280 -0.2913  0.0107 -0.1760
 7884TIP3    H145067   2.530   3.818   1.271 -0.7585  1.2416  0.1239
 7884TIP3    H245068   2.398   3.839   1.342 -1.2978 -0.6293 -0.2742
 7885TIP3   OH245069   1.380   5.413   4.968 -0.0854  0.5741 -0.1312
 7885TIP3    H145070   1.403   5.439   5.057  3.0575 -0.1440 -0.6028
 7885TIP3    H245071   1.367   5.496   4.922 -0.4603  0.9796  0.6771
 7886TIP3   OH245072   2.949   3.379   1.631 -0.3096 -0.8309  0.0244
 7886TIP3    H145073   2.917   3.291   1.650 -0.0754 -0.8540  0.3265
 7886TIP3    H245074   2.993   3.371   1.546 -1.9839 -0.5705 -0.9057
 7887TIP3   OH245075   1.317   1.410  17.276 -0.4108 -0.1069  0.5188
 7887TIP3    H145076   1.408   1.389  17.295  0.1790  1.5860 -0.1680
 7887TIP3    H245077   1.310   1.504  17.296 -2.0277 -0.2338  0.6440
 7888TIP3   OH245078   5.850   5.905  16.193 -0.1164 -0.0119  0.2311
 7888TIP3    H145079   5.853   5.815  16.226  0.2577 -0.1126 -0.0759
 7888TIP3    H245080   5.880   5.958  16.267 -0.8580 -0.0859  0.5926
 7889TIP3   OH245081   2.172   2.150  10.813 -0.2557 -0.0107  0.3011
 7889TIP3    H145082   2.204   2.089  10.747 -2.2142  0.0299 -0.7523
 7889TIP3    H245083   2.110   2.099  10.865 -1.9970  1.0345 -0.6566
 7890TIP3   OH245084   5.310   2.195   3.442  0.5663 -0.2976  0.1823
 7890TIP3    H145085   5.329   2.288   3.447 -0.8103 -0.0556  2.4977
 7890TIP3    H245086   5.395   2.152   3.451  1.0784  0.7413  0.3908
 7891TIP3   OH245087   6.550   1.669  16.925  0.1105 -0.5431 -0.3776
 7891TIP3    H145088   6.531   1.711  17.008  0.1151 -1.6186  0.1798
 7891TIP3    H245089   6.477   1.694  16.868  0.1510  0.2659 -0.0891
 7892TIP3   OH245090   2.517   3.845  11.258 -0.1549  0.2020 -0.1271
 7892TIP3    H145091   2.427   3.812  11.259  0.0912 -0.4832  0.8726
 7892TIP3    H245092   2.570   3.769  11.234  0.1618  0.6134 -0.7556
 7893TIP3   OH245093   3.550   1.586  17.297 -0.6159  0.0508  0.1649
 7893TIP3    H145094   3.585   1.637  17.223 -0.9772  0.6335  0.3927
 7893TIP3    H245095   3.568   1.639  17.374  1.5096 -1.4143  0.7693
 7894TIP3   OH245096   2.579   1.181   4.370 -0.5240  0.2988 -0.0932
 7894TIP3    H145097   2.569   1.153   4.461 -2.6041  0.7515 -0.1388
 7894TIP3    H245098   2.635   1.258   4.374  2.9740 -2.0665  0.3196
 7895TIP3   OH245099   1.042   5.910   1.993  0.7840  0.1695  0.0218
 7895TIP3    H145100   1.088   5.857   2.059  1.0559  2.4916  1.8487
 7895TIP3    H245101   0.961   5.938   2.036 -0.2258 -0.2019 -1.5489
 7896TIP3   OH245102   2.978   2.838   2.709 -0.4748 -0.3711  0.1980
 7896TIP3    H145103   3.002   2.929   2.690  0.1410 -0.1838  1.6672
 7896TIP3    H245104   3.007   2.789   2.633 -2.3514  0.8398 -1.4169
 7897TIP3   OH245105   5.409   1.926   4.973  0.0818 -0.3481 -0.3393
 7897TIP3    H145106   5.449   2.002   4.931 -2.7797  0.0116 -2.8024
 7897TIP3    H245107   5.458   1.851   4.939  2.1653  0.2117  1.1959
 7898TIP3   OH245108   0.340   0.756   3.607 -0.3907  0.1705  0.0993
 7898TIP3    H145109   0.356   0.670   3.646  0.1157 -0.4709 -1.4453
 7898TIP3    H245110   0.250   0.751   3.573  0.0744 -0.2351 -1.1260
 7899TIP3   OH245111   1.869   4.459  14.021  0.1027  0.0319  0.7786
 7899TIP3    H145112   1.836   4.492  14.105 -1.2043  1.5426 -0.2781
 7899TIP3    H245113   1.796   4.471  13.960  2.0618  2.1379 -1.3398
 7900TIP3   OH245114   0.615   2.599   0.903 -0.1316  0.0759  0.3532
 7900TIP3    H145115   0.534   2.560   0.870 -1.3784  0.4447  2.7618
 7900TIP3    H245116   0.609   2.589   0.998  1.6064  2.1654  0.7434
 7901TIP3   OH245117   1.141   1.300  15.514 -0.7861 -0.1728  0.3410
 7901TIP3    H145118   1.211   1.239  15.537 -0.9755  0.3709  2.6666
 7901TIP3    H245119   1.180   1.359  15.450  0.3760 -0.8548  0.3938
 7902TIP3   OH245120   5.134   1.189  14.573 -0.3123  0.5019  0.6281
 7902TIP3    H145121   5.141   1.169  14.667  0.2895  0.6965  0.6297
 7902TIP3    H245122   5.097   1.277  14.571 -1.1696  0.1553  0.6580
 7903TIP3   OH245123   6.501   6.753  12.763  0.6415  0.5219  0.1685
 7903TIP3    H145124   6.551   6.764  12.682 -0.6596  1.0774 -0.5809
 7903TIP3    H245125   6.501   6.840  12.803 -2.0816  1.3092 -1.2866
 7904TIP3   OH245126   4.440   0.883  14.307  0.1809  0.4054 -0.4275
 7904TIP3    H145127   4.439   0.900  14.213 -0.1551  0.1673 -0.4705
 7904TIP3    H245128   4.466   0.966  14.346  2.9736 -0.1791 -0.8556
 7905TIP3   OH245129   3.703   2.009   1.653  0.1741  0.6809 -0.0448
 7905TIP3    H145130   3.665   1.923   1.671  0.1790  0.2873 -1.7691
 7905TIP3    H245131   3.650   2.070   1.705 -1.1647 -0.1505 -0.3857
 7906TIP3   OH245132   3.823   0.456   5.942  0.2828  0.3491 -0.0940
 7906TIP3    H145133   3.743   0.502   5.966 -0.7808 -0.8491 -1.2387
 7906TIP3    H245134   3.814   0.370   5.984  0.8892  0.1439 -0.3809
 7907TIP3   OH245135   2.249   3.894   4.262 -0.2854 -0.2379  0.0994
 7907TIP3    H145136   2.179   3.831   4.282  0.9480 -1.1204  1.9559
 7907TIP3    H245137   2.298   3.852   4.192 -0.3098 -0.7088  0.3518
 7908TIP3   OH245138   3.409   2.850  13.312 -0.1087 -0.5895  0.2786
 7908TIP3    H145139   3.359   2.899  13.247  0.6684 -0.9780 -0.6286
 7908TIP3    H245140   3.391   2.758  13.293  0.7831 -0.7329  0.0488
 7909TIP3   OH245141   4.241   1.940  14.737  0.0150 -0.0247 -0.1395
 7909TIP3    H145142   4.192   1.964  14.815  0.0836  0.6305 -0.2952
 7909TIP3    H245143   4.204   1.994  14.667  2.7183  2.5850  0.2308
 7910TIP3   OH245144   0.516   3.609  15.818  0.5849 -0.0164  0.0993
 7910TIP3    H145145   0.438   3.600  15.874  0.5274  1.3390  0.2761
 7910TIP3    H245146   0.545   3.699  15.832  1.6621 -0.2261 -0.6632
 7911TIP3   OH245147   3.137   1.584   0.424 -0.2420  0.0723  0.3203
 7911TIP3    H145148   3.056   1.629   0.397  0.0251 -0.0290 -0.6887
 7911TIP3    H245149   3.183   1.648   0.479  0.5317  1.4018 -1.7585
 7912TIP3   OH245150   3.240   0.221   2.545  0.5561 -0.7229  0.5145
 7912TIP3    H145151   3.192   0.297   2.578  0.5123 -1.0013  1.0989
 7912TIP3    H245152   3.321   0.220   2.596  1.4020 -0.0088 -0.7475
 7913TIP3   OH245153   5.282   3.026   3.165  0.2200 -1.1175 -0.1225
 7913TIP3    H145154   5.247   3.006   3.251 -1.9083  0.3178 -0.5543
 7913TIP3    H245155   5.315   3.116   3.173  1.0919 -1.3865 -0.5313
 7914TIP3   OH245156   0.491   4.992   5.671  0.4918 -0.2371 -0.0955
 7914TIP3    H145157   0.530   4.974   5.757 -0.9090 -0.2365  0.5578
 7914TIP3    H245158   0.514   5.083   5.653  4.4797 -1.3594 -1.7520
 7915TIP3   OH245159   0.296   0.029   0.199  0.0114  0.1392 -0.0145
 7915TIP3    H145160   0.353   0.090   0.151 -0.9604  0.8294 -0.3183
 7915TIP3    H245161   0.255   0.083   0.266 -0.4820 -0.2969  0.0359
 7916TIP3   OH245162   3.772   3.069  15.827 -0.2455  0.1623  0.0682
 7916TIP3    H145163   3.712   3.141  15.849 -0.2676  0.1981 -0.1131
 7916TIP3    H245164   3.714   2.997  15.800 -0.2058  0.2039 -0.1279
 7917TIP3   OH245165   6.338   4.571   5.254  0.4969 -0.2981 -0.2866
 7917TIP3    H145166   6.276   4.593   5.323 -1.8637 -0.2442 -2.2793
 7917TIP3    H245167   6.415   4.625   5.272 -0.4519  0.4884  1.6640
 7918TIP3   OH245168   0.931   3.955  13.668  0.2156 -0.2944  0.2255
 7918TIP3    H145169   0.916   3.990  13.580  2.9332  2.1507  0.5702
 7918TIP3    H245170   0.963   3.867  13.654 -0.4432 -0.3395 -1.1469
 7919TIP3   OH245171   4.234   1.326   2.472 -0.1895 -0.1576  0.2860
 7919TIP3    H145172   4.319   1.367   2.456  0.0431 -0.6982  0.0989
 7919TIP3    H245173   4.201   1.304   2.385 -2.1596  3.1869  0.0322
 7920TIP3   OH245174   1.414   3.076  12.538  0.3919 -0.5409  0.4615
 7920TIP3    H145175   1.319   3.081  12.530  0.2955 -0.4639  1.5252
 7920TIP3    H245176   1.433   2.982  12.534  0.0335 -0.7293  2.5056
 7921TIP3   OH245177   6.651   4.047   0.173  0.3580  0.0499  0.2683
 7921TIP3    H145178   6.568   4.071   0.131  0.3337  0.5863  0.6131
 7921TIP3    H245179   6.640   3.955   0.195  0.6649 -0.4686 -1.5698
 7922TIP3   OH245180   0.303   6.178  15.482  0.5667 -0.3151 -0.9155
 7922TIP3    H145181   0.208   6.182  15.491  0.6762  1.1866 -0.1414
 7922TIP3    H245182   0.336   6.188  15.572  1.4705  0.3722 -1.3038
 7923TIP3   OH245183   5.445   3.384  12.914 -1.0420 -0.3743  0.0929
 7923TIP3    H145184   5.493   3.301  12.907 -0.9118 -0.2539 -0.5225
 7923TIP3    H245185   5.471   3.433  12.836 -0.6844  0.4832  0.7366
 7924TIP3   OH245186   0.864   4.626  17.339  0.1625 -0.3722 -0.3442
 7924TIP3    H145187   0.897   4.559  17.279 -0.7119 -1.0745 -0.0422
 7924TIP3    H245188   0.770   4.630  17.323  0.1749  0.6992 -0.2650
 7925TIP3   OH245189   6.266   1.198   3.244  0.2751  0.2992 -0.3479
 7925TIP3    H145190   6.337   1.223   3.303  1.5523  0.4901 -1.9244
 7925TIP3    H245191   6.290   1.112   3.211 -1.0678 -0.3752  0.3399
 7926TIP3   OH245192   2.507   4.978   4.254 -0.4325  0.0487  0.7743
 7926TIP3    H145193   2.525   4.936   4.170  1.9547  1.4562  0.4875
 7926TIP3    H245194   2.428   4.934   4.286 -3.4518  1.5883 -3.6076
 7927TIP3   OH245195   3.954   0.154   0.838  0.5899  0.4698 -0.5726
 7927TIP3    H145196   3.906   0.162   0.920  1.0302  1.1669 -0.3727
 7927TIP3    H245197   4.046   0.143   0.865  0.6775  0.2092 -0.9649
 7928TIP3   OH245198   0.439   5.035  16.072 -0.5058  0.4504 -0.4818
 7928TIP3    H145199   0.517   5.087  16.093 -0.7742  0.5949  0.1749
 7928TIP3    H245200   0.368   5.079  16.118 -0.6161 -0.9414  0.7441
 7929TIP3   OH245201   2.155   3.588   0.481 -0.4272  0.1877  0.4004
 7929TIP3    H145202   2.157   3.563   0.388 -0.1854  0.7688  0.2456
 7929TIP3    H245203   2.067   3.564   0.510 -1.0337  1.3517 -0.3680
 7930TIP3   OH245204   6.203   1.411   5.639  0.2995 -0.2307  0.4061
 7930TIP3    H145205   6.225   1.351   5.710 -0.2661  1.4164  2.0855
 7930TIP3    H245206   6.281   1.464   5.626 -0.0913  0.4908  0.9150
 7931TIP3   OH245207   2.714   1.017   4.205  0.6148  0.0080 -0.1960
 7931TIP3    H145208   2.665   1.053   4.279  0.6611  0.2439 -0.2815
 7931TIP3    H245209   2.647   0.982   4.146  0.6258 -1.7059  0.7312
 7932TIP3   OH245210   1.145   1.595  12.911  0.6426  0.1673  0.2956
 7932TIP3    H145211   1.185   1.664  12.858  1.4674  0.5407  1.3687
 7932TIP3    H245212   1.161   1.622  13.002 -0.6807 -0.4839  0.7440
 7933TIP3   OH245213   5.224   3.677   2.762 -0.1154  0.1589 -0.5720
 7933TIP3    H145214   5.227   3.602   2.704 -1.2018  1.1363 -1.9636
 7933TIP3    H245215   5.185   3.747   2.709  1.4675  1.9042  0.4384
 7934TIP3   OH245216   5.404   3.350  12.203  0.7643  0.0944 -0.0374
 7934TIP3    H145217   5.376   3.432  12.244  0.8895  1.1650 -1.9748
 7934TIP3    H245218   5.467   3.312  12.265 -1.6635 -0.2348  2.4194
 7935TIP3   OH245219   6.228   4.385   3.783 -0.0110  0.1127 -0.4176
 7935TIP3    H145220   6.149   4.438   3.795  0.5311  0.5680  1.5983
 7935TIP3    H245221   6.200   4.310   3.732 -1.2435  1.3605 -1.6419
 7936TIP3   OH245222   5.004   4.994  17.315  0.1826 -0.0278  0.2246
 7936TIP3    H145223   5.026   4.913  17.360  0.5122  0.1900  0.4538
 7936TIP3    H245224   5.026   4.977  17.223 -0.2071 -0.3649  0.1919
 7937TIP3   OH245225   3.731   0.655   0.291 -0.0079  0.0198  0.3820
 7937TIP3    H145226   3.755   0.715   0.361 -0.0048  0.3310  0.1184
 7937TIP3    H245227   3.635   0.664   0.285  0.0476  0.4007 -0.0107
 7938TIP3   OH245228   6.231   3.737  15.452 -0.5199  1.1720  0.3445
 7938TIP3    H145229   6.288   3.796  15.501 -1.4533  1.3336  1.2641
 7938TIP3    H245230   6.143   3.772  15.466 -1.1580 -0.7395  1.3739
 7939TIP3   OH245231   4.570   0.611  15.066  0.7100 -0.3860 -0.2206
 7939TIP3    H145232   4.583   0.701  15.096 -0.8680 -0.9401  2.3877
 7939TIP3    H245233   4.642   0.596  15.004  2.4271  1.8567  1.0801
 7940TIP3   OH245234   0.907   3.715   4.078 -0.4730 -0.1852 -0.2026
 7940TIP3    H145235   0.916   3.799   4.033 -1.5844  0.3596  0.5643
 7940TIP3    H245236   0.972   3.659   4.036  0.0781  0.9631 -0.9345
 7941TIP3   OH245237   5.411   0.280  15.117  0.0072 -0.1917  0.3133
 7941TIP3    H145238   5.384   0.372  15.123 -1.4692 -0.5216 -0.7594
 7941TIP3    H245239   5.419   0.252  15.208 -0.6289  0.6962  0.6654
 7942TIP3   OH245240   1.652   4.141  15.484  0.2156  0.2390  0.7300
 7942TIP3    H145241   1.635   4.202  15.412  4.0989  2.4092  1.3809
 7942TIP3    H245242   1.610   4.182  15.560 -0.7045 -0.1211  0.4327
 7943TIP3   OH245243   4.695   4.362  16.468  1.0111 -0.5755  0.0670
 7943TIP3    H145244   4.661   4.451  16.476  0.3134 -0.6767 -1.4893
 7943TIP3    H245245   4.743   4.348  16.550  1.1515  1.2211  0.3419
 7944TIP3   OH245246   0.312   3.951   0.013  0.2833  0.4349 -0.2473
 7944TIP3    H145247   0.363   3.906   0.080 -2.3953 -0.3038  1.4111
 7944TIP3    H245248   0.314   3.892  -0.063 -2.9346 -2.6531  1.7765
 7945TIP3   OH245249   3.027   2.259  13.922  0.2346 -0.0776  0.7332
 7945TIP3    H145250   3.090   2.210  13.974 -1.1048 -0.3428  2.1832
 7945TIP3    H245251   3.000   2.331  13.979 -0.4395  0.2790 -0.0274
 7946TIP3   OH245252   1.351   0.526  16.087  0.1500 -0.3811  0.5759
 7946TIP3    H145253   1.430   0.571  16.059  0.0983 -1.3143 -1.2892
 7946TIP3    H245254   1.279   0.574  16.045  0.0449 -1.6480 -0.8037
 7947TIP3   OH245255   5.563   5.731   6.446 -0.0597 -0.2452 -0.4964
 7947TIP3    H145256   5.592   5.644   6.474 -1.5351 -0.5364  0.2408
 7947TIP3    H245257   5.469   5.721   6.430 -0.3439  1.3166  0.0277
 7948TIP3   OH245258   4.688   0.749  13.969 -0.1217 -0.2163 -0.4865
 7948TIP3    H145259   4.594   0.759  13.960 -0.4041 -1.9492  0.1489
 7948TIP3    H245260   4.725   0.810  13.905 -1.6348  0.8568 -0.3878
 7949TIP3   OH245261   3.885   5.956  15.368 -0.3061 -0.5648 -1.0765
 7949TIP3    H145262   3.828   6.032  15.378  0.6633  0.0400  0.1988
 7949TIP3    H245263   3.833   5.882  15.399 -0.6562 -0.1367 -0.6381
 7950TIP3   OH245264   1.754   4.571  16.372  0.4250  0.5517  0.0408
 7950TIP3    H145265   1.659   4.559  16.365  0.6633 -1.0087 -1.1850
 7950TIP3    H245266   1.791   4.492  16.330  2.2688  0.1546  2.2345
 7951TIP3   OH245267   1.209   0.525   4.824  0.3654  0.4472  0.1361
 7951TIP3    H145268   1.285   0.539   4.881 -0.1720 -0.3139  1.0571
 7951TIP3    H245269   1.174   0.440   4.851  0.0358  0.1122 -1.2686
 7952TIP3   OH245270   3.413   6.376  14.247  0.8659  0.0533 -0.0661
 7952TIP3    H145271   3.401   6.443  14.180  0.5942 -0.0939 -0.1670
 7952TIP3    H245272   3.335   6.321  14.240  0.5119  0.4159  0.8014
 7953TIP3   OH245273   1.401   0.570  13.823 -0.4733 -0.0258 -0.0323
 7953TIP3    H145274   1.390   0.481  13.789 -0.8687 -0.5144  1.3385
 7953TIP3    H245275   1.391   0.562  13.917  0.9903  1.2430  0.2784
 7954TIP3   OH245276   0.986   3.098  17.008  0.6714  0.2104 -0.4385
 7954TIP3    H145277   0.941   3.162  16.954 -0.0493 -0.3135 -0.4651
 7954TIP3    H245278   1.048   3.150  17.060 -0.1537  0.9726 -0.1986
 7955TIP3   OH245279   3.360   1.601  13.201 -0.5762  0.1603  0.3175
 7955TIP3    H145280   3.379   1.695  13.209  0.2298  0.0885 -0.5267
 7955TIP3    H245281   3.386   1.564  13.286  0.3079  0.5248  0.2153
 7956TIP3   OH245282   6.718   2.125  14.334  0.3235  0.3459  0.4844
 7956TIP3    H145283   6.764   2.051  14.374  1.3324  0.8256  0.2347
 7956TIP3    H245284   6.661   2.158  14.404  0.6099 -0.0485  0.9111
 7957TIP3   OH245285   6.211   5.330  11.232 -0.3136  0.1154  0.0878
 7957TIP3    H145286   6.216   5.248  11.183 -2.6697  0.0118 -0.1142
 7957TIP3    H245287   6.161   5.388  11.176 -0.4195  1.0192  1.0917
 7958TIP3   OH245288   6.606   0.182   5.489 -0.4159  0.2446 -0.6702
 7958TIP3    H145289   6.605   0.238   5.411  1.1225  0.4949 -0.5495
 7958TIP3    H245290   6.667   0.226   5.549 -0.7228 -0.5208  0.2279
 7959TIP3   OH245291   0.110   1.177  10.950  0.1927  0.0461  0.0853
 7959TIP3    H145292   0.039   1.139  10.897  0.2046  0.9430 -0.5925
 7959TIP3    H245293   0.154   1.238  10.892  1.1816 -0.0740  0.6795
 7960TIP3   OH245294   6.033   5.100  16.989  0.2275 -0.0757  0.2575
 7960TIP3    H145295   6.022   5.005  16.984 -0.7366  0.0742 -1.5820
 7960TIP3    H245296   5.944   5.135  16.984  0.6320  0.9277 -0.2730
 7961TIP3   OH245297   6.303   6.287   4.471 -0.2325 -0.1370  0.0991
 7961TIP3    H145298   6.340   6.199   4.466  0.5890  0.1468  0.8668
 7961TIP3    H245299   6.343   6.334   4.397  0.7476  0.0835  0.7475
 7962TIP3   OH245300   4.850   6.632   4.409 -0.1260  0.3700 -0.6142
 7962TIP3    H145301   4.939   6.636   4.445 -0.1689  3.0145 -0.5998
 7962TIP3    H245302   4.793   6.651   4.484 -0.8474 -2.0716 -0.4450
 7963TIP3   OH245303   4.714   5.421  16.332  0.1321  0.6468 -0.2017
 7963TIP3    H145304   4.802   5.414  16.369  0.1700 -1.3931 -0.5520
 7963TIP3    H245305   4.656   5.423  16.408  0.4820  3.0194  0.0601
 7964TIP3   OH245306   4.114   6.133  13.517  0.1109 -0.0674  0.2562
 7964TIP3    H145307   4.194   6.180  13.540  0.3136  0.0219 -0.5772
 7964TIP3    H245308   4.113   6.057  13.575  1.2643 -0.5463 -0.3138
 7965TIP3   OH245309   5.982   1.882  17.159 -0.2935 -0.3879 -0.2871
 7965TIP3    H145310   5.983   1.850  17.249 -1.6200  1.2741  0.3890
 7965TIP3    H245311   6.067   1.926  17.148 -0.7199  0.7543  0.7318
 7966TIP3   OH245312   2.818   1.908  11.079 -0.0910 -0.1738 -0.4492
 7966TIP3    H145313   2.824   1.994  11.036  1.6111 -0.1301 -0.2093
 7966TIP3    H245314   2.788   1.849  11.010  0.1744  0.3471 -1.0305
 7967TIP3   OH245315   5.456   5.629   2.765  0.0956  0.1489  0.0307
 7967TIP3    H145316   5.533   5.685   2.757  0.2443 -0.1266 -0.5583
 7967TIP3    H245317   5.486   5.542   2.738 -0.4075  0.0325 -0.1733
 7968TIP3   OH245318   1.329   0.220  16.200  0.1203  0.1527 -0.0754
 7968TIP3    H145319   1.378   0.271  16.265 -0.3912  1.3649 -0.5954
 7968TIP3    H245320   1.394   0.194  16.135  0.5675 -0.7402  0.7235
 7969TIP3   OH245321   5.973   0.410   4.735  0.3422 -0.6518 -0.2829
 7969TIP3    H145322   6.064   0.432   4.752  0.1654 -0.5428  0.5962
 7969TIP3    H245323   5.944   0.473   4.670  0.8787 -0.6503 -0.5231
 7970TIP3   OH245324   1.440   0.319   2.695  0.2059  0.0775  0.0941
 7970TIP3    H145325   1.454   0.309   2.601  1.3883 -1.2287  0.3734
 7970TIP3    H245326   1.398   0.237   2.722  0.4978  0.1524  0.7999
 7971TIP3   OH245327   4.236   1.234   4.658 -0.1779 -0.3658 -0.0821
 7971TIP3    H145328   4.152   1.213   4.698 -0.1097  0.4205  0.5049
 7971TIP3    H245329   4.301   1.196   4.717 -0.1136 -1.2449 -0.6984
 7972TIP3   OH245330   4.423   4.689   3.655 -0.2918 -0.0089 -0.3064
 7972TIP3    H145331   4.330   4.687   3.632 -0.4272  2.9901 -0.3930
 7972TIP3    H245332   4.424   4.700   3.750 -0.2071  2.8332 -0.5489
 7973TIP3   OH245333   5.602   0.752   5.045 -0.1204  0.3060  0.5806
 7973TIP3    H145334   5.653   0.716   5.117 -0.4757  0.7248  1.0519
 7973TIP3    H245335   5.665   0.799   4.991  0.1729 -0.1346  0.5382
 7974TIP3   OH245336   0.264   2.909   0.575 -0.2294 -0.4857  0.2639
 7974TIP3    H145337   0.295   2.821   0.592  0.0580 -0.8895 -2.0266
 7974TIP3    H245338   0.327   2.946   0.514  0.4249  1.8574  2.1741
 7975TIP3   OH245339   3.190   2.220   1.530  0.5022  0.1693  0.3275
 7975TIP3    H145340   3.181   2.154   1.599  1.1923  1.1243  1.3544
 7975TIP3    H245341   3.209   2.169   1.451  0.7944 -0.8791  1.0512
 7976TIP3   OH245342   2.177   4.060   0.363 -0.3782 -0.1734  0.4171
 7976TIP3    H145343   2.203   3.987   0.419  2.1250 -0.1533 -0.5964
 7976TIP3    H245344   2.196   4.138   0.414 -0.4854 -0.1901  0.4822
 7977TIP3   OH245345   4.953   4.116  12.434 -0.0485 -0.0692 -0.1138
 7977TIP3    H145346   4.975   4.136  12.342 -1.8148 -2.2064 -1.0981
 7977TIP3    H245347   5.031   4.072  12.468  0.4996  0.4309 -0.6876
 7978TIP3   OH245348   5.081   1.646   5.466  0.5844  0.0420  0.0078
 7978TIP3    H145349   5.157   1.631   5.411 -0.5925 -1.2521 -1.3838
 7978TIP3    H245350   5.012   1.592   5.427 -0.9919  0.9744  1.3311
 7979TIP3   OH245351   0.873   2.991   2.738 -0.3125 -0.0069 -0.7477
 7979TIP3    H145352   0.950   2.953   2.780 -0.9511  0.6518  1.1020
 7979TIP3    H245353   0.906   3.072   2.697 -0.1277  0.6619  0.6622
 7980TIP3   OH245354   5.732   4.646  14.521 -0.6392  0.2691  0.3652
 7980TIP3    H145355   5.668   4.711  14.549 -1.6206  0.9511 -3.0121
 7980TIP3    H245356   5.681   4.584  14.468  0.9967 -0.9979  0.1942
 7981TIP3   OH245357   4.792   1.954   1.977  0.2115 -0.1896  0.1355
 7981TIP3    H145358   4.822   1.925   2.064 -1.3869  0.9764  1.1338
 7981TIP3    H245359   4.698   1.937   1.978  0.3557 -1.4759 -1.9516
 7982TIP3   OH245360   1.090   1.039   3.732  0.2347  0.1519 -0.3118
 7982TIP3    H145361   1.078   1.076   3.644 -0.0315  2.1403  0.5063
 7982TIP3    H245362   1.173   1.076   3.762 -0.7849  1.4443  1.1277
 7983TIP3   OH245363   1.909   1.464   4.459 -0.0097  0.0698 -0.4223
 7983TIP3    H145364   1.836   1.433   4.512 -1.3431 -0.1346 -2.2577
 7983TIP3    H245365   1.960   1.385   4.441 -0.3426 -0.1117 -0.5919
 7984TIP3   OH245366   1.928   6.684   1.700  0.5716  0.3596 -0.3122
 7984TIP3    H145367   1.898   6.628   1.628  0.4679  0.8166 -0.6296
 7984TIP3    H245368   1.963   6.761   1.657 -0.7741  1.2770  0.1546
 7985TIP3   OH245369   1.987   2.549   4.182 -0.1477 -0.5529  0.3297
 7985TIP3    H145370   2.024   2.522   4.266  0.6796  4.2898  1.7959
 7985TIP3    H245371   1.893   2.530   4.190  0.0818 -1.1871  1.8562
 7986TIP3   OH245372   6.467   2.824   3.274 -0.3342 -0.4615  0.0459
 7986TIP3    H145373   6.389   2.878   3.266 -0.9968 -1.1316  1.4958
 7986TIP3    H245374   6.520   2.868   3.341  1.0368  0.5122 -1.5905
 7987TIP3   OH245375   6.526   4.740  11.755  0.6470 -0.0296 -0.1615
 7987TIP3    H145376   6.479   4.796  11.817 -0.9718  0.7659 -2.0022
 7987TIP3    H245377   6.619   4.755  11.774  0.2077  0.9465  1.3622
 7988TIP3   OH245378   5.968   0.660   5.750 -0.4952  0.3821  0.0745
 7988TIP3    H145379   6.037   0.704   5.700 -0.6288 -1.1080 -1.5508
 7988TIP3    H245380   5.990   0.676   5.842  1.2743  1.0363 -0.4283
 7989TIP3   OH245381   3.894   4.747   0.474  0.1635 -0.2446 -0.5065
 7989TIP3    H145382   3.900   4.656   0.444  2.4513 -0.2291 -0.2164
 7989TIP3    H245383   3.983   4.780   0.468 -0.0156  1.0193  2.4525
 7990TIP3   OH245384   0.802   1.134  10.978  0.0839  0.3379  0.0091
 7990TIP3    H145385   0.861   1.100  11.045  2.6006  1.1609 -1.6496
 7990TIP3    H245386   0.844   1.113  10.895 -2.5867 -0.0593 -1.3735
 7991TIP3   OH245387   2.733   1.217  12.917 -0.0691 -0.2487  0.2706
 7991TIP3    H145388   2.651   1.207  12.868  0.2719  0.4585 -0.4680
 7991TIP3    H245389   2.722   1.160  12.993 -0.6045 -1.3998 -0.6335
 7992TIP3   OH245390   6.716   5.316  17.110  0.0849 -0.6472 -0.1272
 7992TIP3    H145391   6.778   5.382  17.079 -1.1755  0.3316 -0.6740
 7992TIP3    H245392   6.682   5.275  17.030 -0.5847 -0.5807  0.1149
 7993TIP3   OH245393   1.944   1.477  11.677  0.4917 -0.3638 -0.2617
 7993TIP3    H145394   1.887   1.403  11.657  0.6324 -0.4360 -0.4001
 7993TIP3    H245395   1.889   1.554  11.666  0.2710 -0.4618  0.1412
 7994TIP3   OH245396   2.280   2.160   5.777 -0.0030 -0.4140 -0.2453
 7994TIP3    H145397   2.292   2.213   5.698 -1.4548 -0.2042 -0.3526
 7994TIP3    H245398   2.342   2.197   5.840  0.9939 -0.4211 -1.1868
 7995TIP3   OH245399   1.731   5.659   2.528  0.7177  0.5355 -0.2470
 7995TIP3    H145400   1.703   5.602   2.600  1.9082 -0.8319 -0.8051
 7995TIP3    H245401   1.683   5.626   2.451 -0.1549  1.6525 -0.2043
 7996TIP3   OH245402   5.287   6.424   6.352  0.3912 -0.4296 -0.1475
 7996TIP3    H145403   5.208   6.463   6.313 -0.9960 -1.6639  1.3014
 7996TIP3    H245404   5.316   6.359   6.288  0.6017  0.4203 -0.9451
 7997TIP3   OH245405   1.179   0.577  15.032  0.8064 -0.6101 -0.0066
 7997TIP3    H145406   1.108   0.625  14.990  1.0954 -1.4752 -1.5698
 7997TIP3    H245407   1.218   0.640  15.092  0.6151  0.8365 -1.3176
 7998TIP3   OH245408   1.277   0.058  16.993 -0.3753 -0.1467  0.7630
 7998TIP3    H145409   1.363   0.016  16.984 -0.2639  0.3121 -0.5846
 7998TIP3    H245410   1.215  -0.012  16.973 -0.1914  0.2209 -1.4244
 7999TIP3   OH245411   3.351   2.357  11.620 -0.2188 -0.0060 -0.8900
 7999TIP3    H145412   3.406   2.434  11.611  0.8693 -0.4565  1.1500
 7999TIP3    H245413   3.265   2.384  11.590  0.4422  1.6061 -1.4070
 8000TIP3   OH245414   0.856   0.375   1.737 -0.5222 -0.4671 -0.5972
 8000TIP3    H145415   0.944   0.352   1.766 -0.4553 -0.8011 -1.0573
 8000TIP3    H245416   0.861   0.468   1.714  0.2057 -0.9293 -2.4321
 8001TIP3   OH245417   5.741   3.421  16.628  0.0705  0.1760  0.1675
 8001TIP3    H145418   5.711   3.477  16.557  0.6007  0.9455  0.5331
 8001TIP3    H245419   5.822   3.382  16.595 -0.9757 -1.4518 -0.5990
 8002TIP3   OH245420   4.977   5.907  16.074 -0.3317 -0.5427 -0.6652
 8002TIP3    H145421   4.982   6.003  16.084 -1.0294 -0.4947 -0.7534
 8002TIP3    H245422   5.031   5.888  15.998  2.2590 -0.5468  1.0406
 8003TIP3   OH245423   4.241   4.164   3.603 -0.5612  0.6110  0.4451
 8003TIP3    H145424   4.232   4.223   3.678  0.6362 -0.3489  1.3931
 8003TIP3    H245425   4.283   4.217   3.535 -0.6449  1.1907  0.8413
 8004TIP3   OH245426   4.689   0.102  14.841 -0.1534 -0.0884  0.2503
 8004TIP3    H145427   4.634   0.027  14.865  0.5241 -0.2806  1.2446
 8004TIP3    H245428   4.731   0.129  14.922  0.3768  0.7551 -0.2847
 8005TIP3   OH245429   2.890   4.658   1.480 -0.3811  0.0205  0.2481
 8005TIP3    H145430   2.927   4.694   1.560 -2.0728  1.7450  0.3386
 8005TIP3    H245431   2.795   4.669   1.490 -0.6898 -0.5450 -1.6063
 8006TIP3   OH245432   3.759   5.482   2.199  0.4219  0.1905 -0.2212
 8006TIP3    H145433   3.830   5.473   2.136 -0.2003 -1.1035 -0.7729
 8006TIP3    H245434   3.715   5.564   2.174  0.3363 -0.1812 -1.3125
 8007TIP3   OH245435   5.268   4.263  14.836 -0.1739 -0.1166  0.6179
 8007TIP3    H145436   5.321   4.206  14.891 -0.1958 -0.8785 -0.1250
 8007TIP3    H245437   5.330   4.322  14.794  0.3950 -2.2401 -1.7347
 8008TIP3   OH245438   6.007   3.557  15.050  0.6345 -0.3773  0.1300
 8008TIP3    H145439   6.011   3.652  15.061  1.1119 -0.6023  2.5093
 8008TIP3    H245440   5.939   3.529  15.112  0.0334 -1.5420 -1.0281
 8009TIP3   OH245441   0.533   1.439  14.962 -0.3099  0.1868  0.4273
 8009TIP3    H145442   0.567   1.360  14.918 -2.6305 -0.6211 -0.0356
 8009TIP3    H245443   0.548   1.509  14.900 -0.9950 -0.4510 -0.4813
 8010TIP3   OH245444   3.823   0.466   3.916 -0.1043 -0.1501  0.1346
 8010TIP3    H145445   3.728   0.477   3.915 -0.0393  2.7702  3.6673
 8010TIP3    H245446   3.836   0.374   3.939 -1.8717 -1.2571 -2.7517
 8011TIP3   OH245447   1.497   3.920  13.951 -0.2631 -0.4061  0.8303
 8011TIP3    H145448   1.516   3.961  13.867 -1.3807  2.1615  1.7345
 8011TIP3    H245449   1.583   3.895  13.985  0.4877  1.1230  0.1588
 8012TIP3   OH245450   6.279   3.651  12.957  0.1221 -0.1340  0.4721
 8012TIP3    H145451   6.309   3.567  12.993  1.6345  0.2280  0.1063
 8012TIP3    H245452   6.220   3.686  13.024 -1.8957 -2.2073 -0.0609
 8013TIP3   OH245453   1.109   5.571   5.204 -1.1247 -0.1633  0.2634
 8013TIP3    H145454   1.087   5.594   5.114  1.5128 -0.4162 -0.5479
 8013TIP3    H245455   1.175   5.635   5.229  1.6263 -2.7376  0.2496
 8014TIP3   OH245456   6.153   0.423   2.799  0.1448 -0.3292  0.3862
 8014TIP3    H145457   6.182   0.332   2.801 -0.4664 -0.5217  0.6296
 8014TIP3    H245458   6.066   0.422   2.838  0.0149  0.3188  0.1329
 8015TIP3   OH245459   4.482   3.356   3.914 -0.1141  0.5220 -0.0757
 8015TIP3    H145460   4.442   3.326   3.832  0.1183 -0.9088  0.3137
 8015TIP3    H245461   4.448   3.296   3.981  0.7221  0.8558  0.6657
 8016TIP3   OH245462   4.939   0.025  15.694  0.2001  0.3163 -0.5025
 8016TIP3    H145463   5.009  -0.008  15.751 -0.5903 -2.0334 -0.7578
 8016TIP3    H245464   4.977   0.022  15.606  1.2438  3.4559 -0.2959
 8017TIP3   OH245465   3.056   0.534   5.365 -0.0154  0.3496 -0.1760
 8017TIP3    H145466   2.999   0.604   5.334 -0.5136  0.2064  0.4094
 8017TIP3    H245467   3.123   0.578   5.418 -1.4210  0.2323  1.7940
 8018TIP3   OH245468   5.413   6.206  13.792  0.5330 -0.5821 -0.0447
 8018TIP3    H145469   5.460   6.253  13.861  0.3981 -0.1588 -0.2403
 8018TIP3    H245470   5.442   6.247  13.711 -0.0473 -0.4346 -0.1786
 8019TIP3   OH245471   3.239   6.363  16.118  0.0003  0.2358  0.2547
 8019TIP3    H145472   3.224   6.382  16.211  0.7244  1.1348  0.2064
 8019TIP3    H245473   3.304   6.293  16.119  0.3504  0.5576  0.4331
 8020TIP3   OH245474   4.384   5.694   1.503  0.4833  0.1822  0.3666
 8020TIP3    H145475   4.415   5.650   1.581 -0.6931 -0.5670  0.4343
 8020TIP3    H245476   4.425   5.647   1.430  0.2444 -0.2036  0.4807
 8021TIP3   OH245477   2.875   1.156   0.003 -0.6469  0.0197 -0.4169
 8021TIP3    H145478   2.863   1.207   0.083  2.6489  2.3488 -1.2172
 8021TIP3    H245479   2.844   1.214  -0.067  2.9716  1.0755 -1.3273
 8022TIP3   OH245480   3.451   5.835  13.753 -0.2670 -0.0907 -0.3876
 8022TIP3    H145481   3.416   5.767  13.811  0.0610  1.4936  1.7784
 8022TIP3    H245482   3.377   5.895  13.739  0.7825  2.1469  2.5191
 8023TIP3   OH245483   2.626   2.726  11.649  0.1873 -0.1307  0.1084
 8023TIP3    H145484   2.587   2.800  11.696  0.4569  1.1061 -1.5243
 8023TIP3    H245485   2.587   2.730  11.561 -1.6051 -3.3730  0.5970
 8024TIP3   OH245486   3.676   2.749  13.033  0.1884  0.0250 -0.1329
 8024TIP3    H145487   3.721   2.768  13.115 -0.5155 -2.7120  0.9959
 8024TIP3    H245488   3.621   2.673  13.053  1.2893 -1.8846 -3.5874
 8025TIP3   OH245489   2.909   5.988  12.264 -0.1434 -0.3687  0.2140
 8025TIP3    H145490   2.913   5.925  12.337  1.3008 -0.9568 -0.3522
 8025TIP3    H245491   2.955   5.944  12.192 -0.7962  0.5636 -0.7950
 8026TIP3   OH245492   1.186   0.958  14.948  0.0730  0.0138 -0.0552
 8026TIP3    H145493   1.119   0.889  14.944 -0.2629  0.3702 -0.7878
 8026TIP3    H245494   1.199   0.984  14.857  0.1906  0.9177  0.2084
 8027TIP3   OH245495   6.092   5.837  12.326 -0.3186  0.4487  0.3485
 8027TIP3    H145496   6.121   5.763  12.379 -1.1897 -0.1331  0.0385
 8027TIP3    H245497   5.998   5.823  12.315 -0.3554  1.1842 -0.3609
 8028TIP3   OH245498   4.136   1.454   5.392 -0.3518  0.5652  0.4753
 8028TIP3    H145499   4.209   1.428   5.336 -0.1876  1.1667  0.4071
 8028TIP3    H245500   4.173   1.455   5.480 -0.9460 -1.7284  0.8150
 8029TIP3   OH245501   2.032   0.358   3.476 -0.4710 -0.3348 -0.1281
 8029TIP3    H145502   2.038   0.384   3.567 -1.4675  0.1486 -0.1865
 8029TIP3    H245503   1.953   0.304   3.471 -1.2115  0.7864 -0.9553
 8030TIP3   OH245504   1.654   6.017   0.763  0.1991 -0.0081  0.5716
 8030TIP3    H145505   1.579   5.972   0.723  1.7426 -0.9562 -1.4339
 8030TIP3    H245506   1.670   5.969   0.844 -1.6757  0.5764  1.3403
 8031TIP3   OH245507   5.347   0.776  13.328  0.1676 -0.6883  0.3225
 8031TIP3    H145508   5.275   0.839  13.336  1.0273  0.2887  0.6351
 8031TIP3    H245509   5.336   0.737  13.241  0.0367  0.4430 -0.1832
 8032TIP3   OH245510   0.581   1.719   4.919 -0.2667 -0.1188 -0.0942
 8032TIP3    H145511   0.500   1.730   4.969  0.6804  0.1431  1.4169
 8032TIP3    H245512   0.642   1.781   4.957  0.9137 -0.8868 -0.6824
 8033TIP3   OH245513   3.211   5.104  16.306 -0.0352  0.4761 -0.3290
 8033TIP3    H145514   3.249   5.092  16.220 -0.5269  0.2164 -0.5105
 8033TIP3    H245515   3.210   5.199  16.319 -2.8809  0.7720 -1.9633
 8034TIP3   OH245516   2.364   2.665  14.283  0.0857 -0.6143  0.0876
 8034TIP3    H145517   2.302   2.615  14.230  1.3896 -0.1339 -2.0064
 8034TIP3    H245518   2.370   2.750  14.239 -0.3313  0.6189  2.2466
 8035TIP3   OH245519   0.642   6.444  16.307  0.6368 -0.7195 -0.3165
 8035TIP3    H145520   0.691   6.427  16.226  0.2140  0.4616 -0.8538
 8035TIP3    H245521   0.693   6.512  16.351  1.5621 -2.2574  1.0819
 8036TIP3   OH245522   2.792   4.351   3.006  0.3650 -0.2567  0.1634
 8036TIP3    H145523   2.759   4.429   3.050  0.9927 -1.0711  2.1640
 8036TIP3    H245524   2.885   4.368   2.992  0.1325  0.0886 -1.1439
 8037TIP3   OH245525   4.602   0.262   3.644  0.0672 -0.0098 -0.0044
 8037TIP3    H145526   4.680   0.216   3.674  0.0117 -0.1393 -0.0596
 8037TIP3    H245527   4.579   0.320   3.716  1.9092  2.1938 -1.0604
 8038TIP3   OH245528   3.707   0.891  12.734  0.1532  0.1548  0.2872
 8038TIP3    H145529   3.710   0.983  12.758  0.6081  0.2252 -0.0331
 8038TIP3    H245530   3.615   0.874  12.715 -0.5033 -0.2077  3.2037
 8039TIP3   OH245531   3.257   2.028  12.488  0.1816 -0.0335  0.0242
 8039TIP3    H145532   3.342   2.069  12.503 -0.6916  2.1880 -0.6134
 8039TIP3    H245533   3.227   2.001  12.575  2.4935 -3.0689  0.0125
 8040TIP3   OH245534   2.428   3.964  16.269  0.1052 -0.4512 -0.2550
 8040TIP3    H145535   2.485   3.914  16.328  0.4046  1.3788  1.1071
 8040TIP3    H245536   2.339   3.941  16.297  0.2399 -0.0261  0.5453
 8041TIP3   OH245537   1.734   6.176  15.437  0.4078  1.2525 -0.1328
 8041TIP3    H145538   1.641   6.157  15.444  0.2493  1.4077 -1.4985
 8041TIP3    H245539   1.747   6.196  15.344  2.1883 -0.8354 -0.4193
 8042TIP3   OH245540   1.402   2.970   1.342  0.5587  0.0693  0.2851
 8042TIP3    H145541   1.422   2.905   1.276  0.9739  0.9110 -0.4445
 8042TIP3    H245542   1.322   2.938   1.384 -1.0011  0.5717 -2.1058
 8043TIP3   OH245543   5.981   0.181  14.545  0.3069  0.3332 -0.8740
 8043TIP3    H145544   5.995   0.209  14.636 -1.4589  0.1821 -0.5180
 8043TIP3    H245545   5.994   0.087  14.546 -2.2931 -0.1113 -0.1244
 8044TIP3   OH245546   4.232   5.517  12.436 -0.1065 -1.0517 -0.0663
 8044TIP3    H145547   4.192   5.571  12.504 -0.6159 -0.9319 -0.4564
 8044TIP3    H245548   4.170   5.520  12.363  0.9758 -0.1826 -0.9956
 8045TIP3   OH245549   6.647   3.861  10.952 -0.3890 -0.6383 -0.4198
 8045TIP3    H145550   6.577   3.808  10.990 -0.0353 -0.8011  0.0052
 8045TIP3    H245551   6.649   3.940  11.006  0.6404 -1.2129  0.4085
 8046TIP3   OH245552   5.517   3.539  16.449  0.1451 -0.5062  0.1765
 8046TIP3    H145553   5.426   3.547  16.480 -0.0082 -1.4337 -0.0011
 8046TIP3    H245554   5.508   3.517  16.356  0.5910  2.6023 -0.7319
 8047TIP3   OH245555   5.709   4.110   1.340 -0.4527  0.1713 -0.4933
 8047TIP3    H145556   5.795   4.100   1.381 -0.7037 -1.3030 -0.2787
 8047TIP3    H245557   5.727   4.154   1.257  0.3215  1.1559  0.1616
 8048TIP3   OH245558   3.322   5.023  11.398  0.1715  0.6014  0.0365
 8048TIP3    H145559   3.312   4.935  11.361  0.7020 -0.0195  1.2998
 8048TIP3    H245560   3.270   5.079  11.341 -1.3919 -0.7535  0.0575
 8049TIP3   OH245561   6.517   5.111   0.785 -0.2378 -0.0854  0.1133
 8049TIP3    H145562   6.477   5.127   0.700  0.6545 -1.1186 -0.5208
 8049TIP3    H245563   6.558   5.195   0.808 -1.1807  0.4408 -0.0670
 8050TIP3   OH245564   5.330   3.306   3.091  0.3446  0.0426 -0.2314
 8050TIP3    H145565   5.415   3.350   3.084  0.3775 -0.1372 -1.0781
 8050TIP3    H245566   5.304   3.291   3.000 -0.4200 -0.2405  0.0319
 8051TIP3   OH245567   1.253   4.393  14.292 -0.0807 -0.0205 -0.1715
 8051TIP3    H145568   1.323   4.368  14.232  0.6878 -0.1181  0.7318
 8051TIP3    H245569   1.197   4.316  14.296  0.2054 -0.2387 -0.3003
 8052TIP3   OH245570   1.160   1.527  16.629  0.0052 -0.3691  0.5019
 8052TIP3    H145571   1.111   1.534  16.547  0.2890  0.9096  0.4100
 8052TIP3    H245572   1.248   1.558  16.606 -0.5986  2.7581  1.8254
 8053TIP3   OH245573   4.163   3.425  14.760  0.0266 -0.2737 -0.3555
 8053TIP3    H145574   4.168   3.520  14.766  1.5625 -0.3953  1.4261
 8053TIP3    H245575   4.197   3.404  14.673  1.8960  0.7534  0.0671
 8054TIP3   OH245576   3.081   1.525   6.269 -0.1221 -0.8909 -0.2330
 8054TIP3    H145577   3.058   1.573   6.349  3.2853  1.5419 -0.4894
 8054TIP3    H245578   3.017   1.555   6.205  0.2820  1.3979  0.3221
 8055TIP3   OH245579   3.628   5.850  15.037  0.0852  0.4136  0.4283
 8055TIP3    H145580   3.599   5.871  15.126 -0.4254 -2.9527  1.2007
 8055TIP3    H245581   3.547   5.852  14.985  0.2193  1.3659  0.2437
 8056TIP3   OH245582   3.376   4.371  10.934 -0.0694 -0.3585 -0.6200
 8056TIP3    H145583   3.395   4.420  10.855  0.1268  0.2275 -0.2157
 8056TIP3    H245584   3.389   4.434  11.005 -0.8332 -0.7127 -0.1589
 8057TIP3   OH245585   4.912   6.713  12.374 -0.6928 -0.4158 -0.2750
 8057TIP3    H145586   4.965   6.723  12.294 -1.9616 -1.3494 -1.2762
 8057TIP3    H245587   4.888   6.803  12.398  0.3970 -0.0605 -0.4439
 8058TIP3   OH245588   1.227   6.074   0.745 -0.0763 -0.1145  0.3783
 8058TIP3    H145589   1.153   6.033   0.789 -0.1546  1.1405  1.5035
 8058TIP3    H245590   1.270   6.125   0.814  1.1894  0.0610 -0.5021
 8059TIP3   OH245591   1.492   4.486   1.328  0.0534  0.8514  0.4573
 8059TIP3    H145592   1.419   4.503   1.269 -0.5990 -1.1779  0.6198
 8059TIP3    H245593   1.453   4.444   1.404  1.2277  1.0169  1.1894
 8060TIP3   OH245594   5.868   2.412  11.531  0.0548 -0.3653  0.6052
 8060TIP3    H145595   5.868   2.476  11.460  1.2523  1.5871  2.2621
 8060TIP3    H245596   5.943   2.354  11.511 -0.4421 -0.6895 -0.3918
 8061TIP3   OH245597   0.211   5.869   4.378  0.1640 -0.3246 -0.6028
 8061TIP3    H145598   0.298   5.831   4.387  0.4346  0.1799 -1.0732
 8061TIP3    H245599   0.185   5.849   4.288  0.4610  0.9050 -0.9818
 8062TIP3   OH245600   4.792   5.850   0.631  0.1779  0.5359 -0.4331
 8062TIP3    H145601   4.804   5.945   0.621 -1.5939  0.8397  0.0724
 8062TIP3    H245602   4.700   5.835   0.610  0.9215 -1.4273 -2.7550
 8063TIP3   OH245603   3.098   5.005  14.273 -0.0541  0.0530 -0.7542
 8063TIP3    H145604   3.082   4.917  14.240 -0.0365 -0.2815  0.1145
 8063TIP3    H245605   3.152   5.046  14.205  0.5726 -0.8540 -0.8220
 8064TIP3   OH245606   5.101   6.511   4.049 -0.1598  0.0481  0.0984
 8064TIP3    H145607   5.167   6.449   4.018 -0.5140 -1.0170  1.3807
 8064TIP3    H245608   5.142   6.554   4.124 -0.4388  0.3304  0.0896
 8065TIP3   OH245609   3.566   4.301  11.575  0.1176  0.3114  0.1029
 8065TIP3    H145610   3.637   4.365  11.578 -0.5601  1.0944 -0.2596
 8065TIP3    H245611   3.522   4.318  11.491  0.0496 -0.7719 -0.0974
 8066TIP3   OH245612   2.118   3.299   2.243  0.1894  0.3729 -0.7456
 8066TIP3    H145613   2.129   3.215   2.198 -2.4653  0.1743 -1.1796
 8066TIP3    H245614   2.129   3.364   2.174  0.8378  0.3234 -0.6954
 8067TIP3   OH245615   5.585   4.646  14.260 -0.2917 -0.2831 -0.4374
 8067TIP3    H145616   5.563   4.556  14.235 -1.1346 -0.0701 -0.4969
 8067TIP3    H245617   5.506   4.696  14.240  0.0572  0.4139 -0.0941
 8068TIP3   OH245618   1.639   1.543  11.762  0.3600  0.6529  0.0535
 8068TIP3    H145619   1.615   1.635  11.773 -0.7684  0.4082 -0.2957
 8068TIP3    H245620   1.567   1.494  11.802  1.1979 -0.0887  0.7199
 8069TIP3   OH245621   3.051   4.282  11.839  0.6107 -0.1223 -0.6828
 8069TIP3    H145622   2.972   4.227  11.841 -0.8521  1.8629  0.0625
 8069TIP3    H245623   3.056   4.320  11.927  1.6359  0.7972 -1.1158
 8070TIP3   OH245624   2.244   0.192  11.972 -0.1284  0.2736  0.3939
 8070TIP3    H145625   2.327   0.157  12.005  0.6219  1.9567  0.3970
 8070TIP3    H245626   2.200   0.226  12.050  0.5720  2.0898  0.0583
 8071TIP3   OH245627   2.001   1.259  15.488 -0.4404  0.0903 -0.4810
 8071TIP3    H145628   2.024   1.352  15.484  0.4017 -0.1409 -2.0064
 8071TIP3    H245629   1.953   1.243  15.407 -0.1955 -0.9009 -0.4418
 8072TIP3   OH245630   2.555   0.313   6.132  0.4427  0.7508  0.0585
 8072TIP3    H145631   2.558   0.409   6.128  0.6999  0.7947  1.0584
 8072TIP3    H245632   2.464   0.291   6.113  0.4244  1.1774 -0.3658
 8073TIP3   OH245633   1.649   4.767  15.530 -0.6004  0.4564 -0.1274
 8073TIP3    H145634   1.724   4.762  15.588 -1.0331  0.7422  0.4693
 8073TIP3    H245635   1.610   4.853  15.548 -2.1984 -0.4497  1.0303
 8074TIP3   OH245636   6.368   1.939   0.472  0.4976  0.0909  0.5333
 8074TIP3    H145637   6.435   2.003   0.447  1.7592 -0.9114  1.1910
 8074TIP3    H245638   6.376   1.870   0.407 -1.5106  0.9707 -0.7385
 8075TIP3   OH245639   2.264   1.269   1.300  0.4611  0.0573  0.6706
 8075TIP3    H145640   2.341   1.267   1.243  1.2211  2.2542  1.5062
 8075TIP3    H245641   2.297   1.298   1.385 -1.4269  2.6762  0.6563
 8076TIP3   OH245642   0.466   2.796  13.450  0.0573  0.2095 -0.1147
 8076TIP3    H145643   0.435   2.757  13.532 -2.1445  1.5858 -0.2043
 8076TIP3    H245644   0.431   2.740  13.382  0.7571 -0.1744 -0.1734
 8077TIP3   OH245645   0.743   0.290   3.851  0.5843  0.3094  0.3164
 8077TIP3    H145646   0.802   0.359   3.821 -1.6201  2.2895  0.2368
 8077TIP3    H245647   0.767   0.278   3.943  1.5832  0.5177  0.1048
 8078TIP3   OH245648   0.545   1.181   0.998 -0.2701  0.3096  0.5941
 8078TIP3    H145649   0.577   1.229   0.922 -0.5732  0.0078  0.2772
 8078TIP3    H245650   0.619   1.126   1.025 -0.6948 -0.8666 -0.5276
 8079TIP3   OH245651   0.286   1.349  15.075 -0.6230 -0.6609  0.0496
 8079TIP3    H145652   0.356   1.364  15.137 -2.4829  1.5406  1.7797
 8079TIP3    H245653   0.295   1.419  15.010 -1.3400 -0.2169  0.4188
 8080TIP3   OH245654   5.283   1.231   3.415  0.2949 -0.5642  0.0040
 8080TIP3    H145655   5.339   1.190   3.481  2.1762 -1.1140 -1.8474
 8080TIP3    H245656   5.270   1.163   3.349  0.4951  0.7065 -1.3758
 8081TIP3   OH245657   5.385   3.360  14.577 -0.0083 -0.3479 -0.4654
 8081TIP3    H145658   5.395   3.415  14.499  0.8533 -1.2335 -1.0208
 8081TIP3    H245659   5.442   3.285  14.559  1.3252  0.0832  1.6276
 8082TIP3   OH245660   5.840   4.761  15.438 -0.6607  0.1998  0.1022
 8082TIP3    H145661   5.809   4.688  15.384 -0.4877 -1.5835  2.2859
 8082TIP3    H245662   5.910   4.801  15.386  0.2333 -2.0908 -0.6036
 8083TIP3   OH245663   6.586   3.481  15.240  0.1359 -0.2461 -0.4370
 8083TIP3    H145664   6.556   3.488  15.331 -0.4361 -1.7721 -0.4788
 8083TIP3    H245665   6.678   3.508  15.243 -0.1625  0.7495  0.3927
 8084TIP3   OH245666   4.467   6.678  16.385 -0.2884  0.0273  0.5917
 8084TIP3    H145667   4.530   6.721  16.443 -0.5212  0.6110  0.4244
 8084TIP3    H245668   4.520   6.640  16.316 -0.2189  3.1104 -1.2675
 8085TIP3   OH245669   4.887   1.326   4.881  0.0308  0.3955  0.0351
 8085TIP3    H145670   4.845   1.282   4.954  1.0289  0.3292  0.5858
 8085TIP3    H245671   4.849   1.414   4.880  0.2841  0.5199  0.8759
 8086TIP3   OH245672   0.540   1.396   4.438 -0.5614 -0.4465 -0.4359
 8086TIP3    H145673   0.592   1.372   4.515 -0.7819  1.9315  0.5292
 8086TIP3    H245674   0.605   1.408   4.368 -0.1534 -0.7139 -0.1055
 8087TIP3   OH245675   0.861   1.435  16.687 -0.3577  0.0497  0.0846
 8087TIP3    H145676   0.885   1.357  16.736  3.4701  1.2089  0.3905
 8087TIP3    H245677   0.828   1.496  16.753  1.4835  0.3876  0.7482
 8088TIP3   OH245678   5.922   3.074  13.245  0.0860  0.1892 -0.4237
 8088TIP3    H145679   5.971   3.010  13.194  0.3082  0.2269 -0.2615
 8088TIP3    H245680   5.863   3.115  13.182 -0.9445 -1.0358 -0.2736
 8089TIP3   OH245681   4.016   3.005  11.761 -0.0751  0.4497  0.2210
 8089TIP3    H145682   3.977   3.087  11.791 -0.5408  1.0166 -1.7701
 8089TIP3    H245683   4.025   3.016  11.666  0.1213 -1.6970 -0.0612
 8090TIP3   OH245684   5.889   6.729  13.135  0.3764  0.0263 -0.0887
 8090TIP3    H145685   5.871   6.702  13.045  1.8153  0.7473 -0.6221
 8090TIP3    H245686   5.808   6.769  13.165 -0.1657 -0.3494 -1.0095
 8091TIP3   OH245687   5.943   6.632   3.362 -0.5186  0.5316 -0.2793
 8091TIP3    H145688   6.026   6.650   3.407 -0.6771 -0.4737  0.4661
 8091TIP3    H245689   5.887   6.706   3.386 -0.2108  0.6252  0.1878
 8092TIP3   OH245690   5.138   0.173  15.252 -0.1085  0.0752  0.2533
 8092TIP3    H145691   5.173   0.107  15.192  0.0566 -1.1427  1.6258
 8092TIP3    H245692   5.212   0.195  15.308 -0.0208  1.8509 -0.4840
 8093TIP3   OH245693   2.094   5.369   5.679  0.2709 -0.5519  0.4566
 8093TIP3    H145694   2.047   5.429   5.622 -2.9860 -2.4885  0.8366
 8093TIP3    H245695   2.052   5.378   5.764 -0.2746 -3.1627  0.5492
 8094TIP3   OH245696   0.570   4.709  13.584  0.6971  0.0420 -0.3906
 8094TIP3    H145697   0.592   4.617  13.597  1.7014  0.3621  0.3062
 8094TIP3    H245698   0.494   4.708  13.525  0.4523 -1.2312 -0.0740
 8095TIP3   OH245699   2.906   6.520   3.110 -0.0115  0.0422 -0.0130
 8095TIP3    H145700   2.966   6.595   3.103  1.2801 -0.9897 -0.4788
 8095TIP3    H245701   2.937   6.472   3.187  0.4334 -1.0346 -0.8218
 8096TIP3   OH245702   3.590   6.750  13.400 -0.4038  0.1704 -0.3883
 8096TIP3    H145703   3.625   6.729  13.313  0.7240  1.4825 -0.2797
 8096TIP3    H245704   3.664   6.740  13.459 -0.3932  2.0376 -0.0085
 8097TIP3   OH245705   0.801   1.062   1.103  0.1721 -0.1597 -0.2470
 8097TIP3    H145706   0.811   1.157   1.094 -0.4512 -0.1520 -0.9475
 8097TIP3    H245707   0.832   1.043   1.191  0.6973  0.6397 -0.2524
 8098TIP3   OH245708   1.487   0.200  17.250 -0.0753  0.6428 -0.7096
 8098TIP3    H145709   1.498   0.109  17.279  0.7324  1.2353  0.9583
 8098TIP3    H245710   1.565   0.245  17.283 -1.9965  2.6378  1.4023
 8099TIP3   OH245711   1.465   2.696  13.622 -0.3295 -0.7274  0.5410
 8099TIP3    H145712   1.491   2.629  13.685  0.4122 -2.0521 -1.0641
 8099TIP3    H245713   1.546   2.719  13.576 -0.3994  1.9462  1.5736
 8100TIP3   OH245714   5.669   6.279  17.178  0.6824  0.8572 -0.4489
 8100TIP3    H145715   5.709   6.360  17.210  1.5518 -0.6702  2.8616
 8100TIP3    H245716   5.730   6.247  17.111  1.4983  1.8431 -0.2038
 8101TIP3   OH245717   5.159   2.524   0.892  0.0472 -0.2470 -0.2765
 8101TIP3    H145718   5.139   2.509   0.984  1.4617  1.8870  0.4610
 8101TIP3    H245719   5.099   2.593   0.865  1.5776  1.2409 -0.0372
 8102TIP3   OH245720   1.678   5.835  13.374  0.1565 -0.8608  0.3690
 8102TIP3    H145721   1.687   5.908  13.434 -0.6195 -1.8740  1.7969
 8102TIP3    H245722   1.612   5.863  13.310  1.1212  0.2966 -0.1326
 8103TIP3   OH245723   6.097   2.332  15.678  0.6205 -0.0107  0.8985
 8103TIP3    H145724   6.104   2.351  15.585 -0.2358 -0.3871  0.7513
 8103TIP3    H245725   6.121   2.239  15.685 -1.6199 -0.6615  0.7038
 8104TIP3   OH245726   0.230   1.922  12.880 -0.2545 -0.0337 -0.4598
 8104TIP3    H145727   0.239   2.017  12.883 -1.4431  0.0742  0.6683
 8104TIP3    H245728   0.270   1.891  12.961 -0.9617 -0.3651 -0.2237
 8105TIP3   OH245729   5.813   6.533   0.091  0.1960  0.3854 -0.3950
 8105TIP3    H145730   5.890   6.480   0.114  0.3108  0.9361  0.5338
 8105TIP3    H245731   5.809   6.529  -0.005  1.4217  0.4076 -0.4610
 8106TIP3   OH245732   6.487   1.352  16.253 -0.2760 -0.3449  0.6349
 8106TIP3    H145733   6.522   1.296  16.184  0.2935  0.6447  0.1030
 8106TIP3    H245734   6.564   1.383  16.300 -0.5981 -0.2090  1.0764
 8107TIP3   OH245735   0.122   0.501   4.958 -0.4170 -0.7733 -0.0355
 8107TIP3    H145736   0.111   0.565   4.887 -0.4866 -0.8736 -0.1159
 8107TIP3    H245737   0.096   0.547   5.037  1.4491 -0.0476  0.2062
 8108TIP3   OH245738   3.922   4.311   5.300  0.3232 -0.0594  0.4120
 8108TIP3    H145739   4.007   4.298   5.342  1.8738 -1.2007 -2.7059
 8108TIP3    H245740   3.918   4.405   5.282  0.3893  0.1747  1.5778
 8109TIP3   OH245741   5.539   4.754  10.998  0.1057  0.3623 -0.2235
 8109TIP3    H145742   5.564   4.838  11.036  0.6361 -0.4204  1.2577
 8109TIP3    H245743   5.444   4.751  11.007  0.2196  0.1691  1.1918
 8110TIP3   OH245744   3.234   6.578   2.724 -0.6517 -0.7103 -0.5107
 8110TIP3    H145745   3.168   6.552   2.787  1.4515  0.9850  2.6938
 8110TIP3    H245746   3.315   6.537   2.755  0.6108  0.7265 -1.6881
 8111TIP3   OH245747   4.616   2.535  16.873  0.0771  0.1730 -0.5802
 8111TIP3    H145748   4.599   2.523  16.967  0.4520 -0.7251 -0.6223
 8111TIP3    H245749   4.614   2.447  16.836  1.8037  0.3115 -1.0908
 8112TIP3   OH245750   2.010   5.180  11.548 -0.3666  0.2046 -0.1379
 8112TIP3    H145751   2.061   5.136  11.481  0.9855  2.6436 -0.8372
 8112TIP3    H245752   2.075   5.221  11.606 -1.5059  0.8545  0.7511
 8113TIP3   OH245753   5.992   5.480  12.400 -0.6876  0.4231 -0.2126
 8113TIP3    H145754   6.010   5.418  12.471  1.7684  0.9141 -0.3021
 8113TIP3    H245755   6.054   5.552  12.415 -0.5721  0.8556 -2.4578
 8114TIP3   OH245756   4.550   1.160  16.318 -0.2214 -0.0825 -0.0644
 8114TIP3    H145757   4.542   1.194  16.407 -0.7486  1.0928 -0.5422
 8114TIP3    H245758   4.460   1.156  16.286  0.0875  1.3798 -1.2100
 8115TIP3   OH245759   2.831   5.588   5.105 -0.0535  0.0301  0.1154
 8115TIP3    H145760   2.834   5.551   5.017 -0.6178 -1.8986  0.8552
 8115TIP3    H245761   2.754   5.547   5.145 -0.9600  2.3270  0.9067
 8116TIP3   OH245762   2.047   3.946  12.971  0.1485 -0.4970 -0.1258
 8116TIP3    H145763   2.107   3.911  12.905 -0.7158 -0.5265 -0.9206
 8116TIP3    H245764   2.100   4.009  13.020  0.9533 -0.8667 -0.5033
 8117TIP3   OH245765   3.897   5.480   5.409 -0.4559  0.1692 -0.6942
 8117TIP3    H145766   3.912   5.385   5.407  0.4782  0.3082 -0.7033
 8117TIP3    H245767   3.803   5.490   5.392 -0.8339 -0.8194  0.6424
 8118TIP3   OH245768   4.137   5.201  14.521  0.2712 -0.4188 -0.4785
 8118TIP3    H145769   4.180   5.253  14.454  0.6082  0.2198  0.2215
 8118TIP3    H245770   4.201   5.133  14.543  0.8853  0.4144  0.4227
 8119TIP3   OH245771   1.076   4.344  15.551  0.6036 -0.3448 -0.3087
 8119TIP3    H145772   1.044   4.433  15.539  0.2789 -0.1417  1.6564
 8119TIP3    H245773   1.170   4.349  15.533  0.7764  0.6480  0.7496
 8120TIP3   OH245774   6.260   3.237  11.926 -0.0206  0.0221  0.3565
 8120TIP3    H145775   6.234   3.232  12.018 -0.5150 -0.8654  0.1772
 8120TIP3    H245776   6.187   3.198  11.878 -0.5492  2.0644 -0.5738
 8121TIP3   OH245777   1.563   6.531  15.050 -0.6152  0.0483 -0.0540
 8121TIP3    H145778   1.468   6.540  15.061 -0.5906 -0.3718  0.5491
 8121TIP3    H245779   1.578   6.436  15.045 -0.3257  0.1334 -1.1242
 8122TIP3   OH245780   6.373   4.595  14.093 -0.2187 -0.0242  0.1268
 8122TIP3    H145781   6.289   4.598  14.046  1.0653  0.6069 -2.2893
 8122TIP3    H245782   6.411   4.510  14.070 -0.1726 -0.3036  1.1999
 8123TIP3   OH245783   4.884   5.583  11.663  0.4655  0.3447 -0.5457
 8123TIP3    H145784   4.946   5.651  11.689  0.2531  0.1162  0.5885
 8123TIP3    H245785   4.807   5.598  11.717  0.1305 -0.3504 -0.8183
 8124TIP3   OH245786   1.702   6.532   3.462 -0.7742 -0.1987  0.0299
 8124TIP3    H145787   1.777   6.501   3.411 -1.6746 -0.7038 -1.0198
 8124TIP3    H245788   1.707   6.628   3.456  0.4239 -0.1711  0.9455
 8125TIP3   OH245789   2.007   5.423  14.855  0.1005  0.0628  0.0740
 8125TIP3    H145790   2.041   5.335  14.876 -2.4033 -1.0062  0.0515
 8125TIP3    H245791   1.949   5.443  14.929 -0.7506  0.9016 -0.8079
 8126TIP3   OH245792   4.525   3.909   0.945 -0.1674 -0.5816 -0.5196
 8126TIP3    H145793   4.550   3.989   0.899  1.3735 -0.5924  0.2510
 8126TIP3    H245794   4.451   3.875   0.894  0.8380 -0.0755 -2.4064
 8127TIP3   OH245795   3.530   2.600   0.866 -0.1742 -0.5766 -0.1380
 8127TIP3    H145796   3.494   2.517   0.897 -1.3624  0.3885  1.2162
 8127TIP3    H245797   3.515   2.662   0.938 -2.6489  1.6997 -2.3809
 8128TIP3   OH245798   1.487   0.551   1.345  0.2591  0.3316  0.2435
 8128TIP3    H145799   1.414   0.551   1.283  1.4104 -0.5678 -1.1674
 8128TIP3    H245800   1.541   0.625   1.319  0.3909  0.3759  0.6334
 8129TIP3   OH245801   1.879   0.103  11.289 -0.7186  0.3339 -0.4929
 8129TIP3    H145802   1.918   0.185  11.320 -1.3477 -0.1805  1.8781
 8129TIP3    H245803   1.785   0.113  11.306 -0.8688 -0.6667 -0.6661
 8130TIP3   OH245804   2.866   1.651  13.896  0.3458  0.1116 -0.2370
 8130TIP3    H145805   2.890   1.680  13.808  0.1998  0.4041 -0.1804
 8130TIP3    H245806   2.920   1.573  13.911  1.6412  1.0405  0.0812
 8131TIP3   OH245807   6.611   1.106  15.739 -0.5032 -0.2837 -0.1374
 8131TIP3    H145808   6.614   1.090  15.833 -0.1146  0.2528 -0.0543
 8131TIP3    H245809   6.554   1.037  15.705 -3.0378  1.1657  0.8552
 8132TIP3   OH245810   6.541   3.802   2.485 -0.2908  0.3989  0.5473
 8132TIP3    H145811   6.577   3.740   2.422 -0.8193  0.2550  0.3844
 8132TIP3    H245812   6.471   3.847   2.438 -0.7352  0.2450  1.0522
 8133TIP3   OH245813   4.546   4.355  15.953  0.3485 -0.1552  0.1408
 8133TIP3    H145814   4.571   4.267  15.924 -0.1753 -0.5512  0.8584
 8133TIP3    H245815   4.523   4.402  15.873  2.9012  0.0993 -0.5309
 8134TIP3   OH245816   6.162   1.920  15.177  0.0300  0.9021 -0.5267
 8134TIP3    H145817   6.257   1.929  15.176 -0.0619  1.8657 -1.2119
 8134TIP3    H245818   6.143   1.876  15.261  1.1257 -0.0356 -0.7440
 8135TIP3   OH245819   1.278   3.892  13.071 -0.1563 -0.4466  0.1016
 8135TIP3    H145820   1.369   3.886  13.101 -0.1342  0.7636  0.3318
 8135TIP3    H245821   1.284   3.910  12.978 -0.2220 -3.6724 -0.6130
 8136TIP3   OH245822   2.311   3.726  14.150 -0.0516 -0.5756  0.1740
 8136TIP3    H145823   2.322   3.654  14.212  1.9571 -0.7748 -0.3753
 8136TIP3    H245824   2.280   3.799  14.204  0.2039 -1.1693  1.1510
 8137TIP3   OH245825   6.276   2.193  10.636  0.1836 -0.5563  0.5201
 8137TIP3    H145826   6.368   2.171  10.655  0.5975 -0.9288 -1.6185
 8137TIP3    H245827   6.248   2.125  10.575 -0.5823  1.2070 -1.1670
 8138TIP3   OH245828   6.563   1.652  13.672 -0.6179 -0.4446 -0.0401
 8138TIP3    H145829   6.658   1.646  13.674 -0.7053 -3.9801  0.4633
 8138TIP3    H245830   6.539   1.673  13.762 -0.3265 -1.8379  0.3849
 8139TIP3   OH245831   5.860   3.887   5.282 -0.2042 -0.5654  0.3316
 8139TIP3    H145832   5.910   3.883   5.200 -1.1073  1.6132 -0.3783
 8139TIP3    H245833   5.925   3.874   5.351  1.3887  1.9740 -0.5692
 8140TIP3   OH245834   6.071   4.439   5.613  0.0737  0.4664 -0.1525
 8140TIP3    H145835   6.123   4.365   5.582 -0.9537 -0.3842  0.1118
 8140TIP3    H245836   6.107   4.457   5.701  1.0072  0.9695 -0.6184
 8141TIP3   OH245837   4.081   5.720  12.571  0.2388 -0.9541 -0.3067
 8141TIP3    H145838   4.092   5.813  12.589  0.4104 -1.4852  3.0611
 8141TIP3    H245839   3.987   5.705  12.579  0.2123 -1.0921 -0.8407
 8142TIP3   OH245840   0.432   5.700  13.662 -0.3831  0.4256 -0.1084
 8142TIP3    H145841   0.426   5.783  13.709  2.0803 -0.1345  1.3891
 8142TIP3    H245842   0.441   5.634  13.731  1.2949 -0.6503 -1.2725
 8143TIP3   OH245843   5.583   4.383   4.945  0.2927 -0.4624 -0.3127
 8143TIP3    H145844   5.644   4.454   4.963 -0.5720 -0.0117  0.9692
 8143TIP3    H245845   5.572   4.385   4.850  1.7027 -0.0987 -0.4879
 8144TIP3   OH245846   3.584   4.183   2.140 -0.3809  0.5421 -0.6142
 8144TIP3    H145847   3.620   4.171   2.053  1.3018 -1.8010  0.3045
 8144TIP3    H245848   3.515   4.117   2.147  0.6395 -0.4625  0.3623
 8145TIP3   OH245849   4.313   6.740   6.144 -0.1510  0.0176  0.3363
 8145TIP3    H145850   4.247   6.785   6.196 -1.7976 -0.6454 -1.1044
 8145TIP3    H245851   4.284   6.649   6.142  2.1340 -0.8367  1.6477
 8146TIP3   OH245852   4.272   5.898  14.592  0.1117 -0.0994 -0.1632
 8146TIP3    H145853   4.201   5.902  14.527  1.4262  0.5372 -1.6256
 8146TIP3    H245854   4.341   5.952  14.554  1.6952 -1.3714  0.8240
 8147TIP3   OH245855   2.964   5.342   4.734  0.0193  0.4095 -0.0215
 8147TIP3    H145856   3.007   5.356   4.650  0.1045 -0.2641 -0.0925
 8147TIP3    H245857   3.032   5.358   4.800  0.1815  0.0591 -0.1079
 8148TIP3   OH245858   0.307   2.360  14.560 -0.0179  0.3628  0.0801
 8148TIP3    H145859   0.216   2.390  14.557  0.0120  0.4764  0.3230
 8148TIP3    H245860   0.346   2.407  14.633 -0.0375 -0.4529  0.6234
 8149TIP3   OH245861   4.279   1.734  16.599 -0.2938 -0.0790  0.2440
 8149TIP3    H145862   4.243   1.822  16.586 -1.8187 -0.4688  1.4896
 8149TIP3    H245863   4.322   1.713  16.516 -0.7144  1.4623 -0.4038
 8150TIP3   OH245864   1.165   3.622  12.338  0.2093 -0.1735 -0.2043
 8150TIP3    H145865   1.162   3.539  12.386  0.8106 -0.0578  0.0377
 8150TIP3    H245866   1.160   3.595  12.246 -1.2667 -0.3731 -0.0862
 8151TIP3   OH245867   2.194   6.230   4.802 -0.1250 -0.8542  0.2926
 8151TIP3    H145868   2.225   6.316   4.772  0.7620 -0.6183  1.7446
 8151TIP3    H245869   2.120   6.210   4.746  0.3380  0.3594 -0.8055
 8152TIP3   OH245870   2.668   1.387  12.706  0.2256 -0.0477  0.2386
 8152TIP3    H145871   2.748   1.346  12.740 -0.3668 -0.4307  1.2012
 8152TIP3    H245872   2.700   1.453  12.644  1.3160  0.3826  1.2199
 8153TIP3   OH245873   6.736   6.711  13.047 -0.0685 -0.2489  0.1483
 8153TIP3    H145874   6.679   6.652  12.999 -0.8786  0.5987  0.0375
 8153TIP3    H245875   6.824   6.689  13.017 -0.5632  0.5320 -2.0572
 8154TIP3   OH245876   3.213   5.182   0.528  0.2633 -0.1481 -0.5237
 8154TIP3    H145877   3.190   5.161   0.437 -0.3916 -3.1776  0.2111
 8154TIP3    H245878   3.308   5.175   0.530  0.2245 -0.9790 -0.8297
 8155TIP3   OH245879   0.820   5.153  13.365  0.5294 -0.2979 -0.0911
 8155TIP3    H145880   0.887   5.090  13.340  0.7430 -1.5736  3.1595
 8155TIP3    H245881   0.868   5.232  13.389  0.2924  1.1085 -3.7149
 8156TIP3   OH245882   6.181   3.988  14.954  0.1857  0.0471 -0.0281
 8156TIP3    H145883   6.237   3.950  14.885  2.0357 -0.9336  1.9002
 8156TIP3    H245884   6.197   4.082  14.948  1.9933 -0.1906  0.3669
 8157TIP3   OH245885   1.150   1.656  12.143  0.3318  0.4634  0.6095
 8157TIP3    H145886   1.242   1.682  12.142  1.0314 -1.7934  0.0377
 8157TIP3    H245887   1.130   1.636  12.051 -0.8340  1.2159  0.6856
 8158TIP3   OH245888   1.375   0.261   3.842  0.7479  0.0609 -0.2913
 8158TIP3    H145889   1.393   0.247   3.749 -1.4665  0.6639 -0.8778
 8158TIP3    H245890   1.404   0.351   3.859 -0.3028  0.5158 -0.8361
 8159TIP3   OH245891   2.869   2.421   2.399 -0.5522  0.6485 -0.1801
 8159TIP3    H145892   2.899   2.386   2.315 -2.8167  1.6532 -1.5009
 8159TIP3    H245893   2.904   2.511   2.401  2.2239 -0.3373  1.5515
 8160TIP3   OH245894   1.375   2.013  11.631 -0.0923  0.2395  0.6837
 8160TIP3    H145895   1.346   2.098  11.663  0.8513  0.5430  0.7789
 8160TIP3    H245896   1.296   1.971  11.597 -0.9872  0.2527  2.6255
 8161TIP3   OH245897   1.069   2.534   5.371  0.5852  0.2084  0.1001
 8161TIP3    H145898   1.004   2.502   5.434  0.6034 -0.1974 -0.0867
 8161TIP3    H245899   1.059   2.630   5.374 -0.6492  0.1220 -0.5802
 8162TIP3   OH245900   6.481   2.478  12.342  0.2699 -0.4089 -0.1683
 8162TIP3    H145901   6.487   2.527  12.260 -0.2258  1.6453  0.9638
 8162TIP3    H245902   6.572   2.455  12.363  0.3951 -1.0189 -1.2986
 8163TIP3   OH245903   0.014   1.507  12.694  0.2445 -0.4578  0.0666
 8163TIP3    H145904   0.027   1.570  12.765 -0.4923  2.0979 -1.9135
 8163TIP3    H245905  -0.079   1.485  12.698  0.5589 -1.7081  0.9338
 8164TIP3   OH245906   1.010   4.835   4.895 -0.6173 -0.2009 -0.4131
 8164TIP3    H145907   0.946   4.778   4.937 -0.8659  0.8166  0.6445
 8164TIP3    H245908   0.965   4.919   4.886  0.1549  0.1842 -0.7759
 8165TIP3   OH245909   1.812   0.503   0.251 -0.1148  0.3995 -0.3472
 8165TIP3    H145910   1.778   0.486   0.339 -1.1210 -0.1604 -0.8172
 8165TIP3    H245911   1.735   0.534   0.202  0.3109  0.1890 -1.1616
 8166TIP3   OH245912   5.412   0.039   1.164 -0.1782 -0.1109 -0.5587
 8166TIP3    H145913   5.330   0.055   1.211  0.5239  1.6561  0.1728
 8166TIP3    H245914   5.464  -0.015   1.224 -0.2489  0.0340 -0.3642
 8167TIP3   OH245915   2.034   2.529   0.931  0.5350 -0.0598  0.7110
 8167TIP3    H145916   2.041   2.580   1.011  1.5574  1.5202 -0.3391
 8167TIP3    H245917   1.971   2.577   0.877  2.0513  0.5581 -0.5808
 8168TIP3   OH245918   4.046   3.994   3.258 -0.4349  0.1115  0.0193
 8168TIP3    H145919   4.094   4.000   3.175  1.1119 -1.2083  0.7597
 8168TIP3    H245920   4.088   3.922   3.305 -2.7859 -0.7277  1.0025
 8169TIP3   OH245921   0.520   4.442   3.878  0.0401  0.3051  0.0918
 8169TIP3    H145922   0.598   4.466   3.828 -0.2982  0.0224 -0.5798
 8169TIP3    H245923   0.547   4.366   3.929 -0.1347 -0.5368 -1.0461
 8170TIP3   OH245924   6.698   4.075   5.786 -0.0679 -0.1422 -0.3796
 8170TIP3    H145925   6.667   4.067   5.696 -0.4687  1.1929 -0.3716
 8170TIP3    H245926   6.675   3.991   5.826 -5.0794  1.0973  0.0246
 8171TIP3   OH245927   1.152   2.798  15.439  0.2586  0.1767 -0.0590
 8171TIP3    H145928   1.223   2.780  15.500  1.3536 -1.8414 -1.7666
 8171TIP3    H245929   1.107   2.714  15.429 -0.2510  0.5857 -1.5242
 8172TIP3   OH245930   2.421   5.524   4.441  0.1661  0.1245 -0.1475
 8172TIP3    H145931   2.505   5.556   4.472 -0.0762  1.1483 -0.4798
 8172TIP3    H245932   2.373   5.501   4.520  0.2285  0.9445  0.1405
 8173TIP3   OH245933   0.212   4.036   5.862  0.0917 -0.4086  0.1384
 8173TIP3    H145934   0.187   4.001   5.947 -2.9773  0.4379 -0.2993
 8173TIP3    H245935   0.140   4.013   5.804  1.2895  0.5128 -1.8398
 8174TIP3   OH245936   0.610   4.510   4.245 -0.0507 -0.2747 -0.6441
 8174TIP3    H145937   0.655   4.426   4.229  1.6224  0.2875  0.8402
 8174TIP3    H245938   0.569   4.500   4.330  0.3287  0.4814 -0.3657
 8175TIP3   OH245939   0.268   2.502   3.640  0.5982 -0.5626  0.6317
 8175TIP3    H145940   0.358   2.513   3.608  0.1218  0.2450 -0.4564
 8175TIP3    H245941   0.237   2.591   3.657 -0.9592 -0.5503 -1.7791
 8176TIP3   OH245942   1.370   0.783   0.937  0.5055 -0.3359  0.2384
 8176TIP3    H145943   1.288   0.802   0.891  1.0505  0.2916 -0.4864
 8176TIP3    H245944   1.435   0.774   0.868  0.9417 -1.4860  0.7698
 8177TIP3   OH245945   4.950   0.731  15.246  0.2903 -0.2996  0.2264
 8177TIP3    H145946   5.038   0.704  15.273  0.1789 -1.1209 -0.1880
 8177TIP3    H245947   4.896   0.653  15.260  0.2359 -0.8335 -2.3691
 8178TIP3   OH245948   0.152   3.588  15.895  0.0162  0.4725  0.0167
 8178TIP3    H145949   0.071   3.573  15.944  1.5331 -2.7510  1.8612
 8178TIP3    H245950   0.205   3.642  15.954  0.0749  0.6525 -0.2013
 8179TIP3   OH245951   0.759   5.921   2.579  0.1061 -0.3573 -0.0768
 8179TIP3    H145952   0.678   5.947   2.622 -1.7221 -2.4083 -2.0003
 8179TIP3    H245953   0.800   5.858   2.639 -0.3843 -0.2486  0.3709
 8180TIP3   OH245954   6.737   2.135   4.167  0.0958 -0.7143 -0.5558
 8180TIP3    H145955   6.810   2.190   4.140  1.5955 -1.5827  1.5271
 8180TIP3    H245956   6.659   2.187   4.146  1.3402  0.8926 -1.3948
 8181TIP3   OH245957   3.936   1.385   5.894  0.0901 -0.3476 -0.3137
 8181TIP3    H145958   3.900   1.453   5.837  0.0675 -0.9840 -1.0714
 8181TIP3    H245959   3.878   1.384   5.970  0.4692  0.9198  0.0216
 8182TIP3   OH245960   3.084   3.320   2.105 -0.0507  0.2709 -0.1960
 8182TIP3    H145961   3.146   3.330   2.033  0.5081 -0.7767  0.1065
 8182TIP3    H245962   3.001   3.298   2.063  0.1950 -0.0191 -0.5347
 8183TIP3   OH245963   6.660   0.879  13.128  0.7244  0.6979  0.3428
 8183TIP3    H145964   6.605   0.867  13.050  0.1106  0.3716  0.8155
 8183TIP3    H245965   6.744   0.840  13.104  0.3754  0.1328  0.0203
 8184TIP3   OH245966   5.504   3.116   2.796 -0.0385 -0.3889  0.0984
 8184TIP3    H145967   5.542   3.183   2.853  0.0048 -0.6843  0.4245
 8184TIP3    H245968   5.492   3.160   2.712 -1.1961  0.4047  0.6476
 8185TIP3   OH245969   6.128   0.311   5.995  0.6417  0.3873 -0.0673
 8185TIP3    H145970   6.079   0.378   6.044 -1.2527 -1.6386  0.9798
 8185TIP3    H245971   6.160   0.251   6.062 -0.1667 -1.2790 -1.0951
 8186TIP3   OH245972   1.327   4.552   3.882  0.0229  0.6627 -0.0974
 8186TIP3    H145973   1.419   4.564   3.904  0.2787 -0.7876 -0.2789
 8186TIP3    H245974   1.322   4.463   3.847 -1.4958  0.6156  0.1696
 8187TIP3   OH245975   4.542   1.441   1.226 -1.1220  0.7018 -0.5336
 8187TIP3    H145976   4.598   1.411   1.154 -0.3736 -0.2485  0.4088
 8187TIP3    H245977   4.461   1.392   1.216 -0.7243 -0.0293 -0.2919
 8188TIP3   OH245978   0.618   2.691  14.973  0.7486 -0.0655  0.1877
 8188TIP3    H145979   0.523   2.692  14.972  0.7370 -0.8985 -0.1448
 8188TIP3    H245980   0.641   2.698  15.066  0.3167 -1.8712  0.4654
 8189TIP3   OH245981   6.564   4.336   5.718  0.6017 -0.1914 -0.0946
 8189TIP3    H145982   6.629   4.274   5.752 -0.1412 -2.4966 -2.4808
 8189TIP3    H245983   6.499   4.344   5.787  1.5263 -0.8451  0.8793
 8190TIP3   OH245984   6.523   3.239   4.653 -0.5515 -0.1320 -0.0253
 8190TIP3    H145985   6.514   3.314   4.594 -0.8577  1.0487  1.4522
 8190TIP3    H245986   6.450   3.248   4.714  0.4922 -0.5529  1.3438
 8191TIP3   OH245987   1.532   2.580   4.755  0.2916 -0.0859 -0.3512
 8191TIP3    H145988   1.445   2.597   4.789  0.3858 -1.0102  0.3735
 8191TIP3    H245989   1.525   2.600   4.661 -0.8120 -0.5906 -0.3905
 8192TIP3   OH245990   5.280   5.256  15.586  0.3513  0.2452  0.4782
 8192TIP3    H145991   5.240   5.204  15.517  0.8560 -1.3873  1.3560
 8192TIP3    H245992   5.230   5.233  15.665  0.0897  1.7013  0.7648
 8193TIP3   OH245993   0.729   5.066   1.738 -0.9861  0.8317 -0.0888
 8193TIP3    H145994   0.797   5.016   1.783 -1.4435  0.9416  0.7381
 8193TIP3    H245995   0.652   5.009   1.738 -0.6259  0.2726 -1.9693
 8194TIP3   OH245996   1.066   6.567  13.109 -0.0901 -0.3468 -0.9437
 8194TIP3    H145997   1.049   6.615  13.190 -1.4856  0.5142 -1.7036
 8194TIP3    H245998   1.117   6.491  13.136  0.3497  0.4509  0.5963
 8195TIP3   OH245999   5.137   1.196  13.649  0.0456  0.0970 -0.6818
 8195TIP3    H146000   5.042   1.210  13.658 -0.0378  0.4388 -1.9036
 8195TIP3    H246001   5.175   1.249  13.719 -0.5614  2.1004 -1.7723
 8196TIP3   OH246002   2.469   3.147  15.561 -0.3173  0.0072  0.0081
 8196TIP3    H146003   2.433   3.206  15.495 -1.3281  2.4766  2.5320
 8196TIP3    H246004   2.402   3.144  15.629 -0.1487 -3.9228  0.1847
 8197TIP3   OH246005   3.463   1.823   0.964  0.0387  0.9555 -0.3814
 8197TIP3    H146006   3.440   1.738   0.926 -0.4645  1.4817 -1.2983
 8197TIP3    H246007   3.543   1.806   1.014 -0.7304 -0.3110  0.4811
 8198TIP3   OH246008   5.043   2.092  16.004 -0.5355 -0.0297 -0.0301
 8198TIP3    H146009   5.089   2.147  15.940  0.5471 -2.1335 -1.1846
 8198TIP3    H246010   4.953   2.123  16.001 -0.1625  1.0513 -1.3492
 8199TIP3   OH246011   2.233   6.622   1.052  0.1120 -0.0142  0.2693
 8199TIP3    H146012   2.241   6.638   0.958  0.3461 -3.5787 -0.4544
 8199TIP3    H246013   2.303   6.674   1.091  0.9971  0.3576 -1.7096
 8200TIP3   OH246014   1.904   5.949  14.215  0.0208  0.5811  0.1571
 8200TIP3    H146015   1.880   5.856  14.216  0.2750  0.4684 -1.8243
 8200TIP3    H246016   1.827   5.993  14.252 -0.2080 -0.3818  0.8802
 8201TIP3   OH246017   1.676   4.652  11.579 -0.3896 -0.0958 -0.1021
 8201TIP3    H146018   1.748   4.691  11.629 -1.8864  0.0184  2.0941
 8201TIP3    H246019   1.635   4.727  11.535 -0.0643  0.0424 -0.1758
 8202TIP3   OH246020   4.096   2.696  16.919 -0.0451  0.6204  0.4045
 8202TIP3    H146021   4.098   2.645  16.999  2.3757  0.4453  0.3046
 8202TIP3    H246022   4.155   2.650  16.859 -1.1390  1.2047 -1.1835
 8203TIP3   OH246023   4.292   2.274  12.187 -0.6595  0.2830 -0.5592
 8203TIP3    H146024   4.379   2.249  12.220 -0.7694 -0.3805 -0.7814
 8203TIP3    H246025   4.277   2.361  12.226  0.2094  0.5177 -0.7173
 8204TIP3   OH246026   6.127   4.096   3.766 -0.5105  0.4704 -0.2031
 8204TIP3    H146027   6.126   4.054   3.681 -1.6801  0.2121 -0.0858
 8204TIP3    H246028   6.064   4.168   3.757  0.1211  1.0795  0.1412
 8205TIP3   OH246029   0.146   1.296  13.537 -0.2574  0.0215  0.0212
 8205TIP3    H146030   0.224   1.275  13.588 -0.8711 -0.0707  0.9326
 8205TIP3    H246031   0.134   1.220  13.480 -0.9645 -0.9709  1.4655
 8206TIP3   OH246032   0.244   5.366   0.263  0.3240  0.0860 -0.4945
 8206TIP3    H146033   0.200   5.285   0.288  3.0352 -1.1079  0.7787
 8206TIP3    H246034   0.177   5.415   0.214 -2.5874 -1.2601  1.7764
 8207TIP3   OH246035   0.900   4.118  15.531  0.7486  0.2357  0.5612
 8207TIP3    H146036   0.914   4.081  15.443  1.0413  0.7607  0.3864
 8207TIP3    H246037   0.946   4.202  15.529  3.1473 -0.9208  2.0929
 8208TIP3   OH246038   0.582   0.826  13.547  0.0677  0.2758 -0.2447
 8208TIP3    H146039   0.671   0.849  13.521 -0.1053 -0.0608 -1.1582
 8208TIP3    H246040   0.542   0.909  13.572  0.2325  0.6082 -1.0846
 8209TIP3   OH246041   6.665   4.460   4.219 -0.0717 -0.5618  0.4385
 8209TIP3    H146042   6.712   4.457   4.136  1.6492 -0.3062  1.3758
 8209TIP3    H246043   6.664   4.552   4.243 -0.3263 -0.6675  0.8375
 8210TIP3   OH246044   6.633   3.361   3.449  0.2233 -0.1012 -0.4523
 8210TIP3    H146045   6.562   3.369   3.512  0.0965 -0.6942 -0.5133
 8210TIP3    H246046   6.706   3.326   3.499  0.1546 -0.4738 -0.6097
 8211TIP3   OH246047   5.338   5.899  17.036  0.2882  0.2139  0.1799
 8211TIP3    H146048   5.330   5.897  17.132  1.1844  2.1010  0.3435
 8211TIP3    H246049   5.418   5.950  17.020 -0.6397  1.2024 -1.5831
 8212TIP3   OH246050   5.534   1.329  11.318 -0.1826  0.1192 -0.3104
 8212TIP3    H146051   5.492   1.247  11.292  1.9429 -1.1989  0.1417
 8212TIP3    H246052   5.576   1.362  11.239 -0.3279  0.3214 -0.3040
 8213TIP3   OH246053   4.697   3.940   0.578 -0.2033  0.6448  0.5458
 8213TIP3    H146054   4.617   3.984   0.610 -2.0472  0.8259 -3.6485
 8213TIP3    H246055   4.745   4.008   0.533  0.6295 -0.1652  0.1858
 8214TIP3   OH246056   4.678   3.597  15.867  0.3244 -0.6480 -0.5605
 8214TIP3    H146057   4.667   3.682  15.909 -0.0151  0.1021 -2.0680
 8214TIP3    H246058   4.653   3.534  15.934 -1.1941  0.5222  0.0441
 8215TIP3   OH246059   6.447   2.327   5.553  0.8477  0.1207  1.0290
 8215TIP3    H146060   6.489   2.261   5.498  2.7148 -0.3808  2.9189
 8215TIP3    H246061   6.500   2.406   5.541  0.4866  0.3889  1.1519
 8216TIP3   OH246062   0.266   5.302   3.134  0.0801 -0.3056  0.6212
 8216TIP3    H146063   0.267   5.214   3.170 -1.0545 -0.2646  0.7893
 8216TIP3    H246064   0.197   5.347   3.184 -0.4068  0.2202 -0.4950
 8217TIP3   OH246065   6.329   6.681  13.304  0.0698  0.3178 -0.5547
 8217TIP3    H146066   6.402   6.740  13.288 -0.9313  2.8770  3.0482
 8217TIP3    H246067   6.251   6.735  13.290 -0.9406 -0.6151  1.1305
 8218TIP3   OH246068   2.910   5.008   3.754  0.1164 -0.6568  0.0067
 8218TIP3    H146069   2.903   4.914   3.736 -0.7907 -0.4197 -0.9440
 8218TIP3    H246070   2.989   5.016   3.808  2.2599 -1.5786 -2.7517
 8219TIP3   OH246071   4.791   0.310   4.156  0.4987 -0.3496 -0.2204
 8219TIP3    H146072   4.724   0.337   4.219  0.2775  0.9229 -0.9536
 8219TIP3    H246073   4.812   0.220   4.179 -2.7876 -1.4480 -1.0693
 8220TIP3   OH246074   3.007   3.257   6.121  0.2527  0.2888  0.0482
 8220TIP3    H146075   2.929   3.223   6.164  0.6836  0.6284  1.1485
 8220TIP3    H246076   2.974   3.302   6.043 -0.7413  1.0965  0.9006
 8221TIP3   OH246077   3.118   3.678   4.601  0.2729  0.1093  0.4853
 8221TIP3    H146078   3.125   3.713   4.690 -0.1133  0.2739  0.4560
 8221TIP3    H246079   3.207   3.679   4.567  0.4736 -0.2843  0.9957
 8222TIP3   OH246080   2.845   0.530  13.735 -0.6031  0.2200  0.1903
 8222TIP3    H146081   2.766   0.578  13.759 -0.6362  0.3135 -0.0974
 8222TIP3    H246082   2.857   0.466  13.805  0.7477  2.1832  1.8835
 8223TIP3   OH246083   0.209   0.578  15.558 -0.2263 -0.1792  0.0990
 8223TIP3    H146084   0.271   0.639  15.596  0.9123 -0.1310 -1.7665
 8223TIP3    H246085   0.258   0.532  15.490 -2.2826  0.1036 -1.6868
 8224TIP3   OH246086   5.227   0.765   4.447  0.8299  0.2582 -0.0137
 8224TIP3    H146087   5.168   0.699   4.411 -0.5472  0.9767  0.8107
 8224TIP3    H246088   5.314   0.738   4.419  0.0058 -0.1031 -2.4499
 8225TIP3   OH246089   5.994   6.421   1.771 -0.0142 -0.1641 -0.4951
 8225TIP3    H146090   5.982   6.449   1.862 -2.3809 -0.6230 -0.5976
 8225TIP3    H246091   5.905   6.421   1.734  0.5759 -2.2975 -2.1067
 8226TIP3   OH246092   2.798   2.355   2.704  0.4106 -0.3917 -0.4061
 8226TIP3    H146093   2.728   2.319   2.757  1.5005 -2.8572 -0.5199
 8226TIP3    H246094   2.763   2.356   2.615 -0.4458  1.1584 -0.0882
 8227TIP3   OH246095   3.037   5.384  15.700 -0.1185  0.6132 -0.4339
 8227TIP3    H146096   3.065   5.336  15.621 -0.7834  2.0894 -1.6191
 8227TIP3    H246097   2.948   5.412  15.679 -0.8611 -0.1981  1.4613
 8228TIP3   OH246098   3.347   3.767  16.655 -0.1236  0.2272 -0.3250
 8228TIP3    H146099   3.309   3.681  16.675 -0.1254  0.1048 -0.8397
 8228TIP3    H246100   3.411   3.781  16.725  2.0596 -1.5435 -1.8160
 8229TIP3   OH246101   1.980   1.155   4.417 -0.5910  0.2331 -0.3192
 8229TIP3    H146102   1.975   1.059   4.424  0.0904  0.1457 -0.9268
 8229TIP3    H246103   2.070   1.176   4.443 -1.1651  0.8643  1.2918
 8230TIP3   OH246104   5.957   2.434  16.439  0.5981  0.3166 -0.5436
 8230TIP3    H146105   5.979   2.345  16.413 -0.7423 -0.4616  0.8426
 8230TIP3    H246106   5.875   2.426  16.487  0.3646  2.3274 -0.5171
 8231TIP3   OH246107   0.478   5.608   3.807 -0.4214 -0.0076  0.2279
 8231TIP3    H146108   0.391   5.645   3.815 -0.5545  0.0312 -1.0742
 8231TIP3    H246109   0.510   5.640   3.722 -0.2918 -2.2841 -0.6604
 8232TIP3   OH246110   1.323   1.296  12.387 -0.6181 -0.0460  0.1300
 8232TIP3    H146111   1.265   1.329  12.456 -0.2033  1.2683 -0.1260
 8232TIP3    H246112   1.369   1.373  12.355 -0.9811 -0.5810 -1.8031
 8233TIP3   OH246113   4.650   2.129   5.627  0.2796  0.1686  0.1116
 8233TIP3    H146114   4.609   2.183   5.695 -0.6003  0.6759 -0.7798
 8233TIP3    H246115   4.648   2.184   5.549 -0.6413 -1.1402 -0.8290
 8234TIP3   OH246116   2.319   4.676  11.910  0.5869  0.8341 -0.9579
 8234TIP3    H146117   2.267   4.603  11.876 -0.4135  0.7754  0.5851
 8234TIP3    H246118   2.261   4.720  11.972  1.9928  1.4775 -0.0432
 8235TIP3   OH246119   4.996   5.899  12.769 -0.7328 -0.4632  0.0562
 8235TIP3    H146120   4.981   5.825  12.829  0.0363 -0.4542  0.2655
 8235TIP3    H246121   5.003   5.858  12.682 -0.8153 -0.5871  0.1076
 8236TIP3   OH246122   3.452   5.123   2.761  0.4164  0.6963 -0.0588
 8236TIP3    H146123   3.376   5.150   2.710  0.0092 -0.4641 -0.0894
 8236TIP3    H246124   3.439   5.029   2.776  0.8461  0.8608  1.6084
 8237TIP3   OH246125   0.831   6.003   2.142 -0.6170  0.3202 -0.7051
 8237TIP3    H146126   0.809   5.946   2.216  0.7602  0.9463  0.2456
 8237TIP3    H246127   0.787   6.086   2.162  0.3121  0.7139 -0.1786
 8238TIP3   OH246128   0.876   6.467  11.237  0.3726  0.4304  0.3287
 8238TIP3    H146129   0.876   6.376  11.264 -0.5803  0.2161 -0.3412
 8238TIP3    H246130   0.838   6.515  11.311 -2.1438 -0.1375 -0.5032
 8239TIP3   OH246131   5.295   5.156   0.312 -0.2172  0.0642 -0.4727
 8239TIP3    H146132   5.301   5.152   0.217  0.8355 -2.2695 -0.3716
 8239TIP3    H246133   5.219   5.101   0.334  0.7231 -1.0777  0.0753
 8240TIP3   OH246134   6.339   3.923  16.274 -0.4265  0.0656 -0.3772
 8240TIP3    H146135   6.377   3.843  16.311 -0.7233 -0.2826 -0.8110
 8240TIP3    H246136   6.327   3.903  16.181 -0.0222  0.8015 -0.5916
 8241TIP3   OH246137   4.625   1.700  15.582  0.1548 -0.7468 -0.1433
 8241TIP3    H146138   4.643   1.606  15.575  2.2221 -0.3934 -0.1609
 8241TIP3    H246139   4.679   1.729  15.655  0.9410  0.7501 -1.2865
 8242TIP3   OH246140   5.718   5.777   2.861 -0.1464  0.5485  0.5824
 8242TIP3    H146141   5.645   5.824   2.900  0.2751 -1.4007  4.1131
 8242TIP3    H246142   5.796   5.812   2.904  0.5769 -0.4616  0.1382
 8243TIP3   OH246143   5.818   5.435  14.415 -0.5144  0.0752  0.1333
 8243TIP3    H146144   5.730   5.409  14.386 -0.5223 -0.2326  0.4337
 8243TIP3    H246145   5.817   5.421  14.510 -0.3343  0.6381  0.2235
 8244TIP3   OH246146   0.579   3.864  16.262  0.2772 -0.0138 -0.4006
 8244TIP3    H146147   0.536   3.779  16.255  0.5666 -0.3122  1.1460
 8244TIP3    H246148   0.543   3.903  16.341 -0.7554  1.8613 -1.7116
 8245TIP3   OH246149   3.798   0.659   3.063 -0.1086  0.1536 -0.2217
 8245TIP3    H146150   3.725   0.694   3.012 -0.9336  0.2499  0.9966
 8245TIP3    H246151   3.768   0.663   3.154  0.9616 -0.8921  0.1978
 8246TIP3   OH246152   2.276   3.659  11.628  0.7874  0.3045 -0.2595
 8246TIP3    H146153   2.367   3.669  11.654  1.0721 -0.8426 -0.7533
 8246TIP3    H246154   2.262   3.564  11.624 -0.9513  0.4015  1.6234
 8247TIP3   OH246155   2.795   0.160  12.874 -0.1794  0.5157  0.1591
 8247TIP3    H146156   2.865   0.204  12.921 -1.4876  1.9646  0.8380
 8247TIP3    H246157   2.774   0.218  12.801  2.2996 -2.0119 -2.8381
 8248TIP3   OH246158   0.596   5.986  16.951 -0.4025  0.5263 -0.0869
 8248TIP3    H146159   0.621   6.012  16.863  0.5166  0.0992  0.0358
 8248TIP3    H246160   0.532   5.915  16.939 -1.4683  1.5027 -0.4048
 8249TIP3   OH246161   5.094   2.315   4.717 -0.0411  0.4121  0.0271
 8249TIP3    H146162   5.151   2.254   4.763  0.0062 -1.2411 -2.0732
 8249TIP3    H246163   5.147   2.394   4.706 -0.0911  0.9156  2.7422
 8250TIP3   OH246164   3.563   3.651  14.206 -0.1545 -0.0394  0.4375
 8250TIP3    H146165   3.560   3.558  14.182  0.4554 -0.3219  1.4432
 8250TIP3    H246166   3.574   3.696  14.122  0.5684 -0.9339  0.0286
 8251TIP3   OH246167   3.869   2.306   4.340 -0.8812  0.3452  0.2162
 8251TIP3    H146168   3.789   2.272   4.300  0.6091 -0.7472 -2.0603
 8251TIP3    H246169   3.863   2.401   4.328 -3.2414  0.7019  3.0374
 8252TIP3   OH246170   3.078   0.394  13.609  0.0634  0.6795 -0.0593
 8252TIP3    H146171   3.019   0.356  13.544  0.8590  2.2544 -1.7840
 8252TIP3    H246172   3.020   0.430  13.676 -0.7719 -0.7989  0.0683
 8253TIP3   OH246173   3.964   4.441   5.653  0.4142 -0.0334 -0.6957
 8253TIP3    H146174   3.910   4.372   5.692 -1.0885  0.0795 -2.4499
 8253TIP3    H246175   3.953   4.515   5.713  0.0432 -0.5617 -0.0924
 8254TIP3   OH246176   4.472   3.665  16.925  1.0181 -0.8419 -0.8737
 8254TIP3    H146177   4.514   3.612  16.992 -2.1350 -2.4216  0.0392
 8254TIP3    H246178   4.492   3.621  16.843  0.1704 -2.3012 -0.3248
 8255TIP3   OH246179   6.599   2.296   3.693  0.3891  0.0593 -0.5134
 8255TIP3    H146180   6.694   2.307   3.700  0.4062 -0.0971 -0.5014
 8255TIP3    H246181   6.570   2.372   3.642  0.5577 -0.0390 -0.7559
 8256TIP3   OH246182   3.203   3.760   3.433  0.1019 -0.0914  0.8798
 8256TIP3    H146183   3.206   3.717   3.518  0.4258  3.3440  2.8026
 8256TIP3    H246184   3.116   3.800   3.430 -0.1976 -0.7776 -0.8073
 8257TIP3   OH246185   4.936   1.354   3.604 -0.0080 -0.2970 -0.8223
 8257TIP3    H146186   4.842   1.371   3.617 -0.3012 -1.6703 -1.0303
 8257TIP3    H246187   4.941   1.260   3.590  1.6845 -0.7061  1.8483
 8258TIP3   OH246188   6.302   4.205   1.938  0.1940 -0.2707  0.4621
 8258TIP3    H146189   6.229   4.147   1.917 -0.2956  0.4514  0.1375
 8258TIP3    H246190   6.309   4.201   2.034  0.3235 -1.0432  0.4283
 8259TIP3   OH246191   3.601   6.375  13.102  0.3946  0.3793  0.1177
 8259TIP3    H146192   3.600   6.320  13.024 -0.9737 -1.8783  1.6196
 8259TIP3    H246193   3.626   6.316  13.173  2.6841  2.5835  1.3355
 8260TIP3   OH246194   3.711   5.311   2.559  0.4633  0.2908 -0.9265
 8260TIP3    H146195   3.713   5.407   2.564 -0.2850  0.2691  1.5616
 8260TIP3    H246196   3.713   5.283   2.651  0.1985 -2.0693 -1.5814
 8261TIP3   OH246197   4.413   6.567   2.095 -0.0928  0.1852 -0.5739
 8261TIP3    H146198   4.333   6.619   2.090  0.5794  1.1737 -1.3184
 8261TIP3    H246199   4.422   6.528   2.008 -1.0900 -2.0125  0.2176
 8262TIP3   OH246200   2.631   0.527   0.442  0.3581  0.4996 -0.3240
 8262TIP3    H146201   2.570   0.595   0.472 -2.3936 -0.5596 -2.9574
 8262TIP3    H246202   2.582   0.480   0.374  3.4894 -1.7469 -1.2328
 8263TIP3   OH246203   6.548   0.097  15.835  0.0091  0.0828  0.3521
 8263TIP3    H146204   6.503   0.159  15.893  1.3648  0.9648  0.5187
 8263TIP3    H246205   6.478   0.047  15.794 -1.1155  1.3598  0.6419
 8264TIP3   OH246206   0.682   5.658   5.048  0.0249 -0.0270 -0.4282
 8264TIP3    H146207   0.589   5.665   5.072 -0.2110 -0.3007 -1.2191
 8264TIP3    H246208   0.712   5.578   5.090  0.7980  1.6590  2.5493
 8265TIP3   OH246209   3.769   3.218   3.953  0.1940 -0.1295  0.4722
 8265TIP3    H146210   3.747   3.274   3.878  0.3118 -0.5657  0.1066
 8265TIP3    H246211   3.728   3.261   4.028  1.5293  1.2489  0.4461
 8266TIP3   OH246212   6.260   5.735  11.791 -0.9984  0.0900  0.0507
 8266TIP3    H146213   6.227   5.751  11.880 -0.8025 -0.6430  0.2680
 8266TIP3    H246214   6.252   5.819  11.746 -0.8201  0.5434  0.8539
 8267TIP3   OH246215   0.737   3.330  13.624  0.0671  0.0698 -0.2264
 8267TIP3    H146216   0.812   3.381  13.595  0.2762 -0.1012  0.0036
 8267TIP3    H246217   0.719   3.362  13.712 -0.0520  0.0249 -0.2350
 8268TIP3   OH246218   3.183   1.667   4.210 -0.0668  0.2322 -0.1788
 8268TIP3    H146219   3.107   1.629   4.166  0.6619 -0.6510 -0.7136
 8268TIP3    H246220   3.155   1.682   4.300 -0.4054 -1.5559  0.0497
 8269TIP3   OH246221   3.861   3.943  14.681  0.2327  0.2887 -0.3344
 8269TIP3    H146222   3.802   4.018  14.675 -0.7388 -0.2738  1.3657
 8269TIP3    H246223   3.946   3.981  14.704 -0.5472  0.8324  1.8891
 8270TIP3   OH246224   1.806   5.076   4.404  0.3804 -0.5259 -0.8201
 8270TIP3    H146225   1.712   5.077   4.387  0.7852 -2.4827 -4.0383
 8270TIP3    H246226   1.835   5.165   4.383 -0.8048  0.5038  1.5115
 8271TIP3   OH246227   0.577   4.151  12.529  0.1327 -0.0324 -0.2862
 8271TIP3    H146228   0.530   4.166  12.448  0.3102 -2.5684 -0.9383
 8271TIP3    H246229   0.669   4.142  12.502  0.2616 -0.3898  0.2500
 8272TIP3   OH246230   5.125   6.148   0.525  0.4949 -0.0998 -0.1431
 8272TIP3    H146231   5.111   6.151   0.431 -2.3038  0.6935  0.2284
 8272TIP3    H246232   5.160   6.234   0.547  0.9985 -0.2309 -0.4170
 8273TIP3   OH246233   5.330   4.764  11.820  0.2110 -0.3717  0.5827
 8273TIP3    H146234   5.312   4.845  11.772  2.2273 -0.9180 -1.2494
 8273TIP3    H246235   5.248   4.716  11.819 -1.0455  1.6043  1.7427
 8274TIP3   OH246236   5.332   0.037  11.974  0.6690 -0.0181 -0.2755
 8274TIP3    H146237   5.280  -0.040  11.952 -0.6645  0.7810 -0.0212
 8274TIP3    H246238   5.365   0.069  11.890 -1.3304  0.8808 -0.7779
 8275TIP3   OH246239   6.554   2.156  13.738 -0.2913  0.1449 -0.2370
 8275TIP3    H146240   6.466   2.134  13.768 -0.0238 -0.1380  0.3602
 8275TIP3    H246241   6.567   2.104  13.659 -1.4698  1.8120 -1.6030
 8276TIP3   OH246242   5.329   0.593  10.480  0.0680  0.1259 -0.1152
 8276TIP3    H146243   5.375   0.661  10.528  0.4715  1.2166 -1.9348
 8276TIP3    H246244   5.389   0.518  10.479  0.8913  0.7724 -0.5683
 8277TIP3   OH246245   6.632   4.505  14.820  0.1777 -0.1251 -0.1944
 8277TIP3    H146246   6.539   4.526  14.808 -0.5712 -3.4517 -1.1029
 8277TIP3    H246247   6.657   4.457  14.741  2.6412  0.4753  0.1352
 8278TIP3   OH246248   1.330   1.874   4.030  0.6073 -0.0701 -0.0099
 8278TIP3    H146249   1.238   1.884   4.053  0.0546 -0.7298 -1.7754
 8278TIP3    H246250   1.363   1.963   4.024  0.0553  0.1759  0.5142
 8279TIP3   OH246251   0.316   4.896  14.062  0.0679 -0.1860 -0.2299
 8279TIP3    H146252   0.358   4.863  14.141 -0.3903  2.5478  1.3189
 8279TIP3    H246253   0.235   4.937  14.094 -2.3027 -2.5362 -2.7021
 8280TIP3   OH246254   6.364   3.101   4.404 -0.4575 -0.3588  0.0531
 8280TIP3    H146255   6.356   3.007   4.420  1.0245 -0.1594  2.5476
 8280TIP3    H246256   6.432   3.130   4.465 -0.8776  2.3508 -0.6198
 8281TIP3   OH246257   2.590   4.225  13.008  0.0578 -0.0376  0.2549
 8281TIP3    H146258   2.671   4.214  12.958 -0.3780 -2.3080 -0.0433
 8281TIP3    H246259   2.548   4.301  12.968  1.0053 -0.1609 -1.0338
 8282TIP3   OH246260   3.863   0.033   4.004  0.0123 -0.4139  0.2968
 8282TIP3    H146261   3.875  -0.059   3.978 -0.0342 -0.2008 -0.5021
 8282TIP3    H246262   3.768   0.047   4.000  0.0668 -0.1571 -0.2262
 8283TIP3   OH246263   4.716   0.528  12.431 -0.4652 -0.1296  0.0502
 8283TIP3    H146264   4.656   0.591  12.391 -1.4044 -2.5667 -2.6690
 8283TIP3    H246265   4.797   0.578  12.445 -1.4017  1.8777 -1.2493
 8284TIP3   OH246266   5.510   5.264   3.310 -0.1875  0.1653 -0.6987
 8284TIP3    H146267   5.440   5.207   3.341 -0.6209 -0.0724 -2.0481
 8284TIP3    H246268   5.477   5.301   3.228  0.1701  2.2012 -0.0075
 8285TIP3   OH246269   4.253   4.876   1.003 -0.1883  0.6779  0.4458
 8285TIP3    H146270   4.214   4.884   0.916 -1.9302  0.2928  1.1501
 8285TIP3    H246271   4.313   4.801   0.996  0.3123  1.1697 -0.6253
 8286TIP3   OH246272   5.371   3.164  11.729  0.4412 -0.1973  0.2888
 8286TIP3    H146273   5.412   3.128  11.650  0.1879 -1.1743  0.5852
 8286TIP3    H246274   5.356   3.087  11.785 -1.6912  0.1285  0.2302
 8287TIP3   OH246275   6.644   2.088   2.996  0.3264 -0.3132 -0.1569
 8287TIP3    H146276   6.616   2.158   2.938 -0.3873 -0.2307  0.2733
 8287TIP3    H246277   6.649   2.010   2.940 -0.1183 -0.1854 -0.3771
 8288TIP3   OH246278   3.850   2.985   3.592 -0.0353 -0.0764  0.3702
 8288TIP3    H146279   3.796   2.980   3.671  0.4771 -0.6483  0.6990
 8288TIP3    H246280   3.865   3.078   3.579  0.6107 -0.0005  1.4838
 8289TIP3   OH246281   3.776   0.985  15.335  0.5783 -0.7283  0.3263
 8289TIP3    H146282   3.863   1.007  15.302  1.8044  1.1497  4.1104
 8289TIP3    H246283   3.787   0.899  15.376  0.3099 -1.0478 -0.2726
 8290TIP3   OH246284   0.762   5.761   3.537 -0.0044  0.0282 -0.0964
 8290TIP3    H146285   0.827   5.812   3.585  0.0769  0.6406 -0.8452
 8290TIP3    H246286   0.679   5.805   3.553 -0.3401 -1.0154  1.2365
 8291TIP3   OH246287   3.191   2.769   6.225  0.6972 -0.9051  0.0164
 8291TIP3    H146288   3.208   2.816   6.144 -1.3229 -0.5858 -0.2690
 8291TIP3    H246289   3.154   2.834   6.284 -1.3586 -1.8858 -0.1035
 8292TIP3   OH246290   4.669   5.886  11.860 -0.3170  0.6698 -0.1465
 8292TIP3    H146291   4.588   5.935  11.849 -0.2273  0.6332 -1.0692
 8292TIP3    H246292   4.721   5.910  11.783 -0.6114 -1.5443 -1.0883
 8293TIP3   OH246293   6.613   6.236   1.825 -0.1639 -0.0667  0.4730
 8293TIP3    H146294   6.690   6.289   1.804 -0.9866  0.7591 -0.5164
 8293TIP3    H246295   6.548   6.260   1.760 -0.5205 -2.4598 -0.1390
 8294TIP3   OH246296   1.512   1.400   4.368 -0.0606  0.0651  0.6373
 8294TIP3    H146297   1.516   1.456   4.445  1.5744  1.4440 -0.3782
 8294TIP3    H246298   1.525   1.460   4.294 -0.0421 -1.4208 -0.6219
 8295TIP3   OH246299   3.446   5.697   5.715 -0.2971  0.0429 -0.5907
 8295TIP3    H146300   3.504   5.739   5.778 -1.1701  0.6224 -0.1529
 8295TIP3    H246301   3.503   5.668   5.644  0.2692  2.5232 -1.2239
 8296TIP3   OH246302   1.531   4.503  11.741  0.4078  0.1207  0.0529
 8296TIP3    H146303   1.600   4.512  11.675  1.1469  1.6940  1.0000
 8296TIP3    H246304   1.485   4.587  11.740 -0.1562 -0.1605  0.9230
 8297TIP3   OH246305   4.668   3.367  16.991  0.9583  0.2365 -0.5761
 8297TIP3    H146306   4.706   3.433  17.049  1.4644 -0.7417  0.2554
 8297TIP3    H246307   4.742   3.333  16.941  1.3912 -2.0409  1.4154
 8298TIP3   OH246308   1.769   0.588  16.521  0.1011 -0.3609  0.1722
 8298TIP3    H146309   1.737   0.615  16.435  0.1820  0.2549  0.3298
 8298TIP3    H246310   1.717   0.638  16.583  0.8620  0.1114  0.4498
 8299TIP3   OH246311   3.047   6.382   6.617 -1.0692  0.1774 -0.2844
 8299TIP3    H146312   3.027   6.368   6.525  2.5767 -3.3242 -0.8466
 8299TIP3    H246313   3.126   6.435   6.617 -0.4891 -0.6375  0.7104
 8300TIP3   OH246314   2.169   2.031  12.556 -0.0032 -0.5119 -0.5777
 8300TIP3    H146315   2.169   2.103  12.618  0.2029  0.1719 -1.3586
 8300TIP3    H246316   2.142   2.070  12.473  1.6293 -1.0088 -1.3775
 8301TIP3   OH246317   5.017   4.525  12.596 -0.1580 -0.0962  0.0710
 8301TIP3    H146318   5.010   4.590  12.526 -1.0403  0.9300  1.0645
 8301TIP3    H246319   5.001   4.575  12.676  1.0375 -1.1994  1.0319
 8302TIP3   OH246320   2.958   4.400   1.551  0.6677 -0.0263  0.0691
 8302TIP3    H146321   2.934   4.489   1.525 -1.8877 -0.1428  1.7042
 8302TIP3    H246322   2.983   4.357   1.469 -2.8527  0.8228 -1.6349
 8303TIP3   OH246323   1.963   3.714  16.046 -0.9288  0.0869 -0.0808
 8303TIP3    H146324   1.895   3.647  16.058  0.6130 -1.0278  4.0846
 8303TIP3    H246325   1.919   3.796  16.065 -1.8771 -0.1333 -1.1559
 8304TIP3   OH246326   4.746   4.996  12.005 -0.4797  0.0809  0.0147
 8304TIP3    H146327   4.785   4.974  12.089  0.7016 -2.7191 -1.1172
 8304TIP3    H246328   4.810   5.053  11.962  0.2414 -0.7228 -0.0117
 8305TIP3   OH246329   3.355   5.655   0.887  0.2881  0.2374  0.1318
 8305TIP3    H146330   3.356   5.747   0.862  2.3752  0.4589  0.7614
 8305TIP3    H246331   3.373   5.608   0.806  1.8541  0.6033  0.2247
 8306TIP3   OH246332   3.652   6.246   3.927 -0.0211  0.2425  0.1236
 8306TIP3    H146333   3.730   6.275   3.975  0.4000 -0.1295 -0.3243
 8306TIP3    H246334   3.607   6.187   3.989  1.8428 -2.2832 -0.7535
 8307TIP3   OH246335   0.360   3.879  14.842  0.2562 -0.4708 -0.0277
 8307TIP3    H146336   0.371   3.973  14.851 -0.0481 -0.2584 -1.5401
 8307TIP3    H246337   0.422   3.854  14.773 -0.0789 -1.2654 -0.0530
 8308TIP3   OH246338   3.566   5.873  16.568 -0.4003  0.6603  0.0183
 8308TIP3    H146339   3.501   5.918  16.622  0.4791  3.2617 -0.9526
 8308TIP3    H246340   3.516   5.834  16.496 -1.1794  0.0525  0.8719
 8309TIP3   OH246341   4.609   2.730  16.705  0.0667 -0.0112  0.7175
 8309TIP3    H146342   4.659   2.804  16.740 -0.3638  0.4533  0.3608
 8309TIP3    H246343   4.593   2.674  16.781 -3.1776  2.2705  1.9242
 8310TIP3   OH246344   3.973   2.755  13.507 -0.4005 -0.2176 -0.4515
 8310TIP3    H146345   3.903   2.691  13.508 -0.1613 -0.5063  1.1549
 8310TIP3    H246346   3.969   2.796  13.594 -0.1529  1.5143 -1.2050
 8311TIP3   OH246347   3.058   4.017  15.724  0.2362  0.0373  0.6904
 8311TIP3    H146348   3.031   4.060  15.642 -0.2877 -1.8293 -0.1767
 8311TIP3    H246349   2.980   3.970  15.753 -0.5203  2.8966  3.9228
 8312TIP3   OH246350   3.421   0.860  10.428  0.7291 -0.4019 -0.5759
 8312TIP3    H146351   3.492   0.923  10.428  2.4122 -2.1963 -0.7353
 8312TIP3    H246352   3.374   0.876  10.346  2.5161 -0.7978 -1.7257
 8313TIP3   OH246353   3.644   1.301  11.582  0.1372  0.1351 -0.2448
 8313TIP3    H146354   3.712   1.346  11.532 -0.6542  0.0508 -1.4432
 8313TIP3    H246355   3.616   1.366  11.647  1.3443  0.1637  0.2688
 8314TIP3   OH246356   6.640   0.221   1.026 -0.1771  0.1679 -0.1747
 8314TIP3    H146357   6.731   0.236   1.001  0.1959 -2.2118 -0.5048
 8314TIP3    H246358   6.593   0.298   0.994  1.5472  0.9462 -0.9557
 8315TIP3   OH246359   4.384   3.962  16.267 -0.0573  0.1652 -0.5125
 8315TIP3    H146360   4.393   3.943  16.174 -1.3254 -0.3362 -0.5536
 8315TIP3    H246361   4.428   4.047  16.279  0.3588  0.0979 -1.5029
 8316TIP3   OH246362   3.407   2.570  14.210 -0.5643 -0.4197  0.3650
 8316TIP3    H146363   3.427   2.586  14.118  0.4660  0.8854  0.7884
 8316TIP3    H246364   3.337   2.631  14.231 -0.6781 -0.5911  0.4877
 8317TIP3   OH246365   6.605   6.075  15.632  0.1547  0.0340  0.0279
 8317TIP3    H146366   6.512   6.074  15.653 -0.1706 -1.5567 -1.2534
 8317TIP3    H246367   6.610   6.038  15.544  2.0910 -0.9849  0.5112
 8318TIP3   OH246368   5.896   5.908  13.450 -0.2029 -0.1426  0.0365
 8318TIP3    H146369   5.957   5.967  13.494 -1.1342 -0.3298  1.6709
 8318TIP3    H246370   5.878   5.840  13.515  0.0276 -1.6683 -1.4331
 8319TIP3   OH246371   5.650   5.922   3.264  0.0324  0.6832  0.1511
 8319TIP3    H146372   5.607   6.008   3.261 -0.5661  0.4048 -3.5267
 8319TIP3    H246373   5.733   5.936   3.218  0.9136 -0.2877  1.3820
 8320TIP3   OH246374   1.936   0.210  15.989  0.5453 -0.4639 -0.5951
 8320TIP3    H146375   1.951   0.144  15.921  0.1525 -0.9891 -0.1777
 8320TIP3    H246376   1.861   0.177  16.038  0.1092  0.4831 -0.6097
 8321TIP3   OH246377   1.129   6.729  14.083  0.0118  0.2335 -0.3243
 8321TIP3    H146378   1.091   6.662  14.140  1.6613 -0.0137  0.5181
 8321TIP3    H246379   1.074   6.806  14.097 -0.6534 -0.3348  0.2639
 8322TIP3   OH246380   5.976   3.281   2.282  0.1994  0.3035  0.8348
 8322TIP3    H146381   5.945   3.254   2.368 -1.0913  0.9479  0.5898
 8322TIP3    H246382   5.971   3.376   2.283  0.9833  0.3591  0.3326
 8323TIP3   OH246383   3.910   2.020  14.078 -0.7625 -0.2433 -0.4572
 8323TIP3    H146384   3.887   1.949  14.139 -0.0647 -0.8705 -0.9014
 8323TIP3    H246385   3.929   2.095  14.134 -1.9116 -0.2765  0.0073
 8324TIP3   OH246386   3.229   1.410   1.152  0.2782 -0.0311  0.4789
 8324TIP3    H146387   3.322   1.411   1.174  0.5916  1.1651 -0.7559
 8324TIP3    H246388   3.226   1.424   1.058 -1.1642  0.0440  0.5089
 8325TIP3   OH246389   6.137   2.352  12.560 -0.3607  0.1677  0.2992
 8325TIP3    H146390   6.214   2.299  12.582 -0.2482  0.3532  0.3525
 8325TIP3    H246391   6.139   2.359  12.464 -0.5637 -0.2058  0.2673
 8326TIP3   OH246392   1.001   6.557  14.944 -0.2809  0.1367 -0.1520
 8326TIP3    H146393   1.064   6.504  14.895 -1.3750  0.1494 -1.6387
 8326TIP3    H246394   1.019   6.647  14.916 -0.7366  0.1701 -0.3485
 8327TIP3   OH246395   1.320   1.421   3.776 -0.0300  0.4856  0.4126
 8327TIP3    H146396   1.373   1.500   3.762  1.1199 -0.2506  0.5020
 8327TIP3    H246397   1.241   1.453   3.820  0.6203  1.5263  0.8657
 8328TIP3   OH246398   5.029   2.137   6.492 -0.5488 -0.2089 -0.5968
 8328TIP3    H146399   5.057   2.062   6.439  2.3496 -1.4210  2.3216
 8328TIP3    H246400   4.977   2.099   6.562  1.5823  0.2206  1.3631
 8329TIP3   OH246401   1.912   2.925  16.070  0.3875 -0.3837 -0.0336
 8329TIP3    H146402   1.971   2.951  16.140 -0.0992  0.1121  0.2014
 8329TIP3    H246403   1.847   2.995  16.065  0.9838  0.1072 -1.6740
 8330TIP3   OH246404   5.435   6.341   4.392 -0.9514 -0.1862  0.3097
 8330TIP3    H146405   5.360   6.357   4.335  0.1392 -0.1057 -1.1506
 8330TIP3    H246406   5.465   6.254   4.368  0.0692  0.2082  0.0792
 8331TIP3   OH246407   2.338   0.711   3.562  0.2747 -0.2762  0.0341
 8331TIP3    H146408   2.275   0.745   3.625  0.9152  0.2606  0.3985
 8331TIP3    H246409   2.285   0.676   3.490 -0.4171  2.1824 -0.7330
 8332TIP3   OH246410   6.654   5.772  13.001  0.0177  0.2439 -0.0497
 8332TIP3    H146411   6.640   5.702  13.065 -1.9644  0.7767  0.1634
 8332TIP3    H246412   6.672   5.725  12.919 -1.1981 -0.5384  0.1010
 8333TIP3   OH246413   0.528   6.460   2.954  0.0325 -0.5830 -0.1032
 8333TIP3    H146414   0.620   6.485   2.967  0.1038 -1.6035  1.6332
 8333TIP3    H246415   0.484   6.541   2.929  1.1029  0.2848  0.7297
 8334TIP3   OH246416   5.797   4.838  13.087 -0.5047  0.0229  0.3220
 8334TIP3    H146417   5.840   4.903  13.031 -0.9956  0.8689  0.8995
 8334TIP3    H246418   5.853   4.761  13.082  0.1315  0.5164 -0.3281
 8335TIP3   OH246419   4.253   3.993   2.175 -0.2131  0.0131 -0.2998
 8335TIP3    H146420   4.336   3.988   2.127 -1.5928  0.0650 -2.8651
 8335TIP3    H246421   4.210   3.909   2.158 -0.5818 -0.1696  1.3217
 8336TIP3   OH246422   6.300   1.729  17.229  0.0128 -0.0388  0.1153
 8336TIP3    H146423   6.262   1.812  17.200 -0.3517  0.0088  0.7103
 8336TIP3    H246424   6.395   1.742  17.223  0.0214 -0.7646 -3.1452
 8337TIP3   OH246425   4.503   0.555   1.707 -0.2527 -0.3802  0.6397
 8337TIP3    H146426   4.573   0.579   1.768  0.2035 -1.3634  0.5093
 8337TIP3    H246427   4.500   0.628   1.645 -0.3264  0.3539  1.4796
 8338TIP3   OH246428   0.475   5.587  14.349 -0.0404 -0.3976 -0.3643
 8338TIP3    H146429   0.436   5.626  14.427 -0.4669 -1.1205 -0.2094
 8338TIP3    H246430   0.509   5.662  14.300  0.9729  0.0017  0.9025
 8339TIP3   OH246431   5.473   3.933  10.702 -0.0230 -0.6234 -0.0365
 8339TIP3    H146432   5.445   3.900  10.616 -0.2461  0.7550 -0.5096
 8339TIP3    H246433   5.437   4.021  10.706 -0.1300 -0.7197  1.5445
 8340TIP3   OH246434   5.346   1.158  16.106  0.5787 -0.1112  0.0352
 8340TIP3    H146435   5.364   1.081  16.161  2.5286 -1.1543 -1.8690
 8340TIP3    H246436   5.280   1.207  16.153  0.8728 -1.8395  2.4149
 8341TIP3   OH246437   2.851   6.133  11.620 -0.2377  0.0292  0.4273
 8341TIP3    H146438   2.795   6.089  11.557  0.3585 -1.0917  0.6664
 8341TIP3    H246439   2.938   6.094  11.608 -0.4738 -1.5965  3.1771
 8342TIP3   OH246440   2.408   1.009   5.272 -0.5605  0.8106  0.6757
 8342TIP3    H146441   2.323   1.027   5.313 -1.0195  1.9738 -0.7218
 8342TIP3    H246442   2.453   1.093   5.273 -0.6354  0.9023 -1.2919
 8343TIP3   OH246443   3.537   1.653   4.494 -0.1705  0.1917  0.7890
 8343TIP3    H146444   3.550   1.578   4.436  1.1917 -0.5746  2.0176
 8343TIP3    H246445   3.616   1.706   4.482 -0.7106  0.9650  0.6102
 8344TIP3   OH246446   4.298   3.060   5.063 -0.0206  0.4829 -0.3194
 8344TIP3    H146447   4.302   2.971   5.028  0.9241  0.7707 -0.9600
 8344TIP3    H246448   4.330   3.052   5.153 -0.3449  0.1113 -0.2359
 8345TIP3   OH246449   0.455   0.437  14.227  0.0765  0.6672 -0.2679
 8345TIP3    H146450   0.445   0.348  14.191 -0.6744  0.5641  0.1879
 8345TIP3    H246451   0.381   0.486  14.191  1.5482  1.6791 -2.1258
 8346TIP3   OH246452   6.589   6.201   5.338 -0.0540 -0.1217 -0.2648
 8346TIP3    H146453   6.621   6.290   5.324  0.9873 -0.5721 -0.8852
 8346TIP3    H246454   6.549   6.204   5.425 -0.7074  1.1227 -0.5766
 8347TIP3   OH246455   2.354   2.639   6.128  0.5828 -0.2259 -0.1036
 8347TIP3    H146456   2.423   2.574   6.142  0.5663 -0.0694  0.7394
 8347TIP3    H246457   2.284   2.590   6.083  1.6517 -0.1264 -2.0046
 8348TIP3   OH246458   5.667   1.228  16.867 -0.0023 -1.0576 -0.1799
 8348TIP3    H146459   5.607   1.185  16.807 -1.9389 -0.3649  1.1832
 8348TIP3    H246460   5.680   1.315  16.831 -2.4322 -0.0735  1.1264
 8349TIP3   OH246461   1.937   2.755  13.233  0.2290  0.3444  0.1556
 8349TIP3    H146462   1.922   2.698  13.158 -1.9052  1.7004 -0.5399
 8349TIP3    H246463   1.850   2.767  13.271  1.2067 -0.1775  2.8162
 8350TIP3   OH246464   2.704   1.957   2.155  0.0466 -0.2342  0.1611
 8350TIP3    H146465   2.611   1.943   2.175  0.1833  0.2119  1.1694
 8350TIP3    H246466   2.714   2.052   2.154  0.7947 -0.2738  1.5842
 8351TIP3   OH246467   4.310   2.420  11.039 -0.1720  0.2593  0.6352
 8351TIP3    H146468   4.276   2.414  10.950 -0.0494 -1.3417  0.6801
 8351TIP3    H246469   4.403   2.440  11.028 -0.4048  1.2929  0.4462
 8352TIP3   OH246470   5.727   3.504   1.617 -0.4688 -0.4893  0.3710
 8352TIP3    H146471   5.822   3.509   1.626 -0.3018  3.5961 -1.3969
 8352TIP3    H246472   5.713   3.426   1.562  2.1914  0.3704 -1.7745
 8353TIP3   OH246473   5.145   6.453   1.764 -0.5290 -0.5537 -0.4297
 8353TIP3    H146474   5.201   6.395   1.713 -1.1229 -0.6118 -1.0146
 8353TIP3    H246475   5.114   6.399   1.837  0.4698 -0.4157  0.1241
 8354TIP3   OH246476   3.787   2.707   3.629 -0.4473 -0.3139  0.4488
 8354TIP3    H146477   3.810   2.704   3.537  1.0967  0.2366  0.7827
 8354TIP3    H246478   3.792   2.799   3.653 -3.3137 -0.0954  0.5441
 8355TIP3   OH246479   3.137   5.414  16.299 -0.0432  0.3094  0.8311
 8355TIP3    H146480   3.194   5.490  16.287  0.6305 -0.3223 -0.1851
 8355TIP3    H246481   3.052   5.442  16.267  0.4640  0.3253 -0.5632
 8356TIP3   OH246482   4.728   6.393   1.092 -0.3645 -0.0832 -0.3577
 8356TIP3    H146483   4.752   6.485   1.082  1.7164 -0.6851 -1.3974
 8356TIP3    H246484   4.810   6.345   1.080 -1.4379 -2.0975 -0.0673
 8357TIP3   OH246485   4.902   5.189   4.967  0.3778 -0.1851 -0.4540
 8357TIP3    H146486   4.922   5.120   5.030 -0.0047  0.1516  0.0435
 8357TIP3    H246487   4.943   5.267   5.003 -1.2853  0.3852  0.2802
 8358TIP3   OH246488   4.493   4.846  11.093  0.2511  0.1403 -0.4085
 8358TIP3    H146489   4.430   4.838  11.022 -0.4541  2.9875 -0.2194
 8358TIP3    H246490   4.478   4.933  11.129  0.7770 -1.0634  3.0858
 8359TIP3   OH246491   4.187   2.570  15.545  0.3810  0.0697  0.2719
 8359TIP3    H146492   4.229   2.511  15.482  0.9729  0.6946  0.0732
 8359TIP3    H246493   4.249   2.577  15.617  1.4236  2.2772 -0.7396
 8360TIP3   OH246494   3.753   5.186  14.386  0.3716  0.3550  0.7079
 8360TIP3    H146495   3.733   5.268  14.431 -1.1419  0.8016 -0.7114
 8360TIP3    H246496   3.681   5.128  14.409  1.2513 -0.4909  1.4110
 8361TIP3   OH246497   1.771   3.109   2.609  0.3059 -0.4302  0.1379
 8361TIP3    H146498   1.676   3.104   2.595  0.4437 -0.2344 -0.9771
 8361TIP3    H246499   1.793   3.201   2.590  0.5410 -0.1446  1.6751
 8362TIP3   OH246500   3.003   2.143  12.774 -0.5987 -0.2140 -0.3003
 8362TIP3    H146501   2.925   2.197  12.784  0.2501  1.0092 -0.0212
 8362TIP3    H246502   2.988   2.068  12.830 -1.5890 -0.0121 -0.2811
 8363TIP3   OH246503   0.255   3.468  16.572 -0.3918  0.2040 -0.6175
 8363TIP3    H146504   0.305   3.511  16.641 -1.1384 -0.0712  0.1186
 8363TIP3    H246505   0.181   3.527  16.555 -0.4880  0.0299 -0.8097
 8364TIP3   OH246506   1.097   2.461   1.283  0.0883 -0.3300 -0.0058
 8364TIP3    H146507   1.133   2.386   1.237  0.1585 -0.6462  0.5602
 8364TIP3    H246508   1.002   2.448   1.282  0.1039 -0.4520  0.1377
 8365TIP3   OH246509   5.389   1.699   1.380 -0.1660 -0.4402 -0.5368
 8365TIP3    H146510   5.423   1.765   1.319 -0.7647 -0.6767 -1.1395
 8365TIP3    H246511   5.319   1.656   1.331 -0.1206 -1.1767  0.0393
 8366TIP3   OH246512   1.315   5.587   2.665 -0.3443 -0.8422  0.0065
 8366TIP3    H146513   1.358   5.644   2.601 -2.7259  0.8609 -0.2270
 8366TIP3    H246514   1.243   5.547   2.616 -0.0790 -2.3306  0.7771
 8367TIP3   OH246515   2.053   3.722  16.545 -0.1295 -0.0432  0.3252
 8367TIP3    H146516   2.076   3.664  16.617  1.7183  0.2990  0.0547
 8367TIP3    H246517   1.983   3.676  16.499 -1.4584 -0.2058  2.3589
 8368TIP3   OH246518   5.186   3.104  10.847  0.2705  0.2794 -0.7459
 8368TIP3    H146519   5.259   3.160  10.875 -0.4760  1.5542 -1.3243
 8368TIP3    H246520   5.130   3.160  10.794 -1.6838 -0.3828  0.5062
 8369TIP3   OH246521   0.284   2.864   6.408  0.4814 -0.9861 -0.4563
 8369TIP3    H146522   0.271   2.781   6.454  2.8343 -1.3390 -0.3021
 8369TIP3    H246523   0.266   2.931   6.474  0.3628 -1.4074 -0.0549
 8370TIP3   OH246524   5.835   6.291  11.290 -0.4616  0.3298  0.0890
 8370TIP3    H146525   5.769   6.258  11.229  0.8614 -1.9481 -0.2326
 8370TIP3    H246526   5.900   6.334  11.235 -0.3205  0.1558  0.1199
 8371TIP3   OH246527   1.406   1.641   4.523 -0.7336 -0.3201  0.2483
 8371TIP3    H146528   1.339   1.591   4.569 -0.9317  0.3257  0.6681
 8371TIP3    H246529   1.358   1.688   4.454 -0.4488 -1.2371 -0.5972
 8372TIP3   OH246530   5.276   1.073   5.234  0.5308  0.2652 -0.7634
 8372TIP3    H146531   5.217   1.136   5.194 -1.6319 -0.1773  1.4950
 8372TIP3    H246532   5.252   0.989   5.196  0.0207  0.1548 -0.2101
 8373TIP3   OH246533   0.770   1.277   1.547 -0.2208 -0.1319 -0.2207
 8373TIP3    H146534   0.691   1.321   1.514 -2.1320 -0.1453  3.7107
 8373TIP3    H246535   0.768   1.191   1.505 -2.1103  0.0078 -0.5100
 8374TIP3   OH246536   5.716   2.231   1.099  0.0559  0.3320 -0.1278
 8374TIP3    H146537   5.667   2.261   1.022  0.4646 -0.9599 -0.9159
 8374TIP3    H246538   5.683   2.285   1.170 -0.8297  1.0896 -1.0789
 8375TIP3   OH246539   5.643   1.997   0.135  0.7642 -0.0175 -0.2475
 8375TIP3    H146540   5.691   2.078   0.117  1.9453 -0.3661  1.0882
 8375TIP3    H246541   5.551   2.021   0.132  1.1037  1.3991  0.2062
 8376TIP3   OH246542   1.267   6.302   0.268 -0.2995  0.2676 -0.5326
 8376TIP3    H146543   1.173   6.305   0.284 -0.1571 -3.1941  2.3031
 8376TIP3    H246544   1.280   6.226   0.211  0.8580 -1.5512  1.9634
 8377TIP3   OH246545   5.297   2.212   2.345 -0.5828 -0.0650 -0.1208
 8377TIP3    H146546   5.365   2.175   2.288 -0.2599  2.2846 -1.4110
 8377TIP3    H246547   5.263   2.138   2.394  1.0758 -1.7500 -1.3857
 8378TIP3   OH246548   6.754   3.042   5.978 -0.6567 -0.3535  0.2890
 8378TIP3    H146549   6.785   2.952   5.982  1.1727  0.2569  0.8178
 8378TIP3    H246550   6.820   3.089   5.927 -0.1600  1.1937  2.2149
 8379TIP3   OH246551   1.531   6.722   3.675 -0.6620 -0.4886  0.3989
 8379TIP3    H146552   1.446   6.703   3.635 -1.9085  0.3874  2.4901
 8379TIP3    H246553   1.550   6.644   3.728 -0.8758 -0.1125  1.0421
 8380TIP3   OH246554   3.136   1.641  16.719 -0.3158 -0.3331 -0.3720
 8380TIP3    H146555   3.068   1.574  16.707  0.1457 -0.9178  0.1729
 8380TIP3    H246556   3.214   1.604  16.678 -0.2504  0.2195 -0.7589
 8381TIP3   OH246557   0.376   2.693   0.723  0.0665  0.5258 -0.3749
 8381TIP3    H146558   0.375   2.763   0.788 -3.3932  2.1463 -1.9643
 8381TIP3    H246559   0.328   2.621   0.764 -2.1578  1.5654 -1.0114
 8382TIP3   OH246560   5.687   0.446  15.645  0.0559  0.3176 -0.4043
 8382TIP3    H146561   5.748   0.404  15.706 -0.3795  0.8070  0.3812
 8382TIP3    H246562   5.639   0.373  15.606 -0.6217  0.0661  0.8763
 8383TIP3   OH246563   1.827   4.827  12.819  0.1335 -0.1356  0.5058
 8383TIP3    H146564   1.747   4.869  12.786 -0.3685 -0.7997  0.8516
 8383TIP3    H246565   1.830   4.852  12.911  0.9136  0.7734  0.2408
 8384TIP3   OH246566   0.871   1.297  12.262 -0.1944  0.2637 -0.4980
 8384TIP3    H146567   0.872   1.367  12.196 -2.3571  0.5177 -0.3400
 8384TIP3    H246568   0.913   1.223  12.219 -1.0974  0.5787 -2.0195
 8385TIP3   OH246569   2.197   5.870  16.324 -0.3632  0.1065 -0.0627
 8385TIP3    H146570   2.111   5.885  16.286 -1.4190 -1.3808  1.5417
 8385TIP3    H246571   2.180   5.810  16.397  2.1685 -1.0830 -0.3393
 8386TIP3   OH246572   4.562   2.917   0.836  0.1588  0.5440 -0.5790
 8386TIP3    H146573   4.607   3.000   0.852 -1.3588  1.5478 -1.2138
 8386TIP3    H246574   4.514   2.900   0.918  1.6366 -0.5349  0.1057
 8387TIP3   OH246575   1.771   6.653  15.457  0.5684  0.5321  0.0152
 8387TIP3    H146576   1.765   6.718  15.386 -0.5930  0.4225  0.0053
 8387TIP3    H246577   1.860   6.663  15.490  0.5870  1.7431 -0.3591
 8388TIP3   OH246578   2.779   4.748   4.857 -0.0851 -0.4944 -0.6062
 8388TIP3    H146579   2.860   4.798   4.861 -0.4673  0.1429 -0.6748
 8388TIP3    H246580   2.721   4.790   4.920 -0.7341 -0.2506 -1.3413
 8389TIP3   OH246581   2.700   4.600   3.077  0.0412 -0.8216  0.3325
 8389TIP3    H146582   2.710   4.632   3.167  0.0313  1.5938 -0.4368
 8389TIP3    H246583   2.609   4.619   3.055  0.4278 -0.0265 -0.6424
 8390TIP3   OH246584   1.036   4.442  13.584 -0.8645  0.2360 -0.4801
 8390TIP3    H146585   1.111   4.501  13.575  0.4665 -1.0807  1.2196
 8390TIP3    H246586   1.025   4.433  13.679 -2.7617 -0.1516 -0.6999
 8391TIP3   OH246587   0.723   2.643   3.328  0.4717 -0.4620  0.3553
 8391TIP3    H146588   0.644   2.628   3.278 -0.1990  1.6026  0.7060
 8391TIP3    H246589   0.787   2.674   3.264  0.7494 -1.3096  0.2121
 8392TIP3   OH246590   6.552   0.630  15.486  0.3067  0.5039  1.1076
 8392TIP3    H146591   6.505   0.638  15.404  2.7398  0.4918 -0.4081
 8392TIP3    H246592   6.546   0.716  15.527  0.5870  1.0832 -0.0237
 8393TIP3   OH246593   5.781   3.808  14.851  0.3694  0.1069 -0.0688
 8393TIP3    H146594   5.761   3.891  14.896  0.1166 -0.4757  0.9344
 8393TIP3    H246595   5.861   3.776  14.895  0.4019 -0.2318 -0.3732
 8394TIP3   OH246596   5.712   1.688  17.041 -0.1974 -0.3114  0.1115
 8394TIP3    H146597   5.769   1.645  17.105 -0.0223  0.1728  0.2892
 8394TIP3    H246598   5.692   1.773  17.081 -0.8265 -0.3729 -0.0693
 8395TIP3   OH246599   3.822   0.656   3.554 -0.6172 -0.2695  0.0558
 8395TIP3    H146600   3.879   0.591   3.595 -2.3515 -2.1323 -0.3522
 8395TIP3    H246601   3.740   0.651   3.603 -1.0140  1.1339 -0.4253
 8396TIP3   OH246602   0.346   5.491  16.672 -0.3316 -0.1420 -0.4441
 8396TIP3    H146603   0.344   5.560  16.606  0.5785  0.4804  0.1632
 8396TIP3    H246604   0.254   5.468  16.686 -0.5761  0.2305 -1.3825
 8397TIP3   OH246605   0.933   3.955  12.887  0.3229  0.3312  0.1799
 8397TIP3    H146606   0.882   3.884  12.847  1.3340 -0.1483 -0.2854
 8397TIP3    H246607   0.949   3.925  12.977  2.9456 -1.2889 -0.7262
 8398TIP3   OH246608   1.417   4.005   2.149  0.4379  0.2739 -0.5589
 8398TIP3    H146609   1.473   4.007   2.227 -0.2435 -1.3262  0.0210
 8398TIP3    H246610   1.397   3.912   2.137  1.3596  0.3432 -3.2713
 8399TIP3   OH246611   4.157   6.052  14.907  0.1835 -0.0923 -0.1320
 8399TIP3    H146612   4.191   5.985  14.967  3.7863 -0.6023 -2.4961
 8399TIP3    H246613   4.071   6.018  14.881  0.4104 -2.0179  1.3481
 8400TIP3   OH246614   6.320   2.378  13.977  0.9423 -0.0662 -0.1253
 8400TIP3    H146615   6.323   2.287  14.008  1.2328 -0.1732 -0.4631
 8400TIP3    H246616   6.377   2.425  14.038  0.2336  0.0234  0.4779
 8401TIP3   OH246617   0.163   5.086  16.568  0.1345  0.6114 -0.2367
 8401TIP3    H146618   0.193   5.015  16.625 -1.1305  0.6245  0.4948
 8401TIP3    H246619   0.172   5.052  16.480 -2.5910 -1.4291  0.1482
 8402TIP3   OH246620   2.294   1.073   5.995  0.3806 -0.1465 -0.3877
 8402TIP3    H146621   2.287   1.058   6.089 -1.6964  0.1376 -0.4458
 8402TIP3    H246622   2.355   1.006   5.964  0.2248 -0.9492  0.9866
 8403TIP3   OH246623   5.176   5.905   3.090 -0.2150 -0.1889 -0.9682
 8403TIP3    H146624   5.241   5.838   3.067  0.0511  0.2345 -1.4658
 8403TIP3    H246625   5.117   5.861   3.152  0.4653 -0.6156 -0.6195
 8404TIP3   OH246626   4.778   0.599   4.639 -0.4374  0.4386  0.4887
 8404TIP3    H146627   4.715   0.601   4.567  0.6727 -0.8744 -0.6003
 8404TIP3    H246628   4.728   0.570   4.715 -1.3532  0.4425 -0.1029
 8405TIP3   OH246629   0.063   4.189   3.459  0.2933  0.4461  0.3416
 8405TIP3    H146630   0.105   4.170   3.375 -0.0051  0.2267  0.2391
 8405TIP3    H246631   0.132   4.226   3.513  0.1611  1.9080 -0.4593
 8406TIP3   OH246632   0.705   2.155  14.478  0.3447 -0.3002 -0.5200
 8406TIP3    H146633   0.700   2.249  14.462  1.2018  0.0976  1.2704
 8406TIP3    H246634   0.702   2.147  14.574  1.5886 -2.0007 -0.5875
 8407TIP3   OH246635   1.822   5.130   1.358  0.2439  0.0828 -0.2206
 8407TIP3    H146636   1.898   5.177   1.392  0.4501  0.0285 -0.6059
 8407TIP3    H246637   1.755   5.142   1.425  0.5790  0.1616  0.1021
 8408TIP3   OH246638   6.691   6.081  17.025 -0.2222 -0.5323 -0.4862
 8408TIP3    H146639   6.786   6.076  17.021 -0.2942 -2.0579 -0.7140
 8408TIP3    H246640   6.663   5.996  17.058 -1.6254 -0.9749 -2.6587
 8409TIP3   OH246641   4.056   6.219   6.191 -0.6460  0.1245  0.1523
 8409TIP3    H146642   3.971   6.175   6.194 -0.6262  0.0615 -0.1370
 8409TIP3    H246643   4.118   6.154   6.224 -0.2342 -1.0191 -2.5930
 8410TIP3   OH246644   6.012   3.651  12.201 -0.2409  0.1551  0.5094
 8410TIP3    H146645   5.984   3.565  12.172 -0.6799  0.3895  0.2417
 8410TIP3    H246646   5.933   3.691  12.239 -0.6063  1.2932 -1.3527
 8411TIP3   OH246647   1.876   3.889  15.609  0.4537 -0.7042  0.0854
 8411TIP3    H146648   1.908   3.979  15.613  0.0198 -0.5589  0.3156
 8411TIP3    H246649   1.834   3.882  15.524 -3.0912  0.5456  1.5491
 8412TIP3   OH246650   6.574   0.066   4.625 -1.3948  0.3601  0.3619
 8412TIP3    H146651   6.542   0.081   4.536 -1.9706 -2.3274  0.0312
 8412TIP3    H246652   6.496   0.044   4.676 -0.7042 -1.9052  0.5776
 8413TIP3   OH246653   6.545   3.888   4.587  0.2315  0.9157  0.0105
 8413TIP3    H146654   6.498   3.859   4.665 -2.0358 -0.8277 -1.8433
 8413TIP3    H246655   6.608   3.818   4.570  0.1465  0.8838 -0.1743
 8414TIP3   OH246656   4.674   6.638   2.166 -1.1027  0.8994  0.1902
 8414TIP3    H146657   4.705   6.654   2.255  0.4852  2.6793 -0.5979
 8414TIP3    H246658   4.586   6.603   2.177 -0.6899  0.4015  2.4521
 8415TIP3   OH246659   5.572   2.885  12.991 -0.5924  0.0692 -0.2661
 8415TIP3    H146660   5.483   2.872  13.026 -0.0661 -1.8590  0.4983
 8415TIP3    H246661   5.627   2.831  13.048  0.8455 -0.0428 -1.7282
 8416TIP3   OH246662   1.715   6.716   0.353 -0.0933  0.3113  0.3057
 8416TIP3    H146663   1.651   6.738   0.420  0.1479  2.0320  0.0222
 8416TIP3    H246664   1.760   6.638   0.386 -1.1778  0.0831  1.2852
 8417TIP3   OH246665   0.804   6.364   6.028  0.1779  0.4974 -0.3634
 8417TIP3    H146666   0.898   6.380   6.023  0.2823 -0.2355 -0.9236
 8417TIP3    H246667   0.788   6.344   6.120  0.3909  1.6274 -0.0707
 8418TIP3   OH246668   5.399   1.602  14.971  0.3567  0.0054 -0.4973
 8418TIP3    H146669   5.312   1.592  15.010  0.7809 -0.2841  0.3913
 8418TIP3    H246670   5.458   1.555  15.030  1.2930  1.2137 -0.4235
 8419TIP3   OH246671   4.108   4.807  11.950  0.0311 -0.2538  0.3419
 8419TIP3    H146672   4.012   4.809  11.952  0.0445  1.0467  1.3848
 8419TIP3    H246673   4.134   4.882  12.003  1.6460 -1.1880  0.9312
 8420TIP3   OH246674   5.109   1.053  11.577 -0.0984 -0.0560 -0.5489
 8420TIP3    H146675   5.148   0.982  11.629  0.3501 -1.4418 -2.6551
 8420TIP3    H246676   5.184   1.106  11.548 -0.3266  0.5947  0.0227
 8421TIP3   OH246677   5.147   2.020  16.634 -0.1451  0.0846 -0.1958
 8421TIP3    H146678   5.073   1.959  16.636 -0.5496  0.5932  0.7329
 8421TIP3    H246679   5.119   2.089  16.573 -0.6313  0.5110  0.5019
 8422TIP3   OH246680   3.505   1.259  14.796  0.2402  0.0115 -0.0260
 8422TIP3    H146681   3.502   1.354  14.804 -0.4382 -0.0582  0.7073
 8422TIP3    H246682   3.590   1.241  14.755  0.5122  0.9118  0.1171
 8423TIP3   OH246683   5.017   2.852   1.782 -0.1010 -0.2937 -0.1044
 8423TIP3    H146684   4.968   2.932   1.802  0.0069 -0.4119  0.6506
 8423TIP3    H246685   4.982   2.823   1.698  0.3758  0.9535 -0.7705
 8424TIP3   OH246686   4.952   3.491   2.170 -1.0913 -0.1078 -0.0779
 8424TIP3    H146687   5.022   3.479   2.106  0.6538  0.8862  1.5471
 8424TIP3    H246688   4.880   3.436   2.138  1.0272 -2.6063 -0.8703
 8425TIP3   OH246689   3.362   5.244  12.044 -0.5422  0.6779  0.1320
 8425TIP3    H146690   3.394   5.153  12.044 -2.0796  0.1130  0.6409
 8425TIP3    H246691   3.380   5.276  11.956  0.6770  0.1356  0.1554
 8426TIP3   OH246692   5.761   4.908  13.707  0.1837 -0.2379  0.6410
 8426TIP3    H146693   5.734   4.973  13.772 -1.7719 -2.7418  2.5710
 8426TIP3    H246694   5.852   4.889  13.729  0.7722  1.7324  0.0676
 8427TIP3   OH246695   4.284   1.261   1.433  0.2420 -0.2384  0.4862
 8427TIP3    H146696   4.264   1.320   1.507 -0.1264  0.0596  0.1528
 8427TIP3    H246697   4.377   1.242   1.443  1.3075  3.1260 -1.2783
 8428TIP3   OH246698   0.642   4.020  13.920  0.6035 -0.0786  0.8174
 8428TIP3    H146699   0.566   3.986  13.873  2.0178 -1.7012 -0.4272
 8428TIP3    H246700   0.656   4.107  13.884  0.7676 -0.7209 -0.7476
 8429TIP3   OH246701   2.543   0.691   4.424 -0.1742 -0.1168 -0.7230
 8429TIP3    H146702   2.562   0.754   4.494 -0.0582  0.4649 -1.2670
 8429TIP3    H246703   2.576   0.733   4.345 -0.0674 -0.8820 -1.0940
 8430TIP3   OH246704   6.694   6.031   6.188  0.2149 -0.0117  0.4208
 8430TIP3    H146705   6.711   6.046   6.281  1.3207 -0.7542  0.3554
 8430TIP3    H246706   6.644   6.108   6.161  0.7073  0.6879  1.4040
 8431TIP3   OH246707   1.127   1.608  14.902 -0.0203  0.1459 -0.5968
 8431TIP3    H146708   1.098   1.534  14.956 -1.2463  2.5427  2.2890
 8431TIP3    H246709   1.221   1.615  14.918 -0.1257 -0.0220  0.1064
 8432TIP3   OH246710   1.113   1.875  12.479 -0.6457 -0.3430 -0.3953
 8432TIP3    H146711   1.132   1.960  12.440 -2.3693 -0.1970 -1.0048
 8432TIP3    H246712   1.183   1.818  12.447  0.1813  0.6902 -0.4852
 8433TIP3   OH246713   6.158   0.907   3.626  0.0509 -0.2572  0.2174
 8433TIP3    H146714   6.230   0.945   3.676 -1.0585  0.5933  1.2038
 8433TIP3    H246715   6.132   0.830   3.677 -1.1541  0.6738  1.0336
 8434TIP3   OH246716   6.024   3.347   5.920 -0.2321  0.2266  0.0459
 8434TIP3    H146717   5.946   3.351   5.976  0.6695  0.1158  1.3433
 8434TIP3    H246718   6.084   3.411   5.957 -0.2537  1.4664 -1.8756
 8435TIP3   OH246719   6.056   6.476  16.449 -0.0399  0.1600 -0.5252
 8435TIP3    H146720   6.101   6.492  16.366 -1.1232  2.2044 -0.7933
 8435TIP3    H246721   6.067   6.557  16.498 -0.3939 -0.6079  0.8804
 8436TIP3   OH246722   0.135   0.857   3.879 -0.2342 -0.1734  0.0186
 8436TIP3    H146723   0.102   0.782   3.829  0.6776 -0.1575 -0.6297
 8436TIP3    H246724   0.056   0.907   3.901 -0.6598 -0.0319 -1.6597
 8437TIP3   OH246725   5.848   3.066  15.713  0.0368 -0.1125 -0.0554
 8437TIP3    H146726   5.839   3.125  15.787  0.7256 -1.2494  0.9782
 8437TIP3    H246727   5.759   3.050  15.684 -0.1481  1.5770 -0.4982
 8438TIP3   OH246728   2.754   0.882  10.814  0.5646 -0.0734 -0.3248
 8438TIP3    H146729   2.713   0.831  10.744 -0.2835 -0.5102  0.4625
 8438TIP3    H246730   2.725   0.972  10.798  0.4087 -0.1629 -0.5582
 8439TIP3   OH246731   3.149   0.791   3.036  1.0982 -0.1967 -0.5742
 8439TIP3    H146732   3.062   0.821   3.061  1.0103 -0.0904 -0.9919
 8439TIP3    H246733   3.203   0.870   3.037  0.7019  0.1337 -2.3867
 8440TIP3   OH246734   6.211   1.895  13.017 -0.9404  0.6980 -0.1182
 8440TIP3    H146735   6.152   1.824  13.044 -0.6735  0.9065  1.0433
 8440TIP3    H246736   6.298   1.866  13.043 -0.8970  1.7050  0.9449
 8441TIP3   OH246737   5.762   5.841  13.697  0.3148  0.2016 -0.4745
 8441TIP3    H146738   5.677   5.808  13.725 -0.8292  2.2605 -1.2867
 8441TIP3    H246739   5.820   5.766  13.703 -1.6108 -1.3416 -0.1454
 8442TIP3   OH246740   2.927   1.099  16.419 -0.3072  0.1212  0.5412
 8442TIP3    H146741   2.906   1.028  16.479 -0.0554 -0.1199  0.3415
 8442TIP3    H246742   3.022   1.100  16.414 -0.3378 -0.6469 -0.7798
 8443TIP3   OH246743   1.975   4.262  14.419  0.1487 -0.4667 -0.2604
 8443TIP3    H146744   2.044   4.326  14.403  0.8534 -1.7302 -2.7066
 8443TIP3    H246745   2.008   4.211  14.493  1.9480 -1.1123 -1.4434
 8444TIP3   OH246746   1.776   4.565  13.472 -0.1616  0.0493  0.3117
 8444TIP3    H146747   1.701   4.618  13.499  1.2924  2.1002  0.5458
 8444TIP3    H246748   1.850   4.600  13.522  1.3800 -0.3870 -1.5556
 8445TIP3   OH246749   3.854   4.487   4.664 -0.2487 -0.0709 -0.2732
 8445TIP3    H146750   3.852   4.487   4.760  0.5972 -1.9021 -0.2140
 8445TIP3    H246751   3.787   4.423   4.639 -0.3927  0.3229 -0.8963
 8446TIP3   OH246752   2.916   0.312   1.465 -0.6042  0.3250 -0.2223
 8446TIP3    H146753   2.821   0.305   1.471 -0.6944  2.0762  1.0616
 8446TIP3    H246754   2.946   0.309   1.556  0.2461  3.0031 -0.3276
 8447TIP3   OH246755   6.728   3.269   0.803  0.1934 -0.3381  0.6367
 8447TIP3    H146756   6.813   3.256   0.843  0.5879  0.8301  0.2212
 8447TIP3    H246757   6.744   3.258   0.709 -0.1007 -0.0287  0.5497
 8448TIP3   OH246758   4.403   0.591  15.763 -0.3320  0.1274  0.0206
 8448TIP3    H146759   4.329   0.530  15.767 -0.6006  0.4754  0.6176
 8448TIP3    H246760   4.364   0.676  15.786  0.4517  0.1253  1.4517
 8449TIP3   OH246761   0.363   2.530   2.788  0.2627 -0.6062 -0.6283
 8449TIP3    H146762   0.282   2.481   2.802 -0.1214  0.3141  0.5843
 8449TIP3    H246763   0.432   2.474   2.822  0.0406 -1.0316 -0.8739
 8450TIP3   OH246764   0.746   2.102  12.166  0.1729 -0.7986  0.0194
 8450TIP3    H146765   0.761   2.012  12.193  0.5997 -0.8591 -0.4032
 8450TIP3    H246766   0.672   2.131  12.218  0.4791 -1.1687  0.6654
 8451TIP3   OH246767   2.675   5.710  13.331 -0.4065 -0.2448 -0.3362
 8451TIP3    H146768   2.670   5.660  13.413  2.4789 -2.2237 -1.1867
 8451TIP3    H246769   2.699   5.799  13.358 -0.4369 -0.6250  1.0212
 8452TIP3   OH246770   6.600   2.762  13.546  0.0525  1.2150 -0.0924
 8452TIP3    H146771   6.575   2.854  13.545 -1.3337  0.8790  0.8356
 8452TIP3    H246772   6.517   2.714  13.539  0.4257  0.0506  2.3233
 8453TIP3   OH246773   5.142   2.340   6.055 -0.0389  0.2401 -0.3477
 8453TIP3    H146774   5.168   2.248   6.051  1.0667  0.5716 -1.2082
 8453TIP3    H246775   5.194   2.376   6.127  0.1447  0.3767 -0.5485
 8454TIP3   OH246776   0.538   4.553  13.105 -0.4561  0.4263 -0.5154
 8454TIP3    H146777   0.533   4.625  13.169 -1.4113  0.8824 -1.0980
 8454TIP3    H246778   0.532   4.474  13.159  0.7409  0.7524  0.1499
 8455TIP3   OH246779   5.612   1.192   5.608  0.5449 -0.0811  0.1783
 8455TIP3    H146780   5.563   1.266   5.643  0.6530  0.1430 -0.1362
 8455TIP3    H246781   5.582   1.117   5.659  0.0311  0.0876  0.1319
 8456TIP3   OH246782   0.283   1.218   1.404  0.3254 -0.1109  0.2089
 8456TIP3    H146783   0.212   1.281   1.415  0.7673  0.3995  0.1939
 8456TIP3    H246784   0.267   1.153   1.472 -1.6785 -1.4976 -1.4625
 8457TIP3   OH246785   4.713   4.167   2.469 -0.0526 -0.0460 -0.0303
 8457TIP3    H146786   4.737   4.255   2.498 -0.4730  0.3095 -0.7323
 8457TIP3    H246787   4.771   4.109   2.519  2.7243  0.7929 -2.0132
 8458TIP3   OH246788   3.331   1.232  13.181  0.4109  0.2489  0.1618
 8458TIP3    H146789   3.388   1.308  13.171  0.0389  0.4376 -0.5706
 8458TIP3    H246790   3.368   1.184  13.256 -0.9401  2.5188  2.4301
 8459TIP3   OH246791   3.326   0.597  11.305  0.1739  0.2314 -0.5000
 8459TIP3    H146792   3.336   0.664  11.237 -2.0276  1.2836  0.0938
 8459TIP3    H246793   3.342   0.514  11.260 -0.8413  0.9253 -2.2354
 8460TIP3   OH246794   1.460   2.978   0.880 -0.2153 -0.6717  0.5930
 8460TIP3    H146795   1.402   2.915   0.923 -0.3870 -0.1552  1.1349
 8460TIP3    H246796   1.445   2.965   0.786 -0.0693 -1.5954  0.6872
 8461TIP3   OH246797   5.067   6.092   4.490  0.0552 -0.5548 -0.4443
 8461TIP3    H146798   5.045   6.008   4.450 -0.3711 -0.9597  0.5953
 8461TIP3    H246799   5.033   6.086   4.579  0.5320  0.5037 -0.1673
 8462TIP3   OH246800   5.821   1.405   4.130  0.1074 -0.1518 -0.4416
 8462TIP3    H146801   5.769   1.365   4.199  0.7151  0.1236  0.1799
 8462TIP3    H246802   5.757   1.452   4.076 -0.1510  1.4740  1.1935
 8463TIP3   OH246803   0.043   4.487   3.615 -0.0656 -0.7601 -0.5184
 8463TIP3    H146804   0.132   4.454   3.605 -0.6892 -2.8377  0.2809
 8463TIP3    H246805   0.038   4.561   3.554  2.2310 -0.4714 -0.4490
 8464TIP3   OH246806   2.642   3.129   2.565 -0.0366  0.5004 -0.3901
 8464TIP3    H146807   2.666   3.174   2.484  1.7818  0.3995  0.0529
 8464TIP3    H246808   2.663   3.191   2.634 -1.4781  0.5447  0.0385
 8465TIP3   OH246809   5.555   1.899  11.506  0.0017 -0.4389 -1.2229
 8465TIP3    H146810   5.464   1.869  11.503 -0.6068  1.1469  0.0796
 8465TIP3    H246811   5.557   1.972  11.443 -0.1593  0.7726  0.1323
 8466TIP3   OH246812   5.738   4.979   4.377  0.8923 -0.1098 -0.0645
 8466TIP3    H146813   5.658   5.015   4.416  1.7917  0.1749  1.6165
 8466TIP3    H246814   5.739   4.887   4.404  1.3974  0.0256  0.3971
 8467TIP3   OH246815   0.434   5.354  12.949 -0.1437  0.4895  0.4404
 8467TIP3    H146816   0.464   5.420  12.886  2.4685  1.1435  2.2103
 8467TIP3    H246817   0.362   5.397  12.996  0.0591  1.2205  0.0980
 8468TIP3   OH246818   3.533   2.940  15.105  0.6302 -0.5990 -0.1239
 8468TIP3    H146819   3.574   2.894  15.178 -0.6330 -1.5906  0.0103
 8468TIP3    H246820   3.595   3.008  15.081  3.0413 -2.8953 -0.9132
 8469TIP3   OH246821   2.892   1.253  14.655 -0.0343  0.7469 -0.2530
 8469TIP3    H146822   2.931   1.172  14.687 -0.3647  1.1024  1.1327
 8469TIP3    H246823   2.921   1.260  14.564 -1.7368 -2.0308 -1.1572
 8470TIP3   OH246824   3.672   3.725  10.570 -0.0391  0.0447 -0.5200
 8470TIP3    H146825   3.585   3.765  10.564 -0.5806 -0.7811  1.1916
 8470TIP3    H246826   3.663   3.658  10.638  1.9571 -0.0337 -0.2773
 8471TIP3   OH246827   1.100   2.397  12.536  0.0522 -0.6218  0.6159
 8471TIP3    H146828   1.165   2.327  12.540  0.4397 -0.2952  0.1245
 8471TIP3    H246829   1.064   2.392  12.447  0.3519  0.0306  0.4457
 8472TIP3   OH246830   1.459   1.656  12.966  0.3537  0.2669 -0.3834
 8472TIP3    H146831   1.431   1.568  12.941 -2.1767  0.6374  0.8587
 8472TIP3    H246832   1.419   1.713  12.900 -0.3668  0.6779  0.3922
 8473TIP3   OH246833   2.987   4.452   3.596  0.0477  0.0702  0.1421
 8473TIP3    H146834   2.922   4.490   3.655 -1.2737 -1.3492 -0.3100
 8473TIP3    H246835   2.963   4.359   3.592  1.1586 -0.1859 -1.2698
 8474TIP3   OH246836   0.846   6.613  15.882  0.0950  0.1450 -0.6263
 8474TIP3    H146837   0.877   6.566  15.804  0.4116  0.0492 -0.4442
 8474TIP3    H246838   0.818   6.698  15.848 -1.0763 -0.3950 -1.0560
 8475TIP3   OH246839   5.194   0.855   5.660 -0.2810  0.3656 -0.0951
 8475TIP3    H146840   5.200   0.806   5.578  2.2730 -1.1310  0.8666
 8475TIP3    H246841   5.103   0.843   5.688 -1.5339  1.7965 -3.1164
 8476TIP3   OH246842   4.201   3.927  15.103 -0.0841 -0.0584 -0.2163
 8476TIP3    H146843   4.222   3.835  15.086 -1.6469 -0.4889 -0.0204
 8476TIP3    H246844   4.279   3.975  15.078  1.2379 -1.5569  0.8723
 8477TIP3   OH246845   1.488   0.178   4.652 -0.4836 -0.3999 -0.3648
 8477TIP3    H146846   1.468   0.266   4.622  2.6669  0.3015 -0.7100
 8477TIP3    H246847   1.479   0.182   4.747 -1.1852  0.0183 -0.4413
 8478TIP3   OH246848   0.397   4.659  16.549  0.0077 -0.4035  0.0475
 8478TIP3    H146849   0.308   4.654  16.514 -0.5140  1.2026  1.0380
 8478TIP3    H246850   0.396   4.736  16.605  1.9129 -0.6310  0.4488
 8479TIP3   OH246851   6.448   5.002  10.861  0.8806 -0.1409  0.6365
 8479TIP3    H146852   6.468   4.908  10.857 -0.0541 -0.3240 -0.9747
 8479TIP3    H246853   6.414   5.016  10.949  1.6439 -1.1832  1.1096
 8480TIP3   OH246854   5.719   5.454  12.435  0.0354  0.4309 -0.2554
 8480TIP3    H146855   5.736   5.470  12.528 -0.8776  1.0475 -0.1943
 8480TIP3    H246856   5.804   5.467  12.393  0.5467 -0.2361  0.5289
 8481TIP3   OH246857   1.375   2.076   5.460 -0.3812  0.1178  0.1418
 8481TIP3    H146858   1.299   2.062   5.517 -0.6273  0.6957 -0.0336
 8481TIP3    H246859   1.451   2.065   5.517 -0.5734 -1.0931  0.1861
 8482TIP3   OH246860   2.776   2.194   4.388  0.5415  0.1892  0.0388
 8482TIP3    H146861   2.740   2.274   4.427 -0.9641 -0.9172  1.0326
 8482TIP3    H246862   2.766   2.206   4.294 -0.4292  0.8270  0.2106
 8483TIP3   OH246863   2.084   0.343   4.891  0.0140 -0.2614 -0.2798
 8483TIP3    H146864   2.143   0.275   4.923 -1.7201 -0.9189  1.7624
 8483TIP3    H246865   1.996   0.310   4.910 -0.9014  2.5757  0.9388
 8484TIP3   OH246866   4.425   1.918   6.013 -0.1416  0.3497 -0.0307
 8484TIP3    H146867   4.372   1.878   5.943  0.0375  0.8736 -0.4718
 8484TIP3    H246868   4.454   1.844   6.066  0.4741 -0.1633 -1.0407
 8485TIP3   OH246869   3.651   5.142   5.437 -0.2172 -0.3861  0.3867
 8485TIP3    H146870   3.650   5.073   5.370 -1.6930  0.3419 -0.3898
 8485TIP3    H246871   3.686   5.219   5.392 -1.9002  0.3123  0.1652
 8486TIP3   OH246872   3.951   6.228   1.246 -0.0687 -0.1615  0.6157
 8486TIP3    H146873   4.046   6.242   1.249  0.1229  0.4213 -2.9337
 8486TIP3    H246874   3.914   6.315   1.252 -0.0484  0.0941 -1.8553
 8487TIP3   OH246875   2.976   3.063  13.179  0.2181  0.1372 -0.0826
 8487TIP3    H146876   2.917   3.089  13.108  1.1641 -0.9343 -1.3117
 8487TIP3    H246877   2.921   3.014  13.240 -0.7991  1.8411  0.4421
 8488TIP3   OH246878   5.218   5.956   2.833  0.2290  0.6320  0.3870
 8488TIP3    H146879   5.133   5.996   2.818  0.0210  0.5341  1.2653
 8488TIP3    H246880   5.216   5.928   2.924  0.3405 -1.4589 -0.1965
 8489TIP3   OH246881   1.990   5.115   0.394  0.2685  0.3073 -0.0660
 8489TIP3    H146882   1.958   5.068   0.317 -2.1092  0.2298  0.9075
 8489TIP3    H246883   2.012   5.047   0.457  2.2527  0.3700 -0.6144
 8490TIP3   OH246884   5.967   6.639  14.558  0.0918 -0.3812 -0.3394
 8490TIP3    H146885   5.898   6.575  14.542 -0.8453  0.3910  0.4194
 8490TIP3    H246886   6.025   6.596  14.621  0.2419 -1.0029 -0.9001
 8491TIP3   OH246887   1.517   1.786   0.182 -0.2944  0.2540  0.2775
 8491TIP3    H146888   1.488   1.871   0.214 -0.2600 -0.2044  1.6081
 8491TIP3    H246889   1.612   1.788   0.192 -0.3864 -0.3817  1.5623
 8492TIP3   OH246890   2.052   3.700   0.009  0.4758 -0.0013 -0.0748
 8492TIP3    H146891   1.958   3.685   0.021  0.4775  0.5613  0.7354
 8492TIP3    H246892   2.070   3.669  -0.079 -0.2032 -1.4179  0.2468
 8493TIP3   OH246893   1.567   0.031   3.155 -0.5511 -0.3713 -0.4825
 8493TIP3    H146894   1.501   0.092   3.187 -0.2012 -0.0516 -0.3535
 8493TIP3    H246895   1.631   0.087   3.110  1.7176 -0.1061  2.6879
 8494TIP3   OH246896   4.684   0.362  11.707  0.6395 -0.8336  0.1386
 8494TIP3    H146897   4.740   0.397  11.776  0.0173 -0.2276  0.3542
 8494TIP3    H246898   4.728   0.387  11.625  0.3183  0.3242  0.2900
 8495TIP3   OH246899   1.658   1.751   2.178 -0.2975  0.3720 -0.8657
 8495TIP3    H146900   1.737   1.705   2.150  0.5431  1.0337  0.3022
 8495TIP3    H246901   1.676   1.775   2.269 -0.9795  2.4146 -1.2305
 8496TIP3   OH246902   2.881   3.338   3.522 -0.4717 -0.4953 -0.2178
 8496TIP3    H146903   2.912   3.354   3.433 -2.0325 -0.5396 -0.8001
 8496TIP3    H246904   2.803   3.283   3.510  0.2840 -1.9672  1.2804
 8497TIP3   OH246905   3.261   5.818  15.435 -0.3097 -0.1738  0.7586
 8497TIP3    H146906   3.324   5.817  15.507 -2.0703  1.5336  2.4348
 8497TIP3    H246907   3.201   5.746  15.454 -0.6946  0.1925  0.9669
 8498TIP3   OH246908   1.526   6.051  15.214 -0.2240  0.0575 -0.0161
 8498TIP3    H146909   1.491   5.964  15.228  1.8074 -0.6499  0.9993
 8498TIP3    H246910   1.591   6.040  15.144  0.2054  0.7187  0.2688
 8499TIP3   OH246911   1.662   6.330   2.687  0.2337  0.4334  0.0003
 8499TIP3    H146912   1.587   6.380   2.655  0.3494 -0.0346 -1.0416
 8499TIP3    H246913   1.694   6.380   2.762  0.2144  1.8381 -0.8892
 8500TIP3   OH246914   1.542   3.281  16.745 -0.2616 -0.3559 -0.1747
 8500TIP3    H146915   1.477   3.321  16.688 -0.8977 -1.4622 -0.2306
 8500TIP3    H246916   1.626   3.308  16.707 -0.6438  1.2368  0.0092
 8501TIP3   OH246917   0.425   3.787   5.889  0.4789  0.1841  0.2474
 8501TIP3    H146918   0.431   3.694   5.866  1.3307  0.8612 -2.7856
 8501TIP3    H246919   0.463   3.793   5.976 -1.8783 -2.6067  1.6050
 8502TIP3   OH246920   1.088   1.605  11.885  0.5653 -0.2673  0.1830
 8502TIP3    H146921   1.008   1.620  11.835  0.1204 -2.6875  0.0546
 8502TIP3    H246922   1.159   1.630  11.824  0.0012 -1.9183 -1.2313
 8503TIP3   OH246923   6.283   0.590  12.784 -0.1679  0.2476 -0.2100
 8503TIP3    H146924   6.206   0.626  12.740 -0.3021 -2.0559 -2.0194
 8503TIP3    H246925   6.248   0.533  12.852 -0.0932 -0.7215 -0.9656
 8504TIP3   OH246926   4.507   2.664   3.189 -0.0068  0.6973  0.8116
 8504TIP3    H146927   4.436   2.600   3.186  0.3288  0.3724 -1.1009
 8504TIP3    H246928   4.553   2.645   3.272 -1.1808 -0.1169  1.3002
 8505TIP3   OH246929   5.437   0.215   6.554 -0.2314 -0.0503  0.9981
 8505TIP3    H146930   5.406   0.210   6.645  0.4441 -1.2001  1.1769
 8505TIP3    H246931   5.396   0.140   6.511  1.8873 -1.3592  1.1299
 8506TIP3   OH246932   0.419   6.237   5.619 -0.0844  0.1848 -0.4064
 8506TIP3    H146933   0.493   6.231   5.680 -0.7034 -0.4520  0.2941
 8506TIP3    H246934   0.460   6.250   5.533  0.8215  0.3669  0.0404
 8507TIP3   OH246935   4.703   3.903  15.361  0.7443 -0.9660  0.1221
 8507TIP3    H146936   4.763   3.974  15.338  0.1866 -0.0217  1.4409
 8507TIP3    H246937   4.618   3.934  15.329  0.2168 -0.2769  2.0339
 8508TIP3   OH246938   1.625   5.504   1.170  0.0133  0.0484  0.2127
 8508TIP3    H146939   1.640   5.449   1.246  0.1068  1.0836  0.9620
 8508TIP3    H246940   1.712   5.533   1.143  0.1718 -1.6933 -1.3906
 8509TIP3   OH246941   5.234   3.351  13.133  0.1677  0.6890 -0.3293
 8509TIP3    H146942   5.292   3.363  13.058  4.3490  1.0999  2.6338
 8509TIP3    H246943   5.259   3.265  13.169 -3.3971 -0.6092 -0.5289
 8510TIP3   OH246944   1.101   4.063  11.079 -0.1620 -0.0307  0.1485
 8510TIP3    H146945   1.154   4.077  11.158  0.1181  0.1352 -0.0684
 8510TIP3    H246946   1.146   4.113  11.011 -0.8738  0.5310  0.0751
 8511TIP3   OH246947   1.271   5.293   3.129  0.3848 -0.5232  0.0991
 8511TIP3    H146948   1.297   5.237   3.056  0.3976 -0.6887  0.2285
 8511TIP3    H246949   1.225   5.234   3.189  0.7136 -0.4721  0.4040
 8512TIP3   OH246950   4.431   6.728   3.721 -0.1981 -0.2830  0.5490
 8512TIP3    H146951   4.446   6.744   3.814  3.5317  2.0530 -0.2652
 8512TIP3    H246952   4.421   6.815   3.682  0.5389 -1.0620 -1.5307
 8513TIP3   OH246953   2.094   1.465   3.808  0.1943 -0.0382 -0.1249
 8513TIP3    H146954   2.106   1.461   3.713  0.1572  2.5704 -0.2972
 8513TIP3    H246955   2.180   1.490   3.842 -0.4469  1.7689  0.2374
 8514TIP3   OH246956   0.201   5.163   4.843  0.0130 -0.3530 -0.2878
 8514TIP3    H146957   0.210   5.256   4.864  1.8280 -0.8232  1.4103
 8514TIP3    H246958   0.284   5.140   4.802  2.1559 -2.2980  4.4094
 8515TIP3   OH246959   5.850   4.683   2.254 -0.2610  0.5360 -0.2886
 8515TIP3    H146960   5.791   4.732   2.196 -1.9344 -2.1127 -1.0240
 8515TIP3    H246961   5.803   4.601   2.272  2.1667 -0.6464  1.1822
 8516TIP3   OH246962   4.811   4.401   2.573 -0.4196 -0.1934 -0.8913
 8516TIP3    H146963   4.747   4.472   2.570 -0.2512 -0.0127 -0.1839
 8516TIP3    H246964   4.789   4.351   2.651  0.7427  0.2860 -0.2364
 8517TIP3   OH246965   4.672   4.338   0.288 -0.3678 -0.5024  0.1268
 8517TIP3    H146966   4.662   4.344   0.193 -0.7745 -1.0774  0.1240
 8517TIP3    H246967   4.668   4.428   0.319 -0.4824 -0.3300 -0.3818
 8518TIP3   OH246968   3.059   3.167  11.452  0.1749 -0.5921 -0.0308
 8518TIP3    H146969   2.980   3.220  11.461  0.9328  0.2868  2.0229
 8518TIP3    H246970   3.034   3.080  11.482 -0.3973 -0.7439 -0.9125
 8519TIP3   OH246971   3.007   0.965   5.052 -0.0122 -0.5675 -0.1513
 8519TIP3    H146972   3.060   1.037   5.086 -0.5873 -0.2221  0.0261
 8519TIP3    H246973   3.071   0.902   5.019  0.4826  0.2861 -0.8514
 8520TIP3   OH246974   2.248   4.868   4.317  0.1300 -0.1955 -0.4195
 8520TIP3    H146975   2.248   4.796   4.254  1.2449 -0.2400 -0.3814
 8520TIP3    H246976   2.156   4.877   4.343 -0.1124 -1.1954 -0.8906
 8521TIP3   OH246977   5.490   4.475  13.973  0.2276  0.8184  0.2037
 8521TIP3    H146978   5.585   4.469  13.980  0.4117  2.4203 -0.4081
 8521TIP3    H246979   5.457   4.433  14.052  1.4469  0.3212  0.4685
 8522TIP3   OH246980   3.560   0.176  13.957 -0.1798  0.1388 -0.2737
 8522TIP3    H146981   3.636   0.233  13.946 -0.2636  0.1016 -1.0935
 8522TIP3    H246982   3.593   0.088  13.942 -0.2733  0.0737 -0.0952
 8523TIP3   OH246983   1.189   5.165  16.243  0.6086 -0.4929 -0.7770
 8523TIP3    H146984   1.106   5.148  16.200 -0.6981  0.8950  1.0533
 8523TIP3    H246985   1.215   5.252  16.213  1.6498 -1.0893 -1.6697
 8524TIP3   OH246986   2.395   0.476  11.432  0.3620 -0.3391  0.2920
 8524TIP3    H146987   2.464   0.422  11.470  1.5626  1.4050  0.7233
 8524TIP3    H246988   2.415   0.478  11.339  0.8269  0.0519  0.3972
 8525TIP3   OH246989   3.020   5.262  16.027  0.0358 -0.4295 -0.7856
 8525TIP3    H146990   2.963   5.219  15.963  0.7150  0.0832 -1.7703
 8525TIP3    H246991   3.109   5.244  15.995  0.3537  1.0942 -0.8318
 8526TIP3   OH246992   1.503   1.809   3.138  0.0356 -0.4369 -0.4031
 8526TIP3    H146993   1.528   1.720   3.161  0.4942  0.3857  2.8800
 8526TIP3    H246994   1.558   1.831   3.062  0.8693 -2.4807 -0.4398
 8527TIP3   OH246995   2.334   5.817  16.794 -0.2074  0.1838  0.1970
 8527TIP3    H146996   2.329   5.890  16.732 -1.6599 -1.2841 -1.5284
 8527TIP3    H246997   2.419   5.776  16.776 -1.4070 -1.3988 -2.3343
 8528TIP3   OH246998   2.318   1.936   4.455 -0.0885 -0.1743 -0.0602
 8528TIP3    H146999   2.277   2.020   4.436  0.5870 -0.0329 -0.9446
 8528TIP3    H247000   2.357   1.947   4.541  0.3068  0.5438 -0.3228
 8529TIP3   OH247001   6.034   5.889   0.343 -0.0764  0.0573  0.4959
 8529TIP3    H147002   5.989   5.844   0.414 -0.1753 -1.8359 -0.6827
 8529TIP3    H247003   5.985   5.970   0.331 -1.0017 -0.3272  1.5497
 8530TIP3   OH247004   0.560   1.154  14.454  0.4217  0.2198  0.1906
 8530TIP3    H147005   0.542   1.111  14.538 -0.0506 -1.7914 -0.8799
 8530TIP3    H247006   0.475   1.188  14.426  0.6270  1.1134  0.6196
 8531TIP3   OH247007   0.819   4.503  13.004  0.0236  0.0937  0.2767
 8531TIP3    H147008   0.859   4.433  13.056  3.1281  1.6466  0.2067
 8531TIP3    H247009   0.782   4.563  13.070  1.2175  0.5018  0.6108
 8532TIP3   OH247010   6.279   4.379   5.070  0.5599 -0.3488  0.2059
 8532TIP3    H147011   6.288   4.460   5.119 -0.5304 -0.6621  0.9636
 8532TIP3    H247012   6.311   4.400   4.982  0.5690  0.8119  0.4726
 8533TIP3   OH247013   5.367   2.388  15.059 -0.0871 -0.2871 -0.0601
 8533TIP3    H147014   5.393   2.448  14.990  0.1821 -0.2246  0.0932
 8533TIP3    H247015   5.309   2.439  15.116  0.8260  0.0887  0.5469
 8534TIP3   OH247016   1.238   4.615   0.014 -0.3475  0.1565 -0.1092
 8534TIP3    H147017   1.231   4.623  -0.081  3.7371  1.2406 -0.4972
 8534TIP3    H247018   1.246   4.706   0.045  0.6545 -0.2842  0.9738
 8535TIP3   OH247019   3.992   5.289   3.861  0.1974  0.1236 -0.7927
 8535TIP3    H147020   3.910   5.240   3.859  0.3832 -0.2342 -0.0690
 8535TIP3    H247021   4.044   5.249   3.791  1.3900 -2.6769  1.4515
 8536TIP3   OH247022   6.178   1.419  14.052  0.5225 -0.5810  0.0542
 8536TIP3    H147023   6.193   1.476  13.977 -0.2141 -0.1808  0.2026
 8536TIP3    H247024   6.167   1.479  14.126 -0.8791 -0.8661  0.1050
 8537TIP3   OH247025   5.386   1.259  15.030  0.0354 -0.6953 -0.0754
 8537TIP3    H147026   5.318   1.292  15.089  0.7688 -0.1203  0.4599
 8537TIP3    H247027   5.456   1.229  15.088  1.2359  0.8718 -0.6257
 8538TIP3   OH247028   6.067   3.974  12.152 -0.2723 -0.2898  0.3191
 8538TIP3    H147029   6.025   3.903  12.104 -1.1867 -0.4108  1.2543
 8538TIP3    H247030   6.028   3.970  12.240 -0.0838  1.1506  0.4954
 8539TIP3   OH247031   0.078   0.550   2.137 -0.2765  0.7504  0.5087
 8539TIP3    H147032   0.011   0.493   2.175 -0.0917 -0.4699 -0.9076
 8539TIP3    H247033   0.131   0.492   2.083  2.3221  1.5432  1.9978
 8540TIP3   OH247034   6.593   6.651   4.009  1.2395  0.2494  0.7981
 8540TIP3    H147035   6.628   6.642   4.097  1.1147  2.0179  1.0490
 8540TIP3    H247036   6.506   6.688   4.020  0.0018 -2.1901  0.0526
 8541TIP3   OH247037   5.183   2.365  14.244 -0.1924 -0.3417  0.0963
 8541TIP3    H147038   5.121   2.438  14.238  1.5801  1.2335 -0.0569
 8541TIP3    H247039   5.142   2.295  14.194 -1.7374  0.7048 -0.1872
 8542TIP3   OH247040   3.968   5.005  15.764  0.1011 -0.2826  0.7495
 8542TIP3    H147041   3.937   5.001  15.673  0.0766 -2.9513  0.7838
 8542TIP3    H247042   3.934   5.088  15.798  0.0881  0.7562 -1.6462
 8543TIP3   OH247043   1.032   1.501  11.440 -0.3333  0.5287  0.3694
 8543TIP3    H147044   1.075   1.435  11.386 -0.4267  1.5561 -1.0165
 8543TIP3    H247045   0.939   1.477  11.438 -0.3829  0.7297 -0.2285
 8544TIP3   OH247046   5.972   4.505   3.528  0.8783  0.2715 -0.6645
 8544TIP3    H147047   6.036   4.552   3.582  1.6106  0.2595 -1.5073
 8544TIP3    H247048   6.019   4.485   3.447 -0.4900  1.1261 -1.7033
 8545TIP3   OH247049   4.404   3.427   2.122  1.1012  0.7368  0.3527
 8545TIP3    H147050   4.486   3.399   2.080  0.7442  0.7024 -0.3304
 8545TIP3    H247051   4.431   3.495   2.184  1.6521  0.7229  0.1341
 8546TIP3   OH247052   5.566   0.923   1.057  0.1495 -0.0745  0.0465
 8546TIP3    H147053   5.589   0.832   1.076  0.9186 -0.6286 -3.0030
 8546TIP3    H247054   5.642   0.957   1.009 -0.3559  2.0362  0.6435
 8547TIP3   OH247055   3.291   1.475  11.064  0.2573 -0.0862 -0.2971
 8547TIP3    H147056   3.361   1.501  11.124 -0.4018  1.9896 -0.3618
 8547TIP3    H247057   3.212   1.473  11.119  0.0815 -0.7801 -0.5644
 8548TIP3   OH247058   0.454   2.371   1.738  0.5358  0.1224  0.1063
 8548TIP3    H147059   0.523   2.329   1.686  0.0962 -0.3999 -0.0737
 8548TIP3    H247060   0.373   2.333   1.704  0.2371 -0.2126  1.1519
 8549TIP3   OH247061   0.809   1.173   2.277 -0.2169  0.0953  0.2948
 8549TIP3    H147062   0.838   1.093   2.323  1.0923 -0.7515 -1.8489
 8549TIP3    H247063   0.821   1.153   2.184 -1.8659  2.0703 -0.4185
 8550TIP3   OH247064   1.222   6.045   1.836  0.3809  0.3571 -0.5810
 8550TIP3    H147065   1.167   6.005   1.904  0.4805  0.7652 -0.2505
 8550TIP3    H247066   1.174   6.032   1.755  1.2124 -2.0014 -0.7913
 8551TIP3   OH247067   5.957   1.120  17.105 -0.3759  0.3745  0.1674
 8551TIP3    H147068   5.915   1.105  17.190 -0.1841  1.1016  0.3971
 8551TIP3    H247069   5.917   1.055  17.047 -0.8841  0.2080  0.6899
 8552TIP3   OH247070   0.505   5.875   1.237  0.1630  0.0836  0.0519
 8552TIP3    H147071   0.421   5.901   1.198  1.0732  3.8573  0.2432
 8552TIP3    H247072   0.555   5.838   1.164 -1.6365 -2.5719  0.0015
 8553TIP3   OH247073   0.869   3.437   1.007  0.2025 -0.6439 -0.2900
 8553TIP3    H147074   0.841   3.503   0.944  0.9243 -2.5581 -2.7709
 8553TIP3    H247075   0.935   3.481   1.060  0.7099  0.6096 -1.8963
 8554TIP3   OH247076   5.000   3.676  11.942 -0.1786  0.0200  0.2456
 8554TIP3    H147077   5.014   3.672  11.848  1.9404  1.2106  0.4191
 8554TIP3    H247078   5.068   3.619  11.979 -2.0594 -1.8005  1.0430
 8555TIP3   OH247079   6.054   6.654  11.640 -0.1388  0.4053 -0.2544
 8555TIP3    H147080   6.077   6.744  11.617  0.1995  0.3344 -0.2112
 8555TIP3    H247081   6.139   6.612  11.656 -0.2503 -0.0945 -0.9375
 8556TIP3   OH247082   0.454   1.449  15.662 -0.4266  0.0911 -0.4164
 8556TIP3    H147083   0.515   1.491  15.601  0.3115 -1.2057 -0.6087
 8556TIP3    H247084   0.421   1.521  15.716  0.3165  1.0002 -1.1362
 8557TIP3   OH247085   6.029   0.681   2.110 -0.3055 -0.1998 -0.4330
 8557TIP3    H147086   6.018   0.623   2.186 -0.8221 -0.8752 -1.0128
 8557TIP3    H247087   6.074   0.758   2.145  1.0510 -1.2475  0.2064
 8558TIP3   OH247088   4.518   1.210   6.199  0.4450 -0.6399  0.5157
 8558TIP3    H147089   4.473   1.176   6.122  2.2690  0.8914 -1.3929
 8558TIP3    H247090   4.493   1.303   6.202  0.8174 -0.5588  1.4279
 8559TIP3   OH247091   2.775   0.449  12.100  0.6092 -0.3717 -0.4680
 8559TIP3    H147092   2.796   0.489  12.015 -0.6997  1.6075  0.0432
 8559TIP3    H247093   2.827   0.499  12.163  0.0416 -0.4456  0.0657
 8560TIP3   OH247094   0.486   5.378   5.465 -0.2428 -0.1101 -0.8712
 8560TIP3    H147095   0.500   5.459   5.515 -2.2408  0.4898 -1.2315
 8560TIP3    H247096   0.573   5.357   5.431  0.7258  0.7614  0.8729
 8561TIP3   OH247097   0.696   0.684  12.191 -0.6848  0.1436  0.1979
 8561TIP3    H147098   0.703   0.776  12.168 -1.9074  0.3983  0.8152
 8561TIP3    H247099   0.622   0.652  12.140 -1.7804  0.0940  1.7738
 8562TIP3   OH247100   1.015   4.090   2.081  0.0028 -0.1566 -0.2643
 8562TIP3    H147101   0.996   4.084   1.988  1.2737  0.2561 -0.5696
 8562TIP3    H247102   0.986   4.178   2.106  1.5945  0.5541 -0.7770
 8563TIP3   OH247103   4.530   3.684   3.070  0.0666  0.1712 -0.0535
 8563TIP3    H147104   4.568   3.604   3.033  0.9475  0.2958  0.5407
 8563TIP3    H247105   4.445   3.692   3.027  0.9661  0.2297 -1.9272
 8564TIP3   OH247106   4.239   4.253   0.709  0.2412  0.1558  0.5391
 8564TIP3    H147107   4.216   4.327   0.765 -2.8932 -1.2064  1.2703
 8564TIP3    H247108   4.219   4.282   0.620 -0.3306  0.4210  0.7487
 8565TIP3   OH247109   1.121   3.898   4.244  0.4663 -0.5352 -0.2784
 8565TIP3    H147110   1.081   3.931   4.164 -0.4865  1.5196  0.9766
 8565TIP3    H247111   1.053   3.845   4.286  0.1322  0.3126  0.2801
 8566TIP3   OH247112   4.241   1.639   3.164 -0.0801  0.0717 -0.5745
 8566TIP3    H147113   4.192   1.612   3.241 -0.7094  1.4796 -0.4567
 8566TIP3    H247114   4.268   1.729   3.182  1.1697 -0.1201 -1.3177
 8567TIP3   OH247115   3.023   2.344  17.322  0.2929 -0.1887  0.1450
 8567TIP3    H147116   3.087   2.275  17.310  1.6369  0.8029  1.1779
 8567TIP3    H247117   3.069   2.410  17.374 -1.0397  1.3230 -0.5065
 8568TIP3   OH247118   1.425   2.177   4.613  0.3033 -0.1102  0.0174
 8568TIP3    H147119   1.363   2.160   4.684  2.2918 -4.6753  1.0137
 8568TIP3    H247120   1.510   2.189   4.657  1.0900  0.1652 -1.4859
 8569TIP3   OH247121   1.773   3.962  13.511 -0.3268  0.0384 -0.1054
 8569TIP3    H147122   1.718   4.022  13.461 -1.1601 -0.1422  0.5707
 8569TIP3    H247123   1.836   4.019  13.555  0.5123  0.1831 -1.4544
 8570TIP3   OH247124   3.085   4.120  12.968  0.0644  0.3124  0.0184
 8570TIP3    H147125   3.142   4.096  13.041  0.2099 -3.9487 -1.2343
 8570TIP3    H247126   3.030   4.190  13.003  0.3291 -1.2495  4.1191
 8571TIP3   OH247127   3.009   1.635   3.621  0.0717  0.5605  0.0107
 8571TIP3    H147128   3.003   1.681   3.705  0.4083  0.1848  0.2399
 8571TIP3    H247129   3.024   1.544   3.644 -1.2363  0.2049 -0.4300
 8572TIP3   OH247130   5.164   4.807   4.800  0.0451  0.5327  0.1164
 8572TIP3    H147131   5.087   4.774   4.846 -0.8458 -1.1041 -2.3301
 8572TIP3    H247132   5.129   4.854   4.725  1.4599  2.3634  0.5228
 8573TIP3   OH247133   0.473   2.982  14.871 -0.2334  0.4141  0.0017
 8573TIP3    H147134   0.507   3.039  14.802  2.1850 -1.6833 -0.6880
 8573TIP3    H247135   0.548   2.967  14.929 -0.8438 -1.7767  0.3170
 8574TIP3   OH247136   6.542   5.118  16.974 -0.0459 -0.1122 -0.5256
 8574TIP3    H147137   6.512   5.069  17.050  0.5540 -0.8961 -0.7779
 8574TIP3    H247138   6.577   5.052  16.915 -0.2724  0.5105 -1.3794
 8575TIP3   OH247139   5.081   5.982  14.761 -0.5423 -0.3399  0.0125
 8575TIP3    H147140   5.088   5.973  14.856 -2.9332  0.1400  0.2877
 8575TIP3    H247141   4.989   5.964  14.742  0.1089 -1.5319 -2.3681
 8576TIP3   OH247142   1.014   4.585  15.390 -0.1298 -0.5694 -0.4460
 8576TIP3    H147143   1.033   4.664  15.339 -1.8626 -0.5600 -1.1378
 8576TIP3    H247144   1.038   4.513  15.331 -1.0340 -0.5551 -0.8406
 8577TIP3   OH247145   0.092   2.352   3.804 -0.4628  0.1532  0.4127
 8577TIP3    H147146   0.136   2.403   3.736  1.7536 -0.6708  1.1526
 8577TIP3    H247147   0.045   2.417   3.856  2.2355  1.5460  1.3050
 8578TIP3   OH247148   0.531   1.081   0.693 -0.3869 -0.5024 -0.2661
 8578TIP3    H147149   0.569   1.040   0.770 -0.8604 -0.5855 -0.0730
 8578TIP3    H247150   0.603   1.085   0.629 -0.4867 -2.2058 -0.5153
 8579TIP3   OH247151   0.015   4.931  15.430 -0.5741 -0.1891  0.2043
 8579TIP3    H147152   0.016   4.921  15.525 -0.6175  1.8323  0.4634
 8579TIP3    H247153   0.100   4.899  15.402  0.3854  1.3146  1.2227
 8580TIP3   OH247154   3.962   1.239   0.459 -0.6457 -0.2678 -0.0127
 8580TIP3    H147155   3.986   1.305   0.524  1.4657  0.7055 -1.6478
 8580TIP3    H247156   3.869   1.225   0.473 -0.2730 -0.3250  3.3530
 8581TIP3   OH247157   3.186   2.730  15.269  0.7246  0.4855 -0.1407
 8581TIP3    H147158   3.175   2.809  15.217 -1.0531  0.2998 -0.0945
 8581TIP3    H247159   3.175   2.658  15.206  2.4670  0.2176 -0.2145
 8582TIP3   OH247160   6.421   0.753   0.389 -0.0533  0.0930  0.3750
 8582TIP3    H147161   6.496   0.704   0.423  1.0701  0.9151 -0.8177
 8582TIP3    H247162   6.431   0.841   0.425 -0.5749  0.1563  0.3791
 8583TIP3   OH247163   4.498   6.239   1.162  0.5588  0.2011  0.6061
 8583TIP3    H147164   4.567   6.291   1.119  0.1064  0.3430  0.0346
 8583TIP3    H247165   4.474   6.291   1.239  0.8975  0.2844  0.6608
 8584TIP3   OH247166   3.437   0.126  16.664 -0.1936 -0.6645  0.3054
 8584TIP3    H147167   3.455   0.179  16.586 -1.7632  0.1048  0.4369
 8584TIP3    H247168   3.522   0.122  16.710 -0.1278  2.3355  0.6360
 8585TIP3   OH247169   1.499   3.170   0.463  0.0185  0.7312 -0.2407
 8585TIP3    H147170   1.410   3.189   0.493 -0.9865 -0.5651 -2.2072
 8585TIP3    H247171   1.494   3.082   0.428  2.5185 -0.0275  1.0654
 8586TIP3   OH247172   0.511   3.561   2.236  0.2122 -0.2009 -0.1023
 8586TIP3    H147173   0.542   3.471   2.227  1.6428  0.2014  0.5646
 8586TIP3    H247174   0.449   3.558   2.308  1.1909 -0.4615  0.7556
 8587TIP3   OH247175   3.342   0.321   4.558 -0.2803  0.2747 -0.6360
 8587TIP3    H147176   3.258   0.322   4.512 -2.3240  1.1709  2.7382
 8587TIP3    H247177   3.333   0.252   4.624  1.7515  0.2578 -0.2892
 8588TIP3   OH247178   1.230   2.618   3.529  0.1826 -0.2645 -0.2377
 8588TIP3    H147179   1.162   2.657   3.475  0.2074 -0.0434 -0.1083
 8588TIP3    H247180   1.186   2.548   3.577  0.2455 -0.7357 -0.8448
 8589TIP3   OH247181   3.147   1.131   3.587  0.4621 -0.6093 -0.4585
 8589TIP3    H147182   3.125   1.039   3.596 -0.5415 -0.2702  0.7703
 8589TIP3    H247183   3.236   1.131   3.552 -0.1090 -2.0286 -2.0439
 8590TIP3   OH247184   0.334   3.985  13.261  0.0320 -0.1032 -0.0189
 8590TIP3    H147185   0.337   4.065  13.313  0.0876 -0.0122 -0.1610
 8590TIP3    H247186   0.412   3.990  13.205 -0.5148  0.2557 -0.7740
 8591TIP3   OH247187   0.113   3.644  17.174  0.1069 -0.0272  0.4461
 8591TIP3    H147188   0.141   3.596  17.096  0.2943  0.4809  0.1964
 8591TIP3    H247189   0.178   3.714  17.184 -0.9596  1.0665 -0.0474
 8592TIP3   OH247190   6.673   1.354  13.863 -0.4565 -0.1815  0.3797
 8592TIP3    H147191   6.640   1.305  13.938 -1.3730  0.2650  0.2840
 8592TIP3    H247192   6.764   1.327  13.854 -0.5172 -0.6962  1.2748
 8593TIP3   OH247193   4.726   3.477   3.988  0.0294  0.4804  0.1675
 8593TIP3    H147194   4.646   3.430   3.967  0.9177 -0.3787 -1.5243
 8593TIP3    H247195   4.794   3.433   3.937  1.5268  1.4214  1.2446
 8594TIP3   OH247196   5.273   2.444   1.879 -0.0172  0.0176  0.4145
 8594TIP3    H147197   5.317   2.527   1.897 -1.4186  0.6277  1.1931
 8594TIP3    H247198   5.317   2.380   1.935 -0.6197  0.7731  1.7961
 8595TIP3   OH247199   2.931   3.357   5.881  0.1692 -0.2624  0.2763
 8595TIP3    H147200   2.921   3.450   5.860  1.8023 -0.0143  0.4911
 8595TIP3    H247201   2.869   3.313   5.824  0.0368  0.8871 -0.5061
 8596TIP3   OH247202   4.691   2.053  17.025 -0.5007  0.2294 -0.0033
 8596TIP3    H147203   4.714   2.102  17.103 -0.2094  0.1642 -0.0476
 8596TIP3    H247204   4.613   2.004  17.050 -1.8963  2.0782 -0.5004
 8597TIP3   OH247205   1.291   4.131   1.943 -0.4424  0.3375  0.5796
 8597TIP3    H147206   1.361   4.082   1.986  0.4376  0.6443 -0.4771
 8597TIP3    H247207   1.232   4.156   2.015  0.1952 -0.4537  1.4006
 8598TIP3   OH247208   5.314   0.530   5.816  0.6680 -0.0347 -0.1892
 8598TIP3    H147209   5.258   0.497   5.886  0.5664 -0.6937 -0.5690
 8598TIP3    H247210   5.344   0.616   5.846 -0.0535  0.0531  0.2846
 8599TIP3   OH247211   6.491   1.250  11.384 -0.0072  0.3121 -0.3058
 8599TIP3    H147212   6.511   1.295  11.302 -0.0193  1.0750  0.1022
 8599TIP3    H247213   6.563   1.273  11.443 -0.1486  0.0064 -0.0106
 8600TIP3   OH247214   4.237   3.135  16.718 -0.4243 -0.2223 -0.5543
 8600TIP3    H147215   4.315   3.180  16.684 -0.8363  0.1661 -1.0145
 8600TIP3    H247216   4.264   3.100  16.803 -0.9415  3.5630  1.3615
 8601TIP3   OH247217   1.943   2.472   1.725  0.1256 -0.0205  0.5142
 8601TIP3    H147218   2.034   2.489   1.702 -0.2082  0.6572 -0.4325
 8601TIP3    H247219   1.924   2.535   1.795  0.3844 -0.1608  0.7109
 8602TIP3   OH247220   3.451   5.723   2.556 -0.1015 -0.1547  0.1322
 8602TIP3    H147221   3.469   5.665   2.482  0.1043  1.8532 -1.4532
 8602TIP3    H247222   3.369   5.766   2.534  0.1998  0.8249  0.8432
 8603TIP3   OH247223   0.630   2.751  15.658 -0.4247  0.2075 -0.0811
 8603TIP3    H147224   0.637   2.757  15.753 -1.9116 -0.8708  0.1126
 8603TIP3    H247225   0.680   2.827  15.626  2.9483 -1.1903  1.4004
 8604TIP3   OH247226   0.247   6.410   0.115 -0.5197  0.4109 -0.1870
 8604TIP3    H147227   0.314   6.439   0.177  0.9078 -2.0637 -0.4162
 8604TIP3    H247228   0.297   6.378   0.040 -2.0630  0.1873 -1.1562
 8605TIP3   OH247229   2.872   5.719   7.050  0.3302 -0.7984  0.2581
 8605TIP3    H147230   2.780   5.702   7.029  0.0771 -0.0362  0.7043
 8605TIP3    H247231   2.909   5.754   6.968  0.4570 -1.9326 -0.1840
 8606TIP3   OH247232   3.655   5.212  16.686  0.2537 -0.7925  0.1103
 8606TIP3    H147233   3.663   5.253  16.772  0.9279  0.3784 -0.4804
 8606TIP3    H247234   3.629   5.122  16.704 -1.2966 -0.1270  1.4769
 8607TIP3   OH247235   4.419   5.855  16.881  0.0597 -0.2778  0.6442
 8607TIP3    H147236   4.455   5.813  16.803 -1.4543 -0.0487 -0.2187
 8607TIP3    H247237   4.488   5.914  16.910  1.1031 -1.2241  0.1857
 8608TIP3   OH247238   4.840   3.173  13.006 -0.2984 -0.5962 -0.0084
 8608TIP3    H147239   4.852   3.222  13.087  1.3244  1.1214 -1.1853
 8608TIP3    H247240   4.889   3.092  13.019  0.8483  0.1362  0.3915
 8609TIP3   OH247241   3.622   1.983  11.902 -0.6891 -0.0065  0.1838
 8609TIP3    H147242   3.678   2.043  11.950 -0.2895 -0.0268 -0.2475
 8609TIP3    H247243   3.598   2.030  11.822 -3.0616  0.8516  1.3052
 8610TIP3   OH247244   0.622   2.458  13.691 -0.0287  0.0261 -0.4013
 8610TIP3    H147245   0.577   2.535  13.726 -0.3244 -1.5080  3.0338
 8610TIP3    H247246   0.595   2.387  13.749  1.9413 -2.2443 -2.0770
 8611TIP3   OH247247   1.397   2.280  13.803  0.7267  0.4005  0.2029
 8611TIP3    H147248   1.475   2.312  13.848  0.8915  0.5694 -0.1954
 8611TIP3    H247249   1.406   2.313  13.713  1.2936 -1.4268 -0.4517
 8612TIP3   OH247250   1.396   0.479   4.451  0.5199 -0.7840  0.0351
 8612TIP3    H147251   1.422   0.554   4.505 -0.5936  1.0587 -1.8417
 8612TIP3    H247252   1.317   0.446   4.493  1.1927 -1.1695  1.0565
 8613TIP3   OH247253   4.289   4.617   2.784 -0.8177  0.1445 -0.1581
 8613TIP3    H147254   4.348   4.547   2.814  1.3997  2.0707  0.2531
 8613TIP3    H247255   4.279   4.601   2.690  0.5166 -0.1628 -0.2710
 8614TIP3   OH247256   0.186   5.135   3.547  0.7893 -0.1708 -0.4344
 8614TIP3    H147257   0.211   5.155   3.637 -0.8646  0.6442 -0.1097
 8614TIP3    H247258   0.104   5.085   3.555  0.0069  0.8821 -1.4885
 8615TIP3   OH247259   0.842   4.426   5.291 -0.4354 -0.0143  0.4171
 8615TIP3    H147260   0.815   4.492   5.354  1.2772 -0.3632  1.6013
 8615TIP3    H247261   0.773   4.359   5.294 -0.2945 -0.1392  2.1378
 8616TIP3   OH247262   2.013   2.836  14.796 -0.2866 -0.6203 -0.0676
 8616TIP3    H147263   2.022   2.931  14.807  0.9450 -0.6393 -0.6770
 8616TIP3    H247264   1.971   2.807  14.877 -1.1940  0.4961 -0.1016
 8617TIP3   OH247265   2.161   1.819   2.205 -0.2562 -0.6250 -0.0556
 8617TIP3    H147266   2.115   1.737   2.221 -0.0271 -0.6761  0.3802
 8617TIP3    H247267   2.147   1.870   2.285  0.6094 -0.7268  0.1770
 8618TIP3   OH247268   2.638   3.793   5.366  0.1540 -0.6129 -0.0093
 8618TIP3    H147269   2.582   3.820   5.438  1.5190  0.6664  0.6199
 8618TIP3    H247270   2.683   3.715   5.398  0.4427 -0.2920  0.3745
 8619TIP3   OH247271   3.435   3.299  14.629 -0.0474 -0.3927  0.8153
 8619TIP3    H147272   3.361   3.354  14.604  1.3646  0.9547 -0.7248
 8619TIP3    H247273   3.402   3.209  14.623 -1.0148  0.0469 -1.9934
 8620TIP3   OH247274   6.473   1.422   1.534  0.2655  0.5266  0.7647
 8620TIP3    H147275   6.508   1.345   1.579  0.2009  0.7236  1.1536
 8620TIP3    H247276   6.509   1.496   1.582  1.1621  0.7684 -0.2268
 8621TIP3   OH247277   3.085   5.223  13.015 -0.1302 -0.3449  0.0569
 8621TIP3    H147278   3.139   5.244  12.939 -1.4553  1.0580 -0.5373
 8621TIP3    H247279   3.089   5.301  13.071  0.6054 -1.2521  1.3434
 8622TIP3   OH247280   3.923   0.762  14.902 -0.2449  0.8517  0.0587
 8622TIP3    H147281   3.866   0.744  14.977  0.2977  0.4284  0.3798
 8622TIP3    H247282   3.989   0.822  14.936  0.4545  0.0559  0.1379
 8623TIP3   OH247283   4.039   1.877   6.473 -0.3552  0.2546  0.4669
 8623TIP3    H147284   4.129   1.895   6.502 -0.2843 -0.0743  0.4507
 8623TIP3    H247285   4.012   1.800   6.522  0.7586 -2.0822 -2.2806
 8624TIP3   OH247286   2.141   2.049  11.558 -0.7175  0.4973  0.3046
 8624TIP3    H147287   2.088   2.110  11.506 -0.8913  0.7397  0.7666
 8624TIP3    H247288   2.145   2.088  11.645  0.6911  0.7703  0.1439
 8625TIP3   OH247289   6.208   3.102  15.065 -0.5490 -0.3554  0.1164
 8625TIP3    H147290   6.300   3.092  15.091 -0.6484 -1.6577  0.0313
 8625TIP3    H247291   6.172   3.164  15.128  0.8199  1.6633 -0.9654
 8626TIP3   OH247292   4.416   3.168  17.249  0.2998  0.0292 -0.1634
 8626TIP3    H147293   4.491   3.227  17.253  0.4572  0.0289 -2.0394
 8626TIP3    H247294   4.343   3.220  17.281  0.8830  0.4085  0.5807
 8627TIP3   OH247295   0.337   0.375   5.134  0.1754 -0.4515 -0.2095
 8627TIP3    H147296   0.266   0.399   5.074  0.4811 -0.8656 -0.7361
 8627TIP3    H247297   0.360   0.286   5.110  0.8173 -0.3533  0.0248
 8628TIP3   OH247298   2.510   0.636  12.669 -0.2660 -0.2997 -0.4588
 8628TIP3    H147299   2.420   0.658  12.695  0.0150 -0.0242  0.3270
 8628TIP3    H247300   2.562   0.710  12.701  0.2648 -0.5491 -0.7419
 8629TIP3   OH247301   4.026   4.670   5.470  0.2671 -0.1152 -0.1492
 8629TIP3    H147302   4.019   4.668   5.565 -0.3529  0.5474 -0.1705
 8629TIP3    H247303   3.938   4.692   5.440  0.2375 -1.2002 -0.9261
 8630TIP3   OH247304   2.823   1.657   2.911 -0.2531  0.1628 -0.1906
 8630TIP3    H147305   2.891   1.720   2.932 -0.3528 -0.1107  1.0205
 8630TIP3    H247306   2.867   1.572   2.915 -0.6102  0.0015  0.3872
 8631TIP3   OH247307   0.654   3.062   1.039 -0.2350  0.3375 -0.2407
 8631TIP3    H147308   0.722   3.056   0.972  0.9404 -1.0539  1.0166
 8631TIP3    H247309   0.685   3.006   1.110 -1.4680  1.7097  1.4562
 8632TIP3   OH247310   0.059   0.174  14.356 -0.0477 -0.1517  0.0254
 8632TIP3    H147311   0.022   0.192  14.270 -0.1438 -0.9639 -0.1075
 8632TIP3    H247312   0.138   0.122  14.338 -0.5049 -1.0166  0.4605
 8633TIP3   OH247313   2.587   1.134   2.562 -0.4170  0.0812  0.1195
 8633TIP3    H147314   2.510   1.171   2.606 -0.1292  0.8244 -0.0028
 8633TIP3    H247315   2.662   1.179   2.601 -0.1834  1.2211 -1.5455
 8634TIP3   OH247316   6.321   5.598  11.449  0.4136  0.1277 -0.5191
 8634TIP3    H147317   6.295   5.682  11.412  1.1492  0.5103 -0.1824
 8634TIP3    H247318   6.330   5.540  11.374  0.3504  0.4729 -0.7938
 8635TIP3   OH247319   1.437   5.319  11.847  0.3157 -0.2519  0.7302
 8635TIP3    H147320   1.400   5.381  11.910 -2.3910  1.5023 -2.3212
 8635TIP3    H247321   1.506   5.368  11.803  1.1497 -0.9454  1.2463
 8636TIP3   OH247322   5.946   0.476   1.937  0.2451 -0.8417 -0.8080
 8636TIP3    H147323   5.962   0.540   2.006 -1.4956 -1.5097  0.2534
 8636TIP3    H247324   5.965   0.524   1.856 -0.7719  0.9735 -0.0373
 8637TIP3   OH247325   0.870   4.431  14.014 -0.3358 -0.1666 -0.1534
 8637TIP3    H147326   0.835   4.518  13.994 -1.2566  0.0112  1.9903
 8637TIP3    H247327   0.799   4.371  13.993 -0.2981 -0.2420 -0.0664
 8638TIP3   OH247328   1.058   4.455   0.898  0.4868 -0.5502 -0.3659
 8638TIP3    H147329   1.126   4.400   0.937  1.3982 -0.1118 -1.2994
 8638TIP3    H247330   0.985   4.395   0.883 -0.4810 -0.5020  3.2171
 8639TIP3   OH247331   6.747   2.334  12.428 -0.2669  0.3138  0.4057
 8639TIP3    H147332   6.798   2.390  12.371 -1.1974  1.4566  0.6619
 8639TIP3    H247333   6.783   2.350  12.516 -0.5520  0.5380  0.4830
 8640TIP3   OH247334   5.222   4.560  16.942  0.0312  0.5241  0.2011
 8640TIP3    H147335   5.260   4.575  16.855 -0.4019  1.1954  0.1251
 8640TIP3    H247336   5.277   4.490  16.980 -0.0083 -0.0440 -0.7473
 8641TIP3   OH247337   5.000   6.720  16.107 -0.0758  1.0236  0.0835
 8641TIP3    H147338   5.036   6.661  16.173 -0.3629 -2.2971 -2.4103
 8641TIP3    H247339   4.916   6.748  16.143  0.7857  1.2574  2.0272
 8642TIP3   OH247340   3.595   2.728   2.156 -0.1570  0.8072  0.8065
 8642TIP3    H147341   3.553   2.774   2.229  0.2167  1.1907  0.7825
 8642TIP3    H247342   3.574   2.781   2.079 -0.2377  0.6040  0.6871
 8643TIP3   OH247343   6.673   4.692   3.781 -0.3506 -0.6292 -0.1545
 8643TIP3    H147344   6.579   4.710   3.790 -0.3678 -0.8626  0.1932
 8643TIP3    H247345   6.676   4.607   3.737 -0.2960 -0.4452 -0.5044
 8644TIP3   OH247346   5.947   2.457   0.844  0.0947  0.0345 -0.3233
 8644TIP3    H147347   5.909   2.472   0.930  0.5076 -0.6953 -0.0022
 8644TIP3    H247348   5.910   2.373   0.816 -1.0410  0.8783 -1.4282
 8645TIP3   OH247349   1.338   4.369  11.568 -0.2572 -0.8506  0.0742
 8645TIP3    H147350   1.379   4.380  11.482 -0.6517  0.2408  0.0108
 8645TIP3    H247351   1.371   4.442  11.620 -2.1593  0.1311 -0.0130
 8646TIP3   OH247352   5.676   2.188  16.350  0.0582  0.2165 -0.4543
 8646TIP3    H147353   5.712   2.155  16.432 -0.3938  2.4241  0.7137
 8646TIP3    H247354   5.752   2.207  16.296  0.4853  0.8599  0.3563
 8647TIP3   OH247355   4.395   1.372   3.681 -0.1481 -0.2024  0.1826
 8647TIP3    H147356   4.357   1.449   3.723  2.1028  0.6980  0.6866
 8647TIP3    H247357   4.386   1.302   3.746 -1.5678 -0.2282 -0.0098
 8648TIP3   OH247358   6.567   0.941   5.425 -0.1243  0.7986  0.1053
 8648TIP3    H147359   6.567   0.937   5.330  0.8509  1.0003  0.0850
 8648TIP3    H247360   6.481   0.975   5.448 -0.1880  1.2209 -0.7212
 8649TIP3   OH247361   4.171   6.116   3.674 -1.1269  0.6233  0.2963
 8649TIP3    H147362   4.086   6.095   3.711 -2.7117  3.1024 -1.5744
 8649TIP3    H247363   4.155   6.121   3.579  1.8127 -1.6242 -0.4722
 8650TIP3   OH247364   2.716   4.765   3.790 -0.0805  0.3241  0.0583
 8650TIP3    H147365   2.731   4.817   3.711  1.2167 -0.8592 -0.5191
 8650TIP3    H247366   2.781   4.695   3.785  0.5186  0.6231  2.5617
 8651TIP3   OH247367   2.124   2.307  11.035  0.1408  0.0297 -0.3109
 8651TIP3    H147368   2.041   2.259  11.040  0.0257  0.2733  0.2909
 8651TIP3    H247369   2.165   2.277  10.955 -0.2394 -0.5797 -0.2816
 8652TIP3   OH247370   3.386   0.156  11.918 -0.2257  0.0409  0.4407
 8652TIP3    H147371   3.301   0.199  11.910 -0.0736  0.2515 -0.0441
 8652TIP3    H247372   3.432   0.206  11.985 -0.8188 -0.6301  1.3837
 8653TIP3   OH247373   4.879   3.613   5.454  0.6854 -0.0553  0.7341
 8653TIP3    H147374   4.897   3.666   5.376  0.1171 -0.7258  0.1297
 8653TIP3    H247375   4.784   3.602   5.454  0.6711 -0.0002  1.5749
 8654TIP3   OH247376   2.538   5.779   1.151 -0.2316  0.0309  0.8723
 8654TIP3    H147377   2.588   5.719   1.096 -0.1249  0.1973  0.7890
 8654TIP3    H247378   2.462   5.728   1.180 -0.2829 -0.0575  0.5803
 8655TIP3   OH247379   1.374   3.817   4.140 -0.4215  0.4599 -0.2242
 8655TIP3    H147380   1.293   3.842   4.182 -0.7977  0.5104 -0.9652
 8655TIP3    H247381   1.349   3.793   4.050  0.3804  0.5379 -0.4824
 8656TIP3   OH247382   3.846   1.206   4.693  0.0322  0.0884  0.6907
 8656TIP3    H147383   3.856   1.275   4.627 -0.1240 -0.2101  0.3549
 8656TIP3    H247384   3.895   1.239   4.768  1.0735 -0.0128  0.0809
 8657TIP3   OH247385   2.208   0.015   6.514  0.7235 -0.1146 -0.7064
 8657TIP3    H147386   2.262   0.074   6.566 -1.2286 -0.3229  1.7402
 8657TIP3    H247387   2.183  -0.055   6.575  0.3556 -1.7605 -2.6385
 8658TIP3   OH247388   2.003   5.895   6.875 -0.0303  0.0145 -0.1392
 8658TIP3    H147389   2.086   5.942   6.881  0.6057 -1.1451  0.7516
 8658TIP3    H247390   1.945   5.938   6.938 -0.0920  0.7687 -0.6979
 8659TIP3   OH247391   1.455   0.589  17.013 -0.3154 -0.2045  0.0641
 8659TIP3    H147392   1.445   0.546  16.928  1.8668  1.0880 -0.9362
 8659TIP3    H247393   1.533   0.548  17.052  1.2317  2.0020 -0.4929
 8660TIP3   OH247394   2.115   2.969  14.076 -0.2083  0.2140 -0.0679
 8660TIP3    H147395   2.060   2.922  14.138  0.5340 -0.3202  0.1937
 8660TIP3    H247396   2.121   2.911  14.000  2.3499 -1.1165  1.0179
 8661TIP3   OH247397   0.247   1.022   3.590 -0.3504 -0.4127 -0.1251
 8661TIP3    H147398   0.209   1.053   3.673 -0.9279  0.1015 -0.5739
 8661TIP3    H247399   0.203   1.073   3.523  0.5485 -0.4061 -0.7240
 8662TIP3   OH247400   2.855   0.147  16.083 -0.3443 -0.0466  0.1342
 8662TIP3    H147401   2.821   0.185  16.002 -1.5432  0.3159  0.7817
 8662TIP3    H247402   2.909   0.073  16.054  0.2682  0.8305 -1.0405
 8663TIP3   OH247403   6.362   5.417  16.494 -0.4189  0.4851 -0.9134
 8663TIP3    H147404   6.288   5.444  16.548  0.8200  2.3130 -0.0016
 8663TIP3    H247405   6.430   5.393  16.557  0.4949  1.0217 -1.6710
 8664TIP3   OH247406   2.318   1.727  14.313  0.0322 -0.2539  0.3168
 8664TIP3    H147407   2.253   1.738  14.383  0.6407  0.3368  0.7989
 8664TIP3    H247408   2.380   1.662  14.348  1.5481  1.6175  1.2485
 8665TIP3   OH247409   4.476   6.070   2.430  0.1251  0.1242 -1.1940
 8665TIP3    H147410   4.393   6.052   2.385 -0.3574  0.2839 -0.3880
 8665TIP3    H247411   4.478   6.165   2.439 -1.6163 -0.0355  2.4055
 8666TIP3   OH247412   0.400   0.532  14.939 -0.1547  0.0792  0.1794
 8666TIP3    H147413   0.493   0.519  14.922 -0.0032  0.8682  0.3614
 8666TIP3    H247414   0.397   0.574  15.025 -0.7483 -1.0099  0.7121
 8667TIP3   OH247415   5.174   2.904   1.412 -0.1082 -0.1603  0.1019
 8667TIP3    H147416   5.154   2.998   1.418 -0.7156 -0.1941 -1.1445
 8667TIP3    H247417   5.095   2.861   1.443 -0.1993 -0.2705 -0.2868
 8668TIP3   OH247418   4.107   4.466  11.649  0.4803  0.1011  0.8615
 8668TIP3    H147419   4.115   4.526  11.723  0.3037 -0.2012  1.1296
 8668TIP3    H247420   4.164   4.392  11.671  2.1090  0.9773 -0.2972
 8669TIP3   OH247421   3.772   2.650   1.511  0.2840 -0.0686  0.2507
 8669TIP3    H147422   3.745   2.559   1.505 -1.2962  0.3486  0.6404
 8669TIP3    H247423   3.838   2.650   1.581 -0.1129 -0.8235  0.6385
 8670TIP3   OH247424   3.296   0.883   0.296 -0.1228  0.4879  0.3016
 8670TIP3    H147425   3.235   0.937   0.246  0.4840  0.6344 -0.2861
 8670TIP3    H247426   3.252   0.869   0.380 -0.9536  0.6031 -0.1130
 8671TIP3   OH247427   1.794   4.980  15.766 -0.0229  0.0775  0.8646
 8671TIP3    H147428   1.832   4.892  15.762 -0.3581 -0.2667  3.4233
 8671TIP3    H247429   1.870   5.039  15.765  0.3256 -0.3598  1.1635
 8672TIP3   OH247430   6.148   1.735  16.631  1.0227 -0.6078 -0.3056
 8672TIP3    H147431   6.065   1.744  16.678  1.3282  0.1459  0.1028
 8672TIP3    H247432   6.147   1.805  16.567  1.0890 -0.9665 -0.7025
 8673TIP3   OH247433   4.521   0.563   0.533 -0.5922  0.1104  0.1122
 8673TIP3    H147434   4.445   0.599   0.577 -1.0579  0.3346 -0.8436
 8673TIP3    H247435   4.488   0.530   0.449 -0.1044 -2.0982  0.7027
 8674TIP3   OH247436   4.777   0.529  16.709 -0.1085 -0.1870  0.6006
 8674TIP3    H147437   4.697   0.478  16.693  0.6994 -1.0561 -0.9798
 8674TIP3    H247438   4.755   0.618  16.681  0.0199 -0.8368 -1.8000
 8675TIP3   OH247439   0.186   6.294  11.266 -0.4116 -0.1052 -0.0848
 8675TIP3    H147440   0.097   6.291  11.231 -0.1386  0.1124 -0.8131
 8675TIP3    H247441   0.223   6.208  11.246  0.0537  0.3341 -1.1875
 8676TIP3   OH247442   4.853   5.428   4.232  0.6499  0.8129  0.4191
 8676TIP3    H147443   4.811   5.392   4.310  1.2116  0.6380  0.6422
 8676TIP3    H247444   4.793   5.497   4.203 -0.1081  0.1386  0.3601
 8677TIP3   OH247445   2.345   0.343   3.566  0.6449  0.1889  0.4203
 8677TIP3    H147446   2.315   0.262   3.607  1.6084 -1.1875 -1.4704
 8677TIP3    H247447   2.267   0.399   3.565  0.0591 -0.5394  2.0855
 8678TIP3   OH247448   6.623   6.118  13.680  0.7339  0.3578  0.6866
 8678TIP3    H147449   6.710   6.079  13.666  2.0580  2.8659  1.3247
 8678TIP3    H247450   6.626   6.151  13.770 -1.0826  0.1039  0.8809
 8679TIP3   OH247451   2.505   5.415  16.172  0.1140  0.4666  0.0637
 8679TIP3    H147452   2.448   5.490  16.189 -0.6099 -0.1683  0.4810
 8679TIP3    H247453   2.449   5.353  16.125  0.3363 -0.3310  0.8367
 8680TIP3   OH247454   2.247   2.539  14.064  0.4539 -0.0380 -0.2848
 8680TIP3    H147455   2.164   2.498  14.089 -0.3746  1.6170 -0.1955
 8680TIP3    H247456   2.276   2.489  13.987  0.6018 -2.1248  1.0650
 8681TIP3   OH247457   1.651   1.267  16.444 -0.9471  0.2486  0.4762
 8681TIP3    H147458   1.665   1.361  16.435 -1.6186  0.2152 -1.2709
 8681TIP3    H247459   1.653   1.233  16.355 -0.4400 -1.4541  1.0856
 8682TIP3   OH247460   3.066   5.002   1.238 -0.0228 -0.1278 -0.6737
 8682TIP3    H147461   3.094   5.050   1.160 -1.5446  0.2400 -1.0373
 8682TIP3    H247462   3.055   5.070   1.305  1.3115 -0.4461 -0.0965
 8683TIP3   OH247463   1.056   1.287  11.228 -0.0567  0.1474 -0.1668
 8683TIP3    H147464   1.016   1.206  11.196  0.3219 -0.2895  0.4397
 8683TIP3    H247465   1.134   1.298  11.172  0.1634 -0.1800  0.0693
 8684TIP3   OH247466   1.197   3.024   5.750  0.2585 -0.0107  0.0194
 8684TIP3    H147467   1.265   3.040   5.685 -2.2555 -1.5653 -3.2438
 8684TIP3    H247468   1.167   3.111   5.775  0.8121  0.6378 -1.4630
 8685TIP3   OH247469   4.873   0.891  16.793 -0.4368 -0.2724  0.7695
 8685TIP3    H147470   4.818   0.965  16.820  0.9761  0.5858  1.4245
 8685TIP3    H247471   4.830   0.857  16.715 -1.6574  0.6304  1.0124
 8686TIP3   OH247472   4.409   5.317  12.236  0.2797 -0.5539  0.9397
 8686TIP3    H147473   4.359   5.374  12.178 -1.2778 -2.0447  0.7571
 8686TIP3    H247474   4.441   5.247  12.180  2.0762  0.0124  1.1854
 8687TIP3   OH247475   3.886   1.576   5.072  0.0708  0.1878  0.0831
 8687TIP3    H147476   3.974   1.585   5.107  0.1451 -2.3324  0.7468
 8687TIP3    H247477   3.898   1.569   4.977  0.5816  0.0132  0.1588
 8688TIP3   OH247478   3.727   4.538  12.690  0.2392 -0.5240  0.1259
 8688TIP3    H147479   3.662   4.473  12.665 -0.1737 -0.6371  1.3962
 8688TIP3    H247480   3.679   4.599  12.746  0.5293  1.0884 -1.3115
 8689TIP3   OH247481   5.506   4.331  17.301  0.5906  0.6307 -0.1939
 8689TIP3    H147482   5.579   4.308  17.245 -0.6210  0.6105 -1.8400
 8689TIP3    H247483   5.543   4.336  17.389  2.7083  1.3592 -1.0708
 8690TIP3   OH247484   0.990   2.660  11.200 -0.2861  0.0963  0.0024
 8690TIP3    H147485   0.953   2.590  11.147 -0.3399 -0.6598  1.0205
 8690TIP3    H247486   1.009   2.620  11.284  0.6587  1.0512  0.2725
 8691TIP3   OH247487   3.927   2.144   5.356 -0.0970  0.4337  0.1744
 8691TIP3    H147488   4.018   2.116   5.361 -0.1363  0.2992  0.1245
 8691TIP3    H247489   3.888   2.090   5.288 -0.5273 -0.3774  1.0403
 8692TIP3   OH247490   3.384   2.211   5.152 -0.4245 -0.2035 -0.1667
 8692TIP3    H147491   3.474   2.242   5.145 -0.5015  1.3127  3.2735
 8692TIP3    H247492   3.332   2.276   5.106  0.1061 -0.1203 -0.6520
 8693TIP3   OH247493   4.017   1.114  12.986 -0.0377 -0.5625 -0.0078
 8693TIP3    H147494   4.023   1.128  12.892 -0.2925  2.0678  0.3052
 8693TIP3    H247495   3.955   1.041  12.995 -0.2495 -0.6620 -1.8453
 8694TIP3   OH247496   4.839   3.985   2.626 -0.4638  0.1333 -0.3859
 8694TIP3    H147497   4.922   3.994   2.673  0.9226 -0.5469 -2.5575
 8694TIP3    H247498   4.800   3.904   2.661  0.0999  0.1050  0.1844
 8695TIP3   OH247499   6.598   0.086  12.496  0.1933  0.3823  0.0082
 8695TIP3    H147500   6.641   0.041  12.423 -1.0982 -1.0308  0.0688
 8695TIP3    H247501   6.603   0.179  12.474  0.0351  0.0008 -1.7650
 8696TIP3   OH247502   6.072   5.144   1.630  0.1975  0.3423  0.7860
 8696TIP3    H147503   6.091   5.223   1.579 -2.1865  0.8955  0.6571
 8696TIP3    H247504   6.054   5.077   1.564  0.2900  0.2063  0.8982
 8697TIP3   OH247505   3.236   2.566   4.458  0.2802  0.6978 -0.4256
 8697TIP3    H147506   3.195   2.595   4.540  0.5798  0.0191 -0.0335
 8697TIP3    H247507   3.219   2.638   4.397 -1.8350  0.3055 -0.3924
 8698TIP3   OH247508   5.437   6.664  14.904  0.1222 -0.2627  0.1385
 8698TIP3    H147509   5.437   6.710  14.820 -0.7308 -1.4148 -0.5242
 8698TIP3    H247510   5.510   6.701  14.952 -0.9068  2.2838 -0.0822
 8699TIP3   OH247511   1.967   2.514   1.247 -0.6732  0.3190  0.5705
 8699TIP3    H147512   1.929   2.558   1.171 -0.8403 -1.0279 -0.1756
 8699TIP3    H247513   1.926   2.556   1.322 -1.9910  0.3932 -0.1503
 8700TIP3   OH247514   4.536   2.979  15.038  0.4442  0.7007  0.0939
 8700TIP3    H147515   4.545   3.071  15.014  1.0797  0.2143 -1.7612
 8700TIP3    H247516   4.555   2.977  15.132  0.6383  2.4219  0.1342
 8701TIP3   OH247517   5.498   0.058  13.446  0.9652  0.2641 -0.4775
 8701TIP3    H147518   5.574   0.001  13.456 -0.3504 -1.8590 -1.7162
 8701TIP3    H247519   5.426  -0.002  13.425 -1.1029  2.1452  0.7422
 8702TIP3   OH247520   4.983   3.444  15.824 -0.1046 -0.4909 -0.2426
 8702TIP3    H147521   5.005   3.399  15.906 -0.0148  1.8098  1.0833
 8702TIP3    H247522   5.068   3.472  15.789 -0.2750  0.3676  0.0108
 8703TIP3   OH247523   6.400   1.537   0.516 -0.5614 -0.1438  0.1276
 8703TIP3    H147524   6.366   1.507   0.600 -1.5186  0.0143 -0.1976
 8703TIP3    H247525   6.424   1.456   0.470  0.2988 -0.2162  0.6684
 8704TIP3   OH247526   2.640   5.003   1.678 -0.1550 -0.9764 -0.4442
 8704TIP3    H147527   2.680   4.997   1.765 -0.4368 -0.4754 -0.2746
 8704TIP3    H247528   2.572   4.936   1.679 -2.0481  0.8265  0.7640
 8705TIP3   OH247529   2.225   6.144  13.232 -0.0474  0.2128  0.0540
 8705TIP3    H147530   2.185   6.230  13.247  1.5505  0.9318  0.3734
 8705TIP3    H247531   2.295   6.139  13.297  0.4535 -0.9540 -0.5587
 8706TIP3   OH247532   4.425   0.383  11.812  0.6496  0.0911  0.1306
 8706TIP3    H147533   4.506   0.390  11.760 -0.1635 -0.8598 -1.3405
 8706TIP3    H247534   4.422   0.291  11.838 -0.8679 -0.3464 -1.4332
 8707TIP3   OH247535   1.670   0.675  13.791  0.6130  0.4394  1.0727
 8707TIP3    H147536   1.731   0.628  13.734 -0.7030  0.1119 -0.1327
 8707TIP3    H247537   1.588   0.625  13.785  0.3795  0.5124  3.1367
 8708TIP3   OH247538   1.943   0.612   5.283  0.0922  0.0048  0.4904
 8708TIP3    H147539   1.945   0.637   5.375 -0.5293  1.5561  0.1140
 8708TIP3    H247540   2.009   0.668   5.241 -0.2714 -0.0301 -0.1498
 8709TIP3   OH247541   1.398   5.033   4.845 -0.7413 -0.1791 -0.3655
 8709TIP3    H147542   1.468   5.079   4.799 -1.2571  0.3545 -0.6362
 8709TIP3    H247543   1.319   5.081   4.821 -1.0983 -0.2632  0.5999
 8710TIP3   OH247544   5.320   4.058  15.350 -0.3119  0.3644 -0.0555
 8710TIP3    H147545   5.322   4.019  15.437  1.2379  0.5473  0.0235
 8710TIP3    H247546   5.247   4.015  15.306 -0.2813 -0.7072  0.8948
 8711TIP3   OH247547   0.046   0.181   4.373 -0.1536 -0.1660  0.0886
 8711TIP3    H147548  -0.021   0.190   4.305  0.5550  0.9660 -0.4774
 8711TIP3    H247549   0.099   0.107   4.344 -1.8790 -1.9775  1.2198
 8712TIP3   OH247550   3.048   5.843  15.926  0.2016 -0.6179 -0.7305
 8712TIP3    H147551   3.003   5.795  15.995 -0.0650 -1.9674 -1.7855
 8712TIP3    H247552   3.111   5.899  15.972  1.0226 -2.5030  0.5792
 8713TIP3   OH247553   1.153   3.611   0.546 -0.1596 -0.2947  0.1987
 8713TIP3    H147554   1.206   3.680   0.507  0.5560 -0.7266  0.3843
 8713TIP3    H247555   1.128   3.645   0.632 -1.8551  0.7170 -0.6418
 8714TIP3   OH247556   1.724   6.549   5.516 -0.1621 -0.3645 -0.0235
 8714TIP3    H147557   1.735   6.643   5.530 -0.9915 -0.4582  1.4891
 8714TIP3    H247558   1.813   6.517   5.501  0.2026  0.5743  0.0331
 8715TIP3   OH247559   2.161   0.318  14.291  0.1694  0.0720 -0.1068
 8715TIP3    H147560   2.187   0.288  14.204  0.9836 -1.8274  0.7493
 8715TIP3    H247561   2.084   0.373  14.275  0.7082  0.3216 -2.0728
 8716TIP3   OH247562   2.336   2.327  14.992 -0.1421  0.3438  0.6057
 8716TIP3    H147563   2.327   2.256  15.056  1.2119  2.5469  3.4446
 8716TIP3    H247564   2.264   2.387  15.013 -0.4902  0.4962 -0.8973
 8717TIP3   OH247565   3.351   4.915  16.704 -0.7782 -0.4770 -0.2685
 8717TIP3    H147566   3.357   4.861  16.782  3.8528  0.8384  0.6332
 8717TIP3    H247567   3.311   4.997  16.734 -1.7324 -1.0168 -0.0436
 8718TIP3   OH247568   1.183   3.243  13.354  0.1252 -0.2151  0.6608
 8718TIP3    H147569   1.133   3.322  13.334 -0.8194 -0.5457  1.6118
 8718TIP3    H247570   1.130   3.172  13.317  1.1559 -0.4074 -0.5288
 8719TIP3   OH247571   0.869   3.401  16.369 -0.0934 -0.1475 -0.2587
 8719TIP3    H147572   0.914   3.406  16.285 -0.0996 -0.2342 -0.2666
 8719TIP3    H247573   0.930   3.441  16.431  0.3203 -0.9560 -0.1304
 8720TIP3   OH247574   2.102   4.066  11.398 -0.2364 -0.2604 -0.5880
 8720TIP3    H147575   2.143   4.013  11.466 -0.9571 -1.7878 -1.2931
 8720TIP3    H247576   2.076   4.147  11.442 -0.3839 -1.0737  0.8594
 8721TIP3   OH247577   0.361   5.743   0.662  0.4651 -0.6364  0.4056
 8721TIP3    H147578   0.340   5.704   0.577 -0.6886 -1.1966  0.9213
 8721TIP3    H247579   0.275   5.764   0.701  0.9875  0.0784  1.2170
 8722TIP3   OH247580   1.853   0.857  13.440 -0.6403  0.6840  0.0761
 8722TIP3    H147581   1.863   0.831  13.349  1.7299 -0.9778  0.7207
 8722TIP3    H247582   1.759   0.851  13.456 -1.0152  0.1674 -2.0106
 8723TIP3   OH247583   1.898   5.539   5.855  0.9460 -0.3264 -0.1277
 8723TIP3    H147584   1.887   5.594   5.778  0.1657 -0.7992 -0.3645
 8723TIP3    H247585   1.992   5.544   5.875  0.9760  0.6590 -0.4501
 8724TIP3   OH247586   4.315   5.292   2.325  0.2303 -0.2795  0.2184
 8724TIP3    H147587   4.230   5.331   2.303 -0.0499 -0.0109  1.6663
 8724TIP3    H247588   4.379   5.350   2.284 -0.2464  0.4401  0.4707
 8725TIP3   OH247589   2.114   4.102   1.096  0.1005 -0.0887 -0.3400
 8725TIP3    H147590   2.202   4.093   1.132  0.0393  1.6389  0.3416
 8725TIP3    H247591   2.064   4.033   1.138  0.7188  0.0651  0.6771
 8726TIP3   OH247592   1.321   0.947  14.288 -0.2303 -0.1434  0.1828
 8726TIP3    H147593   1.381   0.886  14.247 -0.1899 -0.7741  1.1559
 8726TIP3    H247594   1.246   0.951  14.228 -0.1250 -0.9472 -0.0147
 8727TIP3   OH247595   2.575   4.426  11.326 -0.2226  0.9610  0.5824
 8727TIP3    H147596   2.666   4.396  11.319  0.2727  2.6780 -0.9520
 8727TIP3    H247597   2.579   4.520  11.310 -2.5502  0.7286 -2.0960
 8728TIP3   OH247598   1.839   4.401  10.774  0.3092 -0.3168  0.0094
 8728TIP3    H147599   1.931   4.417  10.793  0.6167 -0.9014 -0.9126
 8728TIP3    H247600   1.821   4.314  10.811  0.2275 -0.3604 -0.1309
 8729TIP3   OH247601   4.242   3.736  11.498 -0.0198 -0.0066  0.0916
 8729TIP3    H147602   4.174   3.803  11.497 -0.3317 -0.3286 -0.7590
 8729TIP3    H247603   4.318   3.777  11.458 -0.1633 -0.1060 -0.2859
 8730TIP3   OH247604   1.912   6.332  16.423 -0.2425  0.2368  0.5375
 8730TIP3    H147605   1.966   6.304  16.349 -0.3526  0.6572  0.2932
 8730TIP3    H247606   1.938   6.423  16.438  2.2512 -0.7561  3.2004
 8731TIP3   OH247607   6.690   2.501  11.605 -0.1615 -0.3654 -0.2837
 8731TIP3    H147608   6.681   2.446  11.682  1.5531 -3.1243 -1.8982
 8731TIP3    H247609   6.635   2.577  11.623  1.2189 -0.1689  4.2041
 8732TIP3   OH247610   1.486   0.937   5.821  0.2088 -0.0115  0.1559
 8732TIP3    H147611   1.538   0.863   5.853 -1.1855 -0.8670  0.5325
 8732TIP3    H247612   1.496   0.934   5.726  0.5349 -0.4054  0.1983
 8733TIP3   OH247613   5.158   2.895  11.784  0.2331  0.0290 -0.3003
 8733TIP3    H147614   5.192   2.900  11.873  0.2832 -2.4312 -0.1277
 8733TIP3    H247615   5.235   2.904  11.728  0.8641 -2.5762  0.0370
 8734TIP3   OH247616   0.784   4.586   5.502 -0.3629  0.3123  0.0448
 8734TIP3    H147617   0.793   4.564   5.594  0.0676 -0.3070 -0.1394
 8734TIP3    H247618   0.741   4.672   5.502  1.3832  1.2250  0.8556
 8735TIP3   OH247619   3.896   1.168   5.553  0.2168 -0.3217  0.2410
 8735TIP3    H147620   3.881   1.252   5.596  0.6703 -0.6005  0.9567
 8735TIP3    H247621   3.813   1.121   5.562  0.3843 -0.4783  1.0551
 8736TIP3   OH247622   0.365   5.004   2.034  0.1672 -0.1851  0.0160
 8736TIP3    H147623   0.400   5.055   1.960  0.3193 -1.8411 -1.1068
 8736TIP3    H247624   0.314   5.067   2.084  0.4862  1.1197 -1.2284
 8737TIP3   OH247625   0.931   4.834   3.571 -0.0832  0.0663 -0.7330
 8737TIP3    H147626   0.851   4.801   3.611 -0.2514 -0.4177 -1.4530
 8737TIP3    H247627   0.989   4.758   3.568  0.0284  0.1635 -1.1456
 8738TIP3   OH247628   1.558   0.568   0.113  0.5757 -0.0201  0.5354
 8738TIP3    H147629   1.488   0.601   0.169  1.1716  0.3481  1.0714
 8738TIP3    H247630   1.520   0.491   0.071 -0.0493 -0.0030  1.0531
 8739TIP3   OH247631   3.819   6.580   0.288  0.3278  0.1798 -0.3168
 8739TIP3    H147632   3.763   6.555   0.215 -2.2813 -1.6176  2.0965
 8739TIP3    H247633   3.879   6.506   0.299  1.9363  1.2066 -1.5914
 8740TIP3   OH247634   5.396   3.347   3.924  0.1107  0.4715  0.8170
 8740TIP3    H147635   5.445   3.391   3.994 -0.8719  1.9956  0.5929
 8740TIP3    H247636   5.458   3.339   3.852  0.8766 -0.3349  1.5423
 8741TIP3   OH247637   2.162   1.072  11.880 -0.3792  0.3654  0.3624
 8741TIP3    H147638   2.081   1.061  11.830 -0.8044  0.4682  1.0213
 8741TIP3    H247639   2.227   1.018  11.834 -0.3729  1.6360 -1.1775
 8742TIP3   OH247640   6.032   1.230   3.652  0.1552  0.4355 -0.0607
 8742TIP3    H147641   5.991   1.296   3.708 -0.6967 -0.1867  0.0737
 8742TIP3    H247642   6.066   1.280   3.578  2.2208  1.4209  1.4647
 8743TIP3   OH247643   1.393   0.260   0.311 -0.4586 -0.6286 -0.2746
 8743TIP3    H147644   1.340   0.309   0.248  0.5284 -0.9154 -1.3820
 8743TIP3    H247645   1.329   0.219   0.370 -1.4163 -0.2652 -1.0288
 8744TIP3   OH247646   0.933   3.293   4.733 -0.2215 -0.1613 -0.4794
 8744TIP3    H147647   0.940   3.212   4.682  1.3367 -1.4011  1.5251
 8744TIP3    H247648   1.023   3.327   4.736 -0.7758  1.4221 -0.8967
 8745TIP3   OH247649   4.690   5.083   5.688 -0.2936 -0.1190  0.2268
 8745TIP3    H147650   4.651   5.147   5.629  0.5332  1.5010  1.3911
 8745TIP3    H247651   4.646   5.097   5.772 -0.1518 -1.1404  0.4881
 8746TIP3   OH247652   5.987   5.040   5.584  0.2371  0.5360  0.1448
 8746TIP3    H147653   6.076   5.007   5.592 -0.1220 -0.4028  0.3667
 8746TIP3    H247654   5.957   5.050   5.674 -0.3679 -0.5321  0.0761
 8747TIP3   OH247655   1.364   3.723   2.122  0.0489 -0.1090 -0.1903
 8747TIP3    H147656   1.274   3.692   2.110  0.1010 -0.1534 -0.4747
 8747TIP3    H247657   1.417   3.667   2.065  0.3140 -0.3633  0.2943
 8748TIP3   OH247658   6.503   1.886  12.568 -0.2650 -0.8689  0.1658
 8748TIP3    H147659   6.466   1.850  12.487 -2.6342 -0.7575  1.1168
 8748TIP3    H247660   6.551   1.963  12.539 -1.3015 -0.6710 -1.1549
 8749TIP3   OH247661   4.358   1.258  11.538 -0.1339 -0.0785 -0.4047
 8749TIP3    H147662   4.279   1.206  11.554  0.3210 -0.4232  0.8573
 8749TIP3    H247663   4.336   1.345  11.572 -0.5166  0.2735 -1.5223
 8750TIP3   OH247664   4.306   3.741  15.320  0.8255 -0.4908 -0.1555
 8750TIP3    H147665   4.296   3.706  15.231  3.3067  0.1813 -0.7571
 8750TIP3    H247666   4.343   3.668  15.370  1.7942 -0.1032 -0.3026
 8751TIP3   OH247667   2.187   6.570  11.231  0.0401  0.3556  0.0035
 8751TIP3    H147668   2.212   6.632  11.162 -0.1799 -0.1653 -0.5584
 8751TIP3    H247669   2.122   6.617  11.283 -1.9345 -0.1679 -1.8268
 8752TIP3   OH247670   4.126   5.208  15.159 -0.6505  0.0869 -0.1407
 8752TIP3    H147671   4.143   5.207  15.065  1.1395 -1.0578  0.1633
 8752TIP3    H247672   4.117   5.116  15.183 -0.6308  0.3408  0.8874
 8753TIP3   OH247673   0.273   3.447  12.609 -0.0536 -0.3299  0.1643
 8753TIP3    H147674   0.270   3.353  12.625  0.1995 -0.6934 -1.6566
 8753TIP3    H247675   0.200   3.483  12.659 -0.5338 -1.5692  0.3828
 8754TIP3   OH247676   4.640   2.804  11.807  0.0884 -0.7432  0.0157
 8754TIP3    H147677   4.715   2.769  11.856  0.7019 -2.2140 -1.8539
 8754TIP3    H247678   4.572   2.738  11.817 -0.2301 -0.4304 -0.0550
 8755TIP3   OH247679   3.460   1.085   2.184 -0.3850  0.3270  0.1774
 8755TIP3    H147680   3.474   1.157   2.123  0.8792  1.1935  1.4395
 8755TIP3    H247681   3.459   1.007   2.128  0.9277  1.0722 -0.9504
 8756TIP3   OH247682   6.121   1.699  13.232  0.1126  0.2140  0.4509
 8756TIP3    H147683   6.074   1.644  13.294  0.1622 -2.5401 -1.7419
 8756TIP3    H247684   6.052   1.747  13.186 -0.3306 -0.9300 -0.1447
 8757TIP3   OH247685   3.199   5.664  12.165  0.0811 -0.0360  0.0940
 8757TIP3    H147686   3.132   5.710  12.115 -1.0009 -1.1789  0.4434
 8757TIP3    H247687   3.151   5.620  12.235  1.1258 -1.2803  0.0660
 8758TIP3   OH247688   3.209   0.040  13.010  0.5710  0.1238  0.3481
 8758TIP3    H147689   3.190  -0.036  13.063  0.9941  0.4010  0.9099
 8758TIP3    H247690   3.130   0.054  12.957  0.3378 -0.4422  0.5457
 8759TIP3   OH247691   0.049   3.629  14.634 -0.1374  0.2942  0.8695
 8759TIP3    H147692   0.094   3.692  14.689  0.2135  2.9253 -2.1443
 8759TIP3    H247693   0.118   3.570  14.603  1.0538  2.9046 -1.8898
 8760TIP3   OH247694   4.930   5.173  11.951 -0.3460  0.4261  0.0147
 8760TIP3    H147695   5.019   5.174  11.986  0.2652 -0.7215 -1.4122
 8760TIP3    H247696   4.894   5.258  11.976  0.9049  0.6451  1.1997
 8761TIP3   OH247697   2.006   4.692  12.387  0.1992 -0.4559 -0.0896
 8761TIP3    H147698   1.925   4.679  12.337  1.1198  0.6829 -1.9769
 8761TIP3    H247699   2.066   4.627  12.352  0.8780  0.3960 -0.5309
 8762TIP3   OH247700   5.553   5.860  15.308 -0.0050  0.2239 -0.0032
 8762TIP3    H147701   5.514   5.811  15.380  0.0590  1.6965  1.0938
 8762TIP3    H247702   5.617   5.801  15.270 -0.7795 -0.9566  0.4745
 8763TIP3   OH247703   0.262   1.995  16.037  0.2307  0.2638  0.1347
 8763TIP3    H147704   0.296   1.941  16.108 -1.5369  0.9797  1.6257
 8763TIP3    H247705   0.327   1.988  15.968  1.1036 -1.9980  1.0862
 8764TIP3   OH247706   2.269   6.654  14.749 -0.0925 -0.6398 -0.0341
 8764TIP3    H147707   2.228   6.738  14.767  3.0957  1.0628 -0.1313
 8764TIP3    H247708   2.297   6.659  14.657  1.4341 -1.1689  0.3694
 8765TIP3   OH247709   2.533   1.764   0.538 -0.6578  0.0783  0.2110
 8765TIP3    H147710   2.610   1.774   0.482 -0.4084  0.7575  0.6609
 8765TIP3    H247711   2.472   1.712   0.486 -0.1847  0.1599 -0.4384
 8766TIP3   OH247712   0.523   0.145  15.997  0.1857  0.0119  0.2018
 8766TIP3    H147713   0.545   0.238  15.998 -0.7777  0.2840 -1.4717
 8766TIP3    H247714   0.559   0.112  15.914  1.0204 -1.2661  1.0194
 8767TIP3   OH247715   0.913   2.974  16.601  0.0986  0.4755 -0.3678
 8767TIP3    H147716   0.845   3.029  16.561  1.3487  2.0571 -0.4131
 8767TIP3    H247717   0.948   2.923  16.528 -0.4195  0.3307 -0.5191
 8768TIP3   OH247718   0.713   3.148  12.577 -0.1538  0.2259  0.0385
 8768TIP3    H147719   0.627   3.112  12.602  0.3546 -0.5916  0.6558
 8768TIP3    H247720   0.718   3.231  12.624 -0.3147 -0.0671  0.5953
 8769TIP3   OH247721   4.115   5.614   0.352  0.0877  0.2092 -0.6963
 8769TIP3    H147722   4.199   5.568   0.348 -0.0753 -0.0231 -1.5406
 8769TIP3    H247723   4.049   5.545   0.340 -0.1615  0.6459 -1.9209
 8770TIP3   OH247724   2.302   5.417   1.346  0.0735 -0.0247 -0.0849
 8770TIP3    H147725   2.379   5.390   1.296  0.6997  0.7333  0.4472
 8770TIP3    H247726   2.331   5.416   1.437  0.2273  2.6715 -0.0484
 8771TIP3   OH247727   4.924   5.834  17.051  0.3592 -0.7563  0.1368
 8771TIP3    H147728   5.008   5.811  17.091  0.0772 -0.8958  0.6651
 8771TIP3    H247729   4.940   5.917  17.007  1.3551 -1.8185 -1.6525
 8772TIP3   OH247730   0.413   3.504  15.225  0.6288 -0.2726  0.3110
 8772TIP3    H147731   0.334   3.540  15.186  1.5385  0.8286 -0.5877
 8772TIP3    H247732   0.384   3.466  15.308 -0.8986 -0.2769 -0.2048
 8773TIP3   OH247733   5.566   4.512   0.474 -0.1166  0.4927  0.0757
 8773TIP3    H147734   5.524   4.482   0.394  1.2212 -0.0173 -0.4493
 8773TIP3    H247735   5.493   4.529   0.534 -1.0790 -0.0968 -0.8969
 8774TIP3   OH247736   3.466   4.542  12.966 -0.0727 -0.0473  0.2226
 8774TIP3    H147737   3.464   4.458  12.920 -0.2776 -0.5249  1.0703
 8774TIP3    H247738   3.520   4.598  12.912  0.7364 -0.9759  0.0439
 8775TIP3   OH247739   0.722   2.428  14.468 -0.3158  0.6444 -0.1597
 8775TIP3    H147740   0.792   2.488  14.443 -0.3588  1.1355  0.8409
 8775TIP3    H247741   0.644   2.464  14.426  0.0061  0.1515 -1.1951
 8776TIP3   OH247742   3.019   4.133  11.452 -0.0729 -0.2010  0.0149
 8776TIP3    H147743   3.056   4.164  11.535  1.1620 -1.5464  0.0176
 8776TIP3    H247744   3.021   4.038  11.459  0.3631 -0.3519 -1.6835
 8777TIP3   OH247745   4.575   6.277  16.658 -0.2125  0.0489  0.9059
 8777TIP3    H147746   4.494   6.323  16.681 -1.4682 -0.7517 -1.6025
 8777TIP3    H247747   4.547   6.196  16.617  1.8870 -0.6429  0.7028
 8778TIP3   OH247748   4.220   1.095   0.565 -0.1647  0.4469  0.3610
 8778TIP3    H147749   4.144   1.115   0.620  0.0732  0.4466  0.6950
 8778TIP3    H247750   4.266   1.178   0.556  0.0898  0.3349  0.6148
 8779TIP3   OH247751   5.572   1.866  16.158  0.1763  0.0944  0.5727
 8779TIP3    H147752   5.663   1.897  16.163 -0.2329  1.9925 -1.6064
 8779TIP3    H247753   5.519   1.945  16.174 -0.9853 -0.1809 -1.5160
 8780TIP3   OH247754   5.824   1.268   5.250  0.5516  0.3599  0.1929
 8780TIP3    H147755   5.776   1.227   5.177 -0.9487  1.2603  0.6415
 8780TIP3    H247756   5.909   1.223   5.250  0.6057  0.3345 -2.1059
 8781TIP3   OH247757   4.796   4.702  15.258 -0.3090 -0.2873  0.1426
 8781TIP3    H147758   4.740   4.692  15.181  0.2837 -3.0309 -0.0376
 8781TIP3    H247759   4.882   4.724  15.222 -0.5122  0.6485  0.2026
 8782TIP3   OH247760   4.451   4.452  15.299  0.0853 -0.0719  0.4813
 8782TIP3    H147761   4.495   4.496  15.226 -1.3101  0.2081 -0.2301
 8782TIP3    H247762   4.504   4.374  15.316  0.2377 -0.3444 -1.0954
 8783TIP3   OH247763   5.646   2.327  13.178  0.8894  0.6168  0.0187
 8783TIP3    H147764   5.678   2.250  13.131  0.5291  0.3234  0.2462
 8783TIP3    H247765   5.646   2.301  13.270  2.3396  1.4533  0.2834
 8784TIP3   OH247766   0.419   2.415  13.015  0.5093 -0.3618 -0.1346
 8784TIP3    H147767   0.359   2.444  13.083 -2.3099 -1.2969 -2.0629
 8784TIP3    H247768   0.453   2.496  12.977  1.7637  0.1704  1.9699
 8785TIP3   OH247769   5.279   5.155   0.867  0.4062 -0.4918  0.3126
 8785TIP3    H147770   5.353   5.095   0.871  1.5793  0.8879 -0.0966
 8785TIP3    H247771   5.281   5.201   0.951 -0.8273 -1.3591  0.8598
 8786TIP3   OH247772   5.952   3.222  16.544 -0.2535  0.8146  0.0413
 8786TIP3    H147773   5.904   3.151  16.501 -0.3937  0.5277  0.6657
 8786TIP3    H247774   6.042   3.213  16.511 -0.1472  0.0158  0.5172
 8787TIP3   OH247775   1.199   2.936  16.479  0.0697 -0.0716 -0.1558
 8787TIP3    H147776   1.132   2.893  16.425  0.6671  1.1548 -1.9792
 8787TIP3    H247777   1.279   2.929  16.426  0.7439  0.9403  0.7018
 8788TIP3   OH247778   1.382   0.553   3.855  0.5494 -0.4514  0.5305
 8788TIP3    H147779   1.417   0.639   3.876 -0.6520  0.3515 -0.5883
 8788TIP3    H247780   1.287   0.564   3.857  0.3649 -1.2644 -1.3913
 8789TIP3   OH247781   2.008   2.151   6.101  0.2041 -0.7214 -0.1845
 8789TIP3    H147782   2.072   2.142   6.172 -1.9951  1.1021  2.2229
 8789TIP3    H247783   2.039   2.227   6.051  0.3102 -0.2802  0.5342
 8790TIP3   OH247784   1.964   4.688   2.651 -0.0608  0.6635 -0.4299
 8790TIP3    H147785   1.934   4.679   2.742 -0.3870  2.3061 -0.3519
 8790TIP3    H247786   2.033   4.623   2.643 -0.9231 -0.4337  0.5899
 8791TIP3   OH247787   0.074   0.739   4.788  1.0508  0.0078  0.4120
 8791TIP3    H147788   0.151   0.764   4.838  0.7464 -1.3213  1.5897
 8791TIP3    H247789   0.019   0.818   4.788  1.3693  0.2381  1.5688
 8792TIP3   OH247790   0.050   4.139  13.250  0.2445  0.1009  0.0875
 8792TIP3    H147791   0.144   4.129  13.239  0.2029  0.8121 -1.0799
 8792TIP3    H247792   0.012   4.096  13.174 -0.4839 -1.6870  1.3984
 8793TIP3   OH247793   1.319   4.530   0.784 -0.3537  1.0487  0.2637
 8793TIP3    H147794   1.379   4.601   0.807  0.1923 -0.1380  2.9069
 8793TIP3    H247795   1.233   4.563   0.809 -0.0314  0.6306  2.0385
 8794TIP3   OH247796   2.243   2.293  16.255  0.8881 -0.5948  0.0396
 8794TIP3    H147797   2.277   2.213  16.297 -0.3574 -1.3484 -0.3309
 8794TIP3    H247798   2.179   2.261  16.191  1.5403  0.6327 -1.2703
 8795TIP3   OH247799   3.889   2.625  12.288 -0.0646 -0.0289  0.0186
 8795TIP3    H147800   3.951   2.628  12.215  0.7344 -0.7793  0.6389
 8795TIP3    H247801   3.928   2.564  12.350 -1.0511  0.0900  0.7881
 8796TIP3   OH247802   6.247   2.143   3.964 -0.0849  0.2360 -0.2394
 8796TIP3    H147803   6.218   2.057   3.994 -2.0559  0.2998 -1.7694
 8796TIP3    H247804   6.224   2.146   3.871 -0.9397  2.7318 -0.0346
 8797TIP3   OH247805   4.420   1.786  11.641  0.4072  0.0180  0.1610
 8797TIP3    H147806   4.484   1.718  11.619 -1.1351 -1.5439  0.3658
 8797TIP3    H247807   4.337   1.754  11.606 -0.6821  1.0169  1.6869
 8798TIP3   OH247808   5.511   5.080  12.418  0.4997  0.3645 -0.4788
 8798TIP3    H147809   5.480   5.077  12.327  1.3816 -2.9791 -0.8051
 8798TIP3    H247810   5.599   5.119  12.411  0.2811  0.8000 -0.9303
 8799TIP3   OH247811   4.231   5.004  15.801  0.5420 -0.1956  0.2089
 8799TIP3    H147812   4.251   4.915  15.770 -1.3890 -1.0879  1.3155
 8799TIP3    H247813   4.135   5.008  15.800  0.5686  1.5302  1.1662
 8800TIP3   OH247814   0.150   0.885  11.701  0.4979 -0.3287  0.0605
 8800TIP3    H147815   0.181   0.796  11.715 -0.2781 -1.0641 -2.3806
 8800TIP3    H247816   0.084   0.899  11.768  0.3277 -1.7668  0.2175
 8801TIP3   OH247817   2.308   1.096  14.580 -0.1070 -0.2004 -0.1599
 8801TIP3    H147818   2.250   1.039  14.529  0.6768 -0.7400 -0.4694
 8801TIP3    H247819   2.396   1.074  14.549  0.3958 -0.5815  1.4596
 8802TIP3   OH247820   5.255   6.580   0.035  0.6403  0.1664  0.4901
 8802TIP3    H147821   5.238   6.528  -0.044 -2.4849 -1.1117  1.8191
 8802TIP3    H247822   5.258   6.670   0.003  0.9400 -0.4054 -1.2478
 8803TIP3   OH247823   4.748   1.072   0.575  0.2326  0.2939  0.0862
 8803TIP3    H147824   4.841   1.057   0.565  0.2288  0.7446 -0.6866
 8803TIP3    H247825   4.706   0.993   0.541  0.3049  0.5368 -0.5677
 8804TIP3   OH247826   3.054   1.925   1.457  0.6557 -0.0557  0.3629
 8804TIP3    H147827   3.141   1.885   1.463 -0.4055 -2.4358  1.3878
 8804TIP3    H247828   3.039   1.963   1.544  0.2317 -0.7066  0.5828
 8805TIP3   OH247829   1.326   4.335  15.942  0.1836 -0.8542  0.1706
 8805TIP3    H147830   1.307   4.384  15.861 -0.2373 -0.6903  0.3658
 8805TIP3    H247831   1.412   4.297  15.927  1.3019  1.3049  0.6391
 8806TIP3   OH247832   6.249   6.259  16.548  0.6830 -0.1794 -0.4437
 8806TIP3    H147833   6.291   6.220  16.471 -0.8044 -0.4883 -1.1309
 8806TIP3    H247834   6.195   6.329  16.513 -0.0297 -0.3353  0.3162
 8807TIP3   OH247835   2.693   5.128   3.894  0.2996 -0.5909 -0.3254
 8807TIP3    H147836   2.656   5.064   3.955  1.8389  0.7202  2.1320
 8807TIP3    H247837   2.750   5.076   3.837 -1.1480 -1.8527 -0.6677
 8808TIP3   OH247838   6.062   1.811  15.429 -0.1049 -0.5342 -0.4311
 8808TIP3    H147839   6.015   1.895  15.425  0.7038 -0.0038  0.7102
 8808TIP3    H247840   6.016   1.760  15.495  0.8891 -0.0014  0.7135
 8809TIP3   OH247841   1.764   3.402  13.472 -0.4599 -0.1531  0.3928
 8809TIP3    H147842   1.670   3.390  13.484 -0.4610  0.3475  0.8991
 8809TIP3    H247843   1.776   3.497  13.468  0.0767 -0.2049  0.7486
 8810TIP3   OH247844   4.645   0.928  12.603  0.1865 -0.4372 -0.5619
 8810TIP3    H147845   4.737   0.939  12.629  0.3251  1.7270 -1.7024
 8810TIP3    H247846   4.614   1.017  12.587 -1.6271 -1.2305 -1.8337
 8811TIP3   OH247847   6.703   4.503  16.274 -0.7358  0.1598 -0.1336
 8811TIP3    H147848   6.783   4.526  16.225 -0.7100  1.5233  0.4989
 8811TIP3    H247849   6.708   4.408  16.286  0.8529  0.2422  0.0068
 8812TIP3   OH247850   4.244   1.444  13.323  0.4430  0.1168  0.2455
 8812TIP3    H147851   4.296   1.484  13.393  0.6924  0.6660 -0.2471
 8812TIP3    H247852   4.308   1.415  13.258  0.0984  2.4855 -1.2583
 8813TIP3   OH247853   1.246   5.466  13.187 -0.3757  0.1567  0.3868
 8813TIP3    H147854   1.327   5.421  13.161 -1.0473 -0.7521 -0.1831
 8813TIP3    H247855   1.220   5.425  13.269 -0.1250  0.6386  0.7143
 8814TIP3   OH247856   4.636   5.382   6.286  0.3149 -0.5035 -0.3171
 8814TIP3    H147857   4.579   5.391   6.362 -1.1848 -2.9467 -1.0220
 8814TIP3    H247858   4.724   5.397   6.319 -0.2481 -1.8759  2.0091
 8815TIP3   OH247859   0.239   2.898  16.708 -0.9821 -0.7363 -0.0308
 8815TIP3    H147860   0.191   2.832  16.758 -0.4921 -1.5309 -0.5880
 8815TIP3    H247861   0.263   2.853  16.627  1.2433 -0.5651  0.4809
 8816TIP3   OH247862   5.884   6.268   6.697  0.4008 -0.0044  0.0367
 8816TIP3    H147863   5.863   6.300   6.609  0.1815  1.9690  0.7554
 8816TIP3    H247864   5.974   6.298   6.712  1.1219 -1.9377 -0.1763
 8817TIP3   OH247865   6.275   5.727  13.105  0.2230 -0.1719 -0.2209
 8817TIP3    H147866   6.198   5.678  13.077  0.0743 -0.0425 -0.0461
 8817TIP3    H247867   6.320   5.669  13.165  0.9712 -0.7632 -1.3298
 8818TIP3   OH247868   1.464   4.649   0.217  0.1635 -0.2380 -0.3306
 8818TIP3    H147869   1.385   4.619   0.172 -1.1910 -0.4941  2.0453
 8818TIP3    H247870   1.452   4.623   0.308  2.0841  1.4972  0.5255
 8819TIP3   OH247871   4.776   0.541  15.348  0.3631 -0.0516 -0.4101
 8819TIP3    H147872   4.719   0.472  15.382 -1.4147  1.1844 -0.7407
 8819TIP3    H247873   4.850   0.542  15.408 -0.6832 -0.7170  0.9652
 8820TIP3   OH247874   0.416   5.940  13.806 -0.1637  0.5226  0.0363
 8820TIP3    H147875   0.371   6.012  13.761  0.4469  0.3117 -0.9334
 8820TIP3    H247876   0.367   5.928  13.888 -0.4193  1.8819  0.1042
 8821TIP3   OH247877   5.768   2.422  12.787 -1.0909 -0.3356  0.4020
 8821TIP3    H147878   5.794   2.468  12.708 -0.9582  0.5314  0.9384
 8821TIP3    H247879   5.803   2.475  12.859 -0.6797 -1.4187  1.0406
 8822TIP3   OH247880   2.188   4.826  13.367  0.6920  0.2308  0.2562
 8822TIP3    H147881   2.174   4.794  13.457  2.9726  2.0626  1.3614
 8822TIP3    H247882   2.168   4.919  13.371 -0.0176  0.1936 -1.4256
 8823TIP3   OH247883   3.597   2.992   0.239 -0.0502  0.2138  0.6287
 8823TIP3    H147884   3.657   3.055   0.278  3.0348 -1.7867 -0.4364
 8823TIP3    H247885   3.634   2.907   0.262 -1.9052 -1.1324 -1.0307
 8824TIP3   OH247886   4.000   6.482  17.221  0.8963 -0.1368  0.1566
 8824TIP3    H147887   4.040   6.566  17.242 -0.5938  0.4158  0.9435
 8824TIP3    H247888   3.907   6.501  17.212  0.8222 -1.2130 -2.4495
 8825TIP3   OH247889   5.811   0.202  16.690 -0.5935  0.5754 -0.3934
 8825TIP3    H147890   5.835   0.111  16.708 -1.5396  0.6227  1.2513
 8825TIP3    H247891   5.760   0.197  16.609 -0.0655 -0.2656 -0.6843
 8826TIP3   OH247892   3.429   0.668   2.366  0.4573 -0.7789  0.4741
 8826TIP3    H147893   3.451   0.581   2.401  2.1315 -0.1124  1.1616
 8826TIP3    H247894   3.479   0.674   2.285 -0.1655 -0.6939  0.0899
 8827TIP3   OH247895   3.362   5.664   4.554  0.3569  0.1061  0.5885
 8827TIP3    H147896   3.328   5.668   4.644  1.4566  1.1876  0.9830
 8827TIP3    H247897   3.326   5.741   4.511  0.3205 -0.0868  0.2734
 8828TIP3   OH247898   5.516   3.594   0.809  0.1484 -0.2129  0.6509
 8828TIP3    H147899   5.457   3.646   0.754  0.3066 -1.8871 -1.2082
 8828TIP3    H247900   5.460   3.523   0.842  0.4647 -0.1708  1.2884
 8829TIP3   OH247901   1.247   1.991   4.525  0.3398 -0.1385  0.3517
 8829TIP3    H147902   1.342   1.990   4.536  0.4092  0.4703 -0.1139
 8829TIP3    H247903   1.215   2.043   4.599  0.2908 -1.0116  0.9604
 8830TIP3   OH247904   0.227   2.002   4.832  0.2189 -0.0953  0.3086
 8830TIP3    H147905   0.142   2.044   4.841  0.5082  0.3902  0.8053
 8830TIP3    H247906   0.206   1.913   4.803 -0.5749 -0.6134  2.2913
 8831TIP3   OH247907   6.416   4.921   3.813  0.0540  0.0790  0.0550
 8831TIP3    H147908   6.356   4.943   3.742  1.6978 -0.6297 -1.6067
 8831TIP3    H247909   6.405   4.827   3.826  2.2026 -0.4848 -1.6949
 8832TIP3   OH247910   1.679   1.040  15.818  0.1814 -0.2430 -0.2412
 8832TIP3    H147911   1.614   0.981  15.857 -0.3825  0.2948 -0.3603
 8832TIP3    H247912   1.731   0.983  15.760 -1.0508 -0.4319 -1.1982
 8833TIP3   OH247913   2.890   2.344   2.140  0.8824 -0.8398 -0.1415
 8833TIP3    H147914   2.848   2.288   2.074 -0.2150 -0.1433 -0.0701
 8833TIP3    H247915   2.906   2.427   2.093  0.9990 -0.6697  0.1985
 8834TIP3   OH247916   3.845   6.091   1.023 -0.5590  0.3323 -0.2316
 8834TIP3    H147917   3.921   6.067   0.969  0.6508  1.2119  1.0231
 8834TIP3    H247918   3.882   6.132   1.101 -2.2809 -0.5228  1.1097
 8835TIP3   OH247919   4.692   0.093  17.081 -0.5301 -0.2733  0.6364
 8835TIP3    H147920   4.646   0.172  17.052  0.6714  0.7256  1.3146
 8835TIP3    H247921   4.701   0.040  17.003  0.5533  1.2713 -0.3420
 8836TIP3   OH247922   1.278   0.152   2.115 -0.2392  0.7974  0.2217
 8836TIP3    H147923   1.319   0.170   2.031  0.5506 -0.8768  0.2120
 8836TIP3    H247924   1.350   0.126   2.172 -1.0756 -0.8065  0.6156
 8837TIP3   OH247925   0.009   0.828   0.413 -0.5044 -0.6830  0.2715
 8837TIP3    H147926  -0.056   0.774   0.458 -1.9985  0.2895 -0.6217
 8837TIP3    H247927   0.009   0.796   0.323 -0.1912 -0.2843  0.1253
 8838TIP3   OH247928   4.762   6.401  12.855  0.8444  0.5545 -0.2513
 8838TIP3    H147929   4.808   6.325  12.821  0.3745 -1.0608  2.4304
 8838TIP3    H247930   4.696   6.422  12.788  0.6342 -1.7564 -0.8337
 8839TIP3   OH247931   6.361   0.105   3.555  0.6727 -0.5989  0.1449
 8839TIP3    H147932   6.361   0.142   3.643  0.7138 -0.3655  0.0472
 8839TIP3    H247933   6.450   0.073   3.542  1.0870  0.7188 -0.3753
 8840TIP3   OH247934   4.934   0.584   4.079 -0.5503 -0.3586  0.3364
 8840TIP3    H147935   4.943   0.504   4.130  0.3211 -0.9226 -0.6508
 8840TIP3    H247936   5.023   0.616   4.068 -0.9040  0.8719  0.8768
 8841TIP3   OH247937   4.647   4.481   0.038 -0.6408  0.1930 -0.5890
 8841TIP3    H147938   4.717   4.529  -0.008 -0.0876  1.0725  1.0739
 8841TIP3    H247939   4.570   4.536   0.026 -0.5376  0.3384 -0.6018
 8842TIP3   OH247940   5.843   0.286  11.392  0.3403 -0.1222 -0.1828
 8842TIP3    H147941   5.878   0.334  11.317  1.4791 -1.2804 -0.4303
 8842TIP3    H247942   5.901   0.310  11.464  0.1673 -0.1798 -0.0264
 8843TIP3   OH247943   0.544   6.228   1.491  0.3310 -0.2257  0.3017
 8843TIP3    H147944   0.590   6.265   1.565 -0.1641  1.3229 -0.1332
 8843TIP3    H247945   0.514   6.303   1.441  0.3665 -1.2241 -1.3024
 8844TIP3   OH247946   3.056   4.810  12.239 -0.1143 -0.0240  0.2877
 8844TIP3    H147947   3.096   4.838  12.157 -0.8454  1.7521  0.4886
 8844TIP3    H247948   3.126   4.765  12.286  0.3704 -0.8972 -1.1920
 8845TIP3   OH247949   4.404   3.115  13.616  0.2964  0.3319  0.0301
 8845TIP3    H147950   4.382   3.090  13.706  0.3328 -1.0282 -0.3220
 8845TIP3    H247951   4.499   3.102  13.610  0.3908  0.9768 -0.0563
 8846TIP3   OH247952   4.811   4.269  14.605  0.1146  0.0169  0.4683
 8846TIP3    H147953   4.871   4.256  14.679  0.9316 -0.7275 -0.2932
 8846TIP3    H247954   4.853   4.223  14.532 -1.4364 -0.6020 -0.0798
 8847TIP3   OH247955   2.997   1.872   2.894 -0.5266 -0.0769 -0.4726
 8847TIP3    H147956   3.009   1.956   2.938  0.7500 -0.3838 -0.2093
 8847TIP3    H247957   3.032   1.886   2.806 -0.3270 -0.3314 -0.4328
 8848TIP3   OH247958   5.932   4.130   1.505  0.0474 -0.1199  0.2088
 8848TIP3    H147959   6.027   4.143   1.512  0.1638  1.6920 -2.8462
 8848TIP3    H247960   5.894   4.200   1.558  0.4885  0.6611 -0.4810
 8849TIP3   OH247961   3.449   3.797   3.636  0.2234 -0.3356 -0.4300
 8849TIP3    H147962   3.429   3.706   3.659  0.4243  0.1012  1.5833
 8849TIP3    H247963   3.493   3.833   3.713 -1.4454  2.0009 -0.4697
 8850TIP3   OH247964   2.273   4.239  15.389 -0.0667 -0.2503 -0.9863
 8850TIP3    H147965   2.287   4.146  15.403 -0.9087 -0.2347  0.1146
 8850TIP3    H247966   2.192   4.243  15.337 -1.5183 -0.0999  1.1797
 8851TIP3   OH247967   3.598   0.987  13.036  0.0049 -0.0526 -0.2296
 8851TIP3    H147968   3.503   0.991  13.024  0.1904 -1.6112 -2.9840
 8851TIP3    H247969   3.631   1.060  12.984  0.4154 -1.6749 -2.3776
 8852TIP3   OH247970   2.716   2.878   0.597 -0.1253 -0.0134  0.1481
 8852TIP3    H147971   2.639   2.882   0.654  0.9317 -0.1212  1.6477
 8852TIP3    H247972   2.683   2.843   0.514 -1.5347 -0.8598  1.0204
 8853TIP3   OH247973   2.594   4.451   4.215  0.3324  0.1639  0.0517
 8853TIP3    H147974   2.663   4.499   4.262  0.2453  0.2791  0.0615
 8853TIP3    H247975   2.567   4.382   4.276  1.3267 -0.6923 -0.4294
 8854TIP3   OH247976   0.801   1.705   6.671  0.0603  0.0982  0.2654
 8854TIP3    H147977   0.856   1.637   6.634 -2.1905 -1.6467 -0.0944
 8854TIP3    H247978   0.826   1.708   6.764  1.9328  0.6210 -0.2278
 8855TIP3   OH247979   1.411   6.680  12.074  0.6444  0.2809 -0.6772
 8855TIP3    H147980   1.341   6.740  12.101 -0.9381 -0.6345 -2.5280
 8855TIP3    H247981   1.468   6.734  12.020 -1.3361  0.0419 -3.2131
 8856TIP3   OH247982   6.128   2.382  14.960  0.3944  0.2430  0.1909
 8856TIP3    H147983   6.083   2.432  14.892 -0.6907  1.3118  1.6196
 8856TIP3    H247984   6.079   2.401  15.040  1.3148 -1.3642  1.2010
 8857TIP3   OH247985   4.503   2.574   5.846 -0.1897  0.2925  0.7515
 8857TIP3    H147986   4.422   2.623   5.828 -0.1001 -0.0141 -0.6080
 8857TIP3    H247987   4.559   2.637   5.891 -0.7479  0.8893  0.6324
 8858TIP3   OH247988   3.182   6.092   0.089 -0.2306 -0.2419  0.6949
 8858TIP3    H147989   3.146   6.153   0.025  1.9743  0.8935  0.4340
 8858TIP3    H247990   3.185   6.142   0.170 -0.8997 -0.9331  1.1653
 8859TIP3   OH247991   4.542   0.939   5.138  0.5996  0.2776  0.3077
 8859TIP3    H147992   4.584   0.940   5.052 -0.8666  1.3760 -0.4431
 8859TIP3    H247993   4.474   0.872   5.131 -1.3637  2.2473 -0.3838
 8860TIP3   OH247994   2.620   3.485  15.754  0.0420  0.8372  0.1680
 8860TIP3    H147995   2.597   3.452  15.841 -0.1926  1.4350  0.3350
 8860TIP3    H247996   2.710   3.517  15.763  0.4169 -0.0980 -0.0957
 8861TIP3   OH247997   3.310   1.844   5.107 -0.1410  0.6648  0.0119
 8861TIP3    H147998   3.340   1.906   5.041 -0.3640  0.5527 -0.1956
 8861TIP3    H247999   3.219   1.828   5.085  0.1310 -0.3555 -0.4311
 8862TIP3   OH248000   3.247   6.309   0.758 -0.0192 -0.5253  0.0507
 8862TIP3    H148001   3.337   6.305   0.790 -0.1397 -0.9476  0.3533
 8862TIP3    H248002   3.254   6.304   0.663  0.3948  1.4292 -0.0562
 8863TIP3   OH248003   2.390   0.042   2.235 -0.4336 -0.2439  0.6705
 8863TIP3    H148004   2.369   0.106   2.166 -0.1938  1.3581  2.0070
 8863TIP3    H248005   2.470  -0.001   2.204 -0.9263 -0.3236 -0.5379
 8864TIP3   OH248006   0.127   6.284  14.877 -0.2183 -0.3012 -0.0927
 8864TIP3    H148007   0.123   6.371  14.837  1.7167  0.0670  0.4119
 8864TIP3    H248008   0.186   6.234  14.821 -1.1289 -1.2288 -0.2482
 8865TIP3   OH248009   4.456   1.526  12.382  0.0936 -0.2935 -0.5504
 8865TIP3    H148010   4.365   1.503  12.361  0.1421 -0.5329 -0.5035
 8865TIP3    H248011   4.508   1.457  12.341  0.2438 -0.2530 -0.4285
 8866TIP3   OH248012   2.854   3.932   3.880  0.2318  0.2917  0.4897
 8866TIP3    H148013   2.870   4.026   3.892 -1.2851  0.6943 -0.3639
 8866TIP3    H248014   2.759   3.923   3.887  0.0677 -0.7673 -2.1061
 8867TIP3   OH248015   1.777   0.282   3.493 -1.0671 -0.0290  0.2738
 8867TIP3    H148016   1.761   0.308   3.584 -0.9586 -0.8741  0.5527
 8867TIP3    H248017   1.754   0.189   3.491 -1.7912  0.1561 -0.7574
 8868TIP3   OH248018   4.622   6.586   3.526  0.0116  0.4831 -0.6506
 8868TIP3    H148019   4.582   6.615   3.608 -1.2898 -2.0220 -0.3228
 8868TIP3    H248020   4.676   6.511   3.550  0.1399  0.1184 -1.9862
 8869TIP3   OH248021   1.256   3.404  14.648  0.0227 -0.3644  0.2624
 8869TIP3    H148022   1.191   3.363  14.591  0.3807  2.3738 -2.4374
 8869TIP3    H248023   1.218   3.489  14.671  1.2887 -0.0637  1.3939
 8870TIP3   OH248024   0.468   3.584  15.539  0.0489 -0.3290  0.4525
 8870TIP3    H148025   0.539   3.547  15.592 -1.8964 -2.0259  2.0435
 8870TIP3    H248026   0.407   3.511  15.526 -1.3712  1.0313 -0.9403
 8871TIP3   OH248027   1.233   5.151  11.017  0.6879 -0.1799 -0.1240
 8871TIP3    H148028   1.200   5.221  10.962  0.5453 -0.4260 -0.3559
 8871TIP3    H248029   1.264   5.084  10.956 -0.8910 -1.1307  0.0520
 8872TIP3   OH248030   3.857   0.934   4.657 -0.2857 -0.0054  0.2383
 8872TIP3    H148031   3.765   0.909   4.645  0.4104 -1.5827 -2.6838
 8872TIP3    H248032   3.855   1.029   4.662 -2.1270 -0.0420  1.1406
 8873TIP3   OH248033   3.662   2.247   2.405  0.0797 -0.0946 -0.0994
 8873TIP3    H148034   3.572   2.280   2.409 -0.4138 -1.2620 -0.7386
 8873TIP3    H248035   3.664   2.175   2.469  0.5403 -0.1108 -0.1290
 8874TIP3   OH248036   5.591   2.347   6.306  0.0390  0.0776  0.2662
 8874TIP3    H148037   5.515   2.290   6.318  0.3184 -1.0081 -2.4597
 8874TIP3    H248038   5.666   2.287   6.308  0.2892  0.0570 -3.4635
 8875TIP3   OH248039   3.952   2.359  15.911  0.9182 -0.2822 -0.0322
 8875TIP3    H148040   4.045   2.364  15.932  1.0583  0.4759 -0.7581
 8875TIP3    H248041   3.922   2.449  15.916  0.2695 -0.4960 -0.0134
 8876TIP3   OH248042   0.710   6.677   3.113 -0.1811 -0.7230  0.1723
 8876TIP3    H148043   0.782   6.682   3.175 -1.1575  2.7886  1.2459
 8876TIP3    H248044   0.650   6.612   3.151  0.4910 -0.6305  1.4488
 8877TIP3   OH248045   5.077   4.766   0.116 -0.0857 -0.1741 -0.4776
 8877TIP3    H148046   5.022   4.806   0.184  0.3426 -0.5774  0.1133
 8877TIP3    H248047   5.028   4.689   0.087 -0.0284 -0.2976 -0.2490
 8878TIP3   OH248048   5.095   2.786   3.533 -0.2861  0.4369 -0.8314
 8878TIP3    H148049   5.021   2.725   3.524 -0.8743  0.9977  0.0639
 8878TIP3    H248050   5.113   2.787   3.627  1.3141 -0.2078 -1.1132
 8879TIP3   OH248051   0.568   3.364   5.522 -0.0978 -0.1495 -0.1222
 8879TIP3    H148052   0.633   3.349   5.591  1.0792 -2.1213 -1.5367
 8879TIP3    H248053   0.560   3.459   5.517 -1.1948  0.0978  3.5091
 8880TIP3   OH248054   2.347   3.001  11.224  0.1687  0.5422 -0.5940
 8880TIP3    H148055   2.369   2.929  11.165 -1.8796 -0.2259 -0.5213
 8880TIP3    H248056   2.429   3.023  11.268  1.9324  1.5185 -4.0237
 8881TIP3   OH248057   5.582   5.207   1.351 -0.2062  0.0817  0.3196
 8881TIP3    H148058   5.544   5.119   1.339 -0.0321  0.1509 -0.8858
 8881TIP3    H248059   5.539   5.241   1.429 -0.7854 -0.8153  0.4096
 8882TIP3   OH248060   0.835   2.384   3.382 -0.4706 -0.0447  0.2412
 8882TIP3    H148061   0.748   2.413   3.353 -0.7796 -1.1109  0.0540
 8882TIP3    H248062   0.885   2.464   3.391 -0.9812  0.4721 -1.2764
 8883TIP3   OH248063   0.401   0.232   2.783  0.0615  0.1490  0.0856
 8883TIP3    H148064   0.413   0.185   2.700 -1.1647  0.7232 -0.4567
 8883TIP3    H248065   0.431   0.321   2.765  1.0973 -0.0681  0.6942
 8884TIP3   OH248066   4.212   0.747  14.429  0.2088 -0.5098  0.1961
 8884TIP3    H148067   4.267   0.785  14.361  0.6843  0.1125  0.9189
 8884TIP3    H248068   4.217   0.652  14.414  0.1471 -0.3685 -0.7444
 8885TIP3   OH248069   4.573   5.133   5.331 -0.0239 -0.0769 -0.2260
 8885TIP3    H148070   4.600   5.208   5.384 -1.2194 -0.4193  0.9237
 8885TIP3    H248071   4.582   5.164   5.240 -0.1831  1.3562  0.2119
 8886TIP3   OH248072   0.089   3.845   5.107  0.3515 -0.1962 -0.2176
 8886TIP3    H148073   0.084   3.772   5.169  0.5733  0.0432  0.0846
 8886TIP3    H248074   0.028   3.821   5.037  0.1266 -0.4846  0.0726
 8887TIP3   OH248075   6.221   2.060  12.794  0.5715 -0.1193 -0.1371
 8887TIP3    H148076   6.157   2.052  12.865 -0.2412  3.3610 -0.2829
 8887TIP3    H248077   6.298   2.014  12.827 -1.7863 -4.4882  0.0437
 8888TIP3   OH248078   1.445   6.599  16.047 -0.2467  0.1511 -0.2381
 8888TIP3    H148079   1.365   6.575  15.999  0.3728 -1.1572 -0.6468
 8888TIP3    H248080   1.487   6.516  16.067 -0.0340  0.7105  1.8566
 8889TIP3   OH248081   4.779   5.654  15.850 -0.1812 -0.8112 -0.2764
 8889TIP3    H148082   4.765   5.747  15.867  0.5060 -0.8028  0.3216
 8889TIP3    H248083   4.691   5.617  15.842 -0.5153 -0.4142  1.2393
 8890TIP3   OH248084   2.435   2.358   2.837  0.7085 -0.1011 -0.1158
 8890TIP3    H148085   2.445   2.271   2.874  1.1625  0.0154  0.0304
 8890TIP3    H248086   2.492   2.414   2.889 -0.2486  0.4520  0.3608
 8891TIP3   OH248087   0.257   1.325   6.449  0.3584  0.0534 -0.2772
 8891TIP3    H148088   0.316   1.363   6.514 -0.2550  1.0656 -0.2857
 8891TIP3    H248089   0.282   1.367   6.367 -0.7775  0.9761 -0.1686
 8892TIP3   OH248090   6.320   5.471   0.938  0.1305 -0.1752 -0.2636
 8892TIP3    H148091   6.378   5.415   0.990 -0.0843 -0.6166 -0.4936
 8892TIP3    H248092   6.295   5.542   0.998 -1.4187 -1.5298  0.7918
 8893TIP3   OH248093   0.969   5.449   1.993  0.1567  0.2522  0.5425
 8893TIP3    H148094   0.935   5.407   1.914  1.0696 -0.8624  0.7212
 8893TIP3    H248095   1.056   5.479   1.969 -0.4421  2.0671  0.4394
 8894TIP3   OH248096   4.584   2.358   3.105  0.2033 -0.1817 -0.7604
 8894TIP3    H148097   4.668   2.351   3.059  0.5322  1.5796 -0.4880
 8894TIP3    H248098   4.539   2.430   3.061 -0.7803 -0.4887 -0.2807
 8895TIP3   OH248099   5.369   5.932  17.312 -0.6161  0.2699 -0.2861
 8895TIP3    H148100   5.351   5.887  17.394  0.2725 -0.3406 -0.4022
 8895TIP3    H248101   5.410   6.014  17.338  1.9445 -0.9596 -0.0965
 8896TIP3   OH248102   1.459   6.694  11.563  0.6698  0.3459 -0.3842
 8896TIP3    H148103   1.431   6.616  11.515  0.5214  0.4894 -0.5331
 8896TIP3    H248104   1.381   6.720  11.613  0.8154  0.2113 -0.0864
 8897TIP3   OH248105   2.724   1.559   1.502  0.4294  0.2694 -0.2684
 8897TIP3    H148106   2.631   1.572   1.483 -0.3802  0.5562  3.2388
 8897TIP3    H248107   2.735   1.464   1.503  0.2765  0.2416 -1.0900
 8898TIP3   OH248108   2.154   4.408   4.245  0.1638  0.0929  0.0851
 8898TIP3    H148109   2.208   4.336   4.277  2.6926  2.0863  0.6723
 8898TIP3    H248110   2.153   4.471   4.317 -1.2145  1.0309 -0.7194
 8899TIP3   OH248111   2.043   0.915   4.002 -0.1205  0.2782 -0.5123
 8899TIP3    H148112   2.121   0.879   4.043  1.2009  3.0291 -0.3914
 8899TIP3    H248113   2.068   0.929   3.911 -1.0650 -0.2897 -0.8848
 8900TIP3   OH248114   3.977   5.549  13.342  0.1353 -0.0842 -0.2027
 8900TIP3    H148115   3.897   5.504  13.372 -0.6144  1.3671  0.0537
 8900TIP3    H248116   4.020   5.485  13.285  0.4242 -2.0974  2.0918
 8901TIP3   OH248117   2.085   3.017  11.350  0.0954 -0.4637 -0.3467
 8901TIP3    H148118   2.171   2.995  11.314  0.9862 -0.8645  1.8835
 8901TIP3    H248119   2.082   3.113  11.347  0.2948 -0.4717 -1.1024
 8902TIP3   OH248120   5.958   0.439  13.347  0.2040 -0.5873 -0.3981
 8902TIP3    H148121   5.904   0.499  13.399 -0.8665 -0.3092 -1.7554
 8902TIP3    H248122   5.901   0.364  13.330  1.7012 -2.3206  1.7358
 8903TIP3   OH248123   4.152   5.176   3.141  0.3068 -0.7545 -0.2729
 8903TIP3    H148124   4.058   5.167   3.159  0.7091 -0.6556  2.2405
 8903TIP3    H248125   4.158   5.250   3.082 -1.1256  0.1295  0.6231
 8904TIP3   OH248126   4.853   2.346   0.957 -0.3814 -0.0648  0.1456
 8904TIP3    H148127   4.922   2.282   0.942 -0.0800  0.6894 -2.1757
 8904TIP3    H248128   4.786   2.325   0.892  0.0471  2.3212 -1.1844
 8905TIP3   OH248129   1.122   0.301  16.022  0.4811  0.6279  0.3210
 8905TIP3    H148130   1.149   0.305  15.931  0.1266 -3.0443 -0.1169
 8905TIP3    H248131   1.200   0.274  16.070  0.7972  3.0043  1.2774
 8906TIP3   OH248132   0.698   2.652   2.042  0.4697 -0.1672 -0.1146
 8906TIP3    H148133   0.740   2.701   2.112  0.8403  0.2597 -0.6345
 8906TIP3    H248134   0.605   2.649   2.067  0.4471  0.7805 -0.0676
 8907TIP3   OH248135   5.589   0.727   0.036 -0.7876 -0.7128 -0.0088
 8907TIP3    H148136   5.625   0.762  -0.045  0.0505  0.1595  0.7058
 8907TIP3    H248137   5.602   0.797   0.100 -1.8587 -1.2042  0.7719
 8908TIP3   OH248138   1.764   6.182   4.496 -0.9831  0.5863  0.2449
 8908TIP3    H148139   1.726   6.144   4.417  1.6072 -1.1041 -0.3221
 8908TIP3    H248140   1.724   6.269   4.502 -1.9590  0.4287 -2.3894
 8909TIP3   OH248141   5.436   4.541   0.251  0.0055  0.3746  0.2452
 8909TIP3    H148142   5.380   4.618   0.262  0.3446  0.3898  2.1771
 8909TIP3    H248143   5.381   4.478   0.204 -1.7523  0.3166  2.2252
 8910TIP3   OH248144   6.110   0.636  16.485  0.2220 -1.0699 -0.1409
 8910TIP3    H148145   6.172   0.676  16.545 -1.3716  0.4025  0.6082
 8910TIP3    H248146   6.097   0.548  16.518  2.4269 -1.6777 -0.7529
 8911TIP3   OH248147   0.828   4.941  14.780  0.8129  0.5385  0.4620
 8911TIP3    H148148   0.805   4.856  14.818  1.2569  0.1316 -0.1624
 8911TIP3    H248149   0.777   5.004  14.830 -0.7497 -0.2218 -0.1305
 8912TIP3   OH248150   0.795   6.029  16.188  0.2115  0.5988 -0.4817
 8912TIP3    H148151   0.703   6.031  16.163  0.4680  0.8963 -1.4214
 8912TIP3    H248152   0.802   6.095  16.257 -0.4126  0.0640  0.1134
 8913TIP3   OH248153   6.453   6.362   0.933  0.2718  0.4907  0.4291
 8913TIP3    H148154   6.456   6.302   0.858  0.1828  1.2904 -0.2290
 8913TIP3    H248155   6.380   6.330   0.986 -0.0789  0.2994 -0.1597
 8914TIP3   OH248156   3.804   4.893  12.670  0.0452 -0.1579 -0.2848
 8914TIP3    H148157   3.842   4.950  12.736 -0.0482  0.6653 -0.9190
 8914TIP3    H248158   3.876   4.873  12.610  0.0133 -0.4915 -0.2171
 8915TIP3   OH248159   4.739   2.802  10.802 -0.0190  0.0323 -0.4763
 8915TIP3    H148160   4.650   2.805  10.837 -0.1650 -1.1936 -0.6904
 8915TIP3    H248161   4.735   2.738  10.731  1.0208 -0.0066 -0.5164
 8916TIP3   OH248162   5.712   4.279   5.953  0.0430 -0.6656  0.2346
 8916TIP3    H148163   5.634   4.313   5.998  1.2233 -2.0457  3.6139
 8916TIP3    H248164   5.783   4.336   5.983  0.9646 -1.9785  0.6416
 8917TIP3   OH248165   2.134   0.604   0.051 -0.3979  0.6225  0.2664
 8917TIP3    H148166   2.217   0.624   0.009  0.2817 -1.1499  0.6738
 8917TIP3    H248167   2.070   0.656   0.003  0.4870 -0.4664 -2.2786
 8918TIP3   OH248168   0.905   4.033  17.235  0.4617 -0.2330  0.4198
 8918TIP3    H148169   0.930   4.085  17.312 -1.5577 -0.8954  1.5891
 8918TIP3    H248170   0.973   3.965  17.229  3.6540  2.7523 -1.6257
 8919TIP3   OH248171   5.991   3.840  15.079 -0.2323  0.6821  0.2640
 8919TIP3    H148172   6.059   3.890  15.035  1.4166  0.0353  1.9402
 8919TIP3    H248173   5.936   3.905  15.122  1.6058  1.1832  2.0251
 8920TIP3   OH248174   2.677   4.731  10.577 -0.2391  0.6067  0.2891
 8920TIP3    H148175   2.767   4.709  10.555 -0.0350  1.4024  0.2896
 8920TIP3    H248176   2.641   4.650  10.614  0.6596  0.4575  0.8670
 8921TIP3   OH248177   4.255   1.870  13.734  0.0052 -0.3723 -0.0356
 8921TIP3    H148178   4.343   1.900  13.715  0.4819 -1.2733  0.6374
 8921TIP3    H248179   4.198   1.926  13.682  0.9986 -0.0808 -0.8440
 8922TIP3   OH248180   5.372   1.450   3.795  0.2087  0.0100  0.3389
 8922TIP3    H148181   5.370   1.495   3.711  1.0223 -0.5977 -0.0103
 8922TIP3    H248182   5.347   1.360   3.775  1.0148 -0.2876  0.6457
 8923TIP3   OH248183   3.420   2.587  14.782 -0.3131  0.1419  0.3556
 8923TIP3    H148184   3.342   2.564  14.731 -1.9299 -0.5732  2.9542
 8923TIP3    H248185   3.388   2.649  14.848  1.0351 -1.0324  2.1943
 8924TIP3   OH248186   5.102   5.916  15.009 -0.1284 -0.2313 -0.1577
 8924TIP3    H148187   5.104   5.863  15.089 -2.2193 -0.3440 -0.1442
 8924TIP3    H248188   5.144   5.999  15.035 -0.8761 -0.2217  1.0941
 8925TIP3   OH248189   1.616   5.667   4.157 -0.0481  0.1773  0.4284
 8925TIP3    H148190   1.692   5.611   4.173  0.1615  0.7771  1.6559
 8925TIP3    H248191   1.654   5.750   4.128 -0.3529 -0.2438 -1.2907
 8926TIP3   OH248192   1.816   2.562  12.238  0.1560 -0.0220  0.3411
 8926TIP3    H148193   1.902   2.556  12.196  1.1468 -0.4808  2.2844
 8926TIP3    H248194   1.754   2.569  12.166  1.7965 -0.0473 -1.1367
 8927TIP3   OH248195   5.316   6.684   6.093  0.7029  0.2396  0.2443
 8927TIP3    H148196   5.361   6.604   6.122  2.7131  1.2455  0.0624
 8927TIP3    H248197   5.351   6.700   6.005  1.0995  1.8637  0.6820
 8928TIP3   OH248198   3.854   4.381   4.962  0.2964  0.1443  0.4768
 8928TIP3    H148199   3.864   4.456   5.021 -0.7878  0.6595  0.0451
 8928TIP3    H248200   3.767   4.348   4.980  0.2926 -0.2396 -0.2129
 8929TIP3   OH248201   4.296   1.922   5.025 -0.5769  0.0137  0.0901
 8929TIP3    H148202   4.333   1.981   5.091 -1.0172  1.1123 -0.6250
 8929TIP3    H248203   4.276   1.978   4.951 -0.3192 -1.1697 -0.9051
 8930TIP3   OH248204   1.723   2.098   4.089  0.5218  0.1928  0.1250
 8930TIP3    H148205   1.767   2.018   4.114  0.4939 -0.7413 -2.4832
 8930TIP3    H248206   1.793   2.162   4.075  0.8158 -0.3062 -0.7530
 8931TIP3   OH248207   0.771   6.743   5.713 -0.2173 -0.4424 -0.1882
 8931TIP3    H148208   0.728   6.676   5.766 -1.8440  0.4783 -0.3099
 8931TIP3    H248209   0.833   6.785   5.773 -1.0982 -0.2898  0.6364
 8932TIP3   OH248210   0.499   6.258  12.720 -0.3675 -0.5897  0.7823
 8932TIP3    H148211   0.416   6.305  12.705 -0.8987 -1.7157  0.0416
 8932TIP3    H248212   0.473   6.178  12.765  0.5550 -0.1057  2.2233
 8933TIP3   OH248213   1.280   0.397  13.019 -0.0079 -0.3976 -0.1744
 8933TIP3    H148214   1.363   0.418  13.063 -0.7150 -0.7910  1.3910
 8933TIP3    H248215   1.227   0.476  13.029 -0.1824 -0.4975 -0.3141
 8934TIP3   OH248216   5.101   4.927   0.939  0.1396 -0.2142  0.2567
 8934TIP3    H148217   5.161   4.854   0.952  0.7973  0.4009  0.7339
 8934TIP3    H248218   5.157   5.000   0.913 -0.0107  1.0392  3.0182
 8935TIP3   OH248219   0.421   3.140  12.415  0.4732  0.1349 -0.8692
 8935TIP3    H148220   0.428   3.100  12.328  1.5436  0.7619 -1.0857
 8935TIP3    H248221   0.492   3.204  12.418 -0.9911  1.8268 -0.4170
 8936TIP3   OH248222   3.949   6.016   0.339  0.3930 -0.4628 -0.4600
 8936TIP3    H148223   3.923   5.941   0.286 -1.8543  0.5749 -0.9326
 8936TIP3    H248224   4.005   6.068   0.281  1.3830 -1.3861 -0.3627
 8937TIP3   OH248225   3.342   4.939   3.402 -0.3240  0.0105  0.1360
 8937TIP3    H148226   3.278   4.988   3.453  1.3726  1.7822  0.6832
 8937TIP3    H248227   3.292   4.868   3.362 -2.4243  0.7968  1.2383
 8938TIP3   OH248228   6.135   3.051  14.130 -0.5912 -0.1688 -0.0759
 8938TIP3    H148229   6.065   3.115  14.115 -1.1775 -0.5503  0.9295
 8938TIP3    H248230   6.106   3.002  14.207  0.9826 -0.0538  0.6284
 8939TIP3   OH248231   2.687   2.926   0.147  0.8097 -0.2233 -0.2815
 8939TIP3    H148232   2.753   2.866   0.110  0.6172 -1.0291  0.6511
 8939TIP3    H248233   2.738   2.989   0.198  0.9131 -0.4576 -0.0920
 8940TIP3   OH248234   3.362   0.354  14.082 -0.1991 -0.5043 -0.0518
 8940TIP3    H148235   3.397   0.439  14.056 -0.7723 -0.0295  0.7019
 8940TIP3    H248236   3.434   0.293  14.067 -0.7402 -0.4616 -3.6283
 8941TIP3   OH248237   3.231   0.034  13.791 -0.1920 -0.1754  0.9754
 8941TIP3    H148238   3.234   0.066  13.700 -0.5148  0.2411  1.1074
 8941TIP3    H248239   3.316  -0.008  13.804  0.3428  0.8271  0.8593
 8942TIP3   OH248240   3.548   0.029   2.129 -0.2141 -0.0575 -0.0384
 8942TIP3    H148241   3.473   0.075   2.166 -0.3767 -0.0402 -0.3849
 8942TIP3    H248242   3.510  -0.033   2.066  0.1480  1.0941 -1.4525
 8943TIP3   OH248243   0.207   1.259  12.113  0.2156 -0.0509 -0.5677
 8943TIP3    H148244   0.211   1.267  12.209 -0.3414 -0.9117 -0.4663
 8943TIP3    H248245   0.268   1.189  12.092 -0.6853 -0.8157 -0.6996
 8944TIP3   OH248246   4.776   3.616   0.173 -0.0475 -0.3235  0.4087
 8944TIP3    H148247   4.815   3.548   0.118  1.5333  1.4823 -0.8461
 8944TIP3    H248248   4.820   3.697   0.146 -1.4397  1.1334  2.2184
 8945TIP3   OH248249   1.897   0.716  16.746 -0.7594 -0.5906 -0.2026
 8945TIP3    H148250   1.913   0.770  16.668  0.0623 -0.9891 -0.3259
 8945TIP3    H248251   1.951   0.757  16.814  0.8643 -1.9406 -0.6147
 8946TIP3   OH248252   4.209   4.898   2.902 -0.2731 -0.3663  0.1218
 8946TIP3    H148253   4.114   4.909   2.905 -0.1585  0.5154  1.4397
 8946TIP3    H248254   4.223   4.816   2.856 -1.7061 -0.7784  0.3888
 8947TIP3   OH248255   4.286   5.505   3.018 -0.4583 -0.2728  0.0433
 8947TIP3    H148256   4.310   5.597   3.028 -2.3749  0.1381  1.4023
 8947TIP3    H248257   4.335   5.460   3.087 -0.6186 -0.0635  0.2916
 8948TIP3   OH248258   3.273   4.951  12.431 -0.7699 -0.0312 -0.6690
 8948TIP3    H148259   3.293   4.883  12.366 -0.4187 -0.3159 -0.2748
 8948TIP3    H248260   3.203   5.003  12.391  1.1378  1.3760 -2.3854
 8949TIP3   OH248261   3.791   5.680  14.867  0.0651 -0.4847  0.5709
 8949TIP3    H148262   3.800   5.606  14.927  0.8879 -0.9400 -0.0856
 8949TIP3    H248263   3.716   5.729  14.900  0.0293 -1.1465  1.5135
 8950TIP3   OH248264   5.153   1.758  13.121  0.5578  0.5731 -0.7992
 8950TIP3    H148265   5.149   1.669  13.156  0.4879  0.6995 -0.4739
 8950TIP3    H248266   5.110   1.753  13.036  0.1609  0.3861 -0.5897
 8951TIP3   OH248267   1.566   6.497   2.311  0.6560  0.0721  0.1498
 8951TIP3    H148268   1.589   6.573   2.363  0.7916  0.4056 -0.3868
 8951TIP3    H248269   1.611   6.424   2.354 -0.5186  0.0584  1.4315
 8952TIP3   OH248270   0.926   1.646   5.726  0.4240 -0.1385  0.1085
 8952TIP3    H148271   0.837   1.671   5.749  0.5332 -1.8364  2.7232
 8952TIP3    H248272   0.917   1.587   5.651 -0.6080 -0.1154  0.2098
 8953TIP3   OH248273   6.300   0.954   1.644  0.4069  0.0748 -0.2598
 8953TIP3    H148274   6.237   1.015   1.604  0.2449  0.0892  0.0177
 8953TIP3    H248275   6.271   0.868   1.615 -0.2036  0.0163  0.4881
 8954TIP3   OH248276   0.517   2.469   3.507 -0.5635 -0.1549  0.7236
 8954TIP3    H148277   0.489   2.381   3.484  2.3637 -0.8230 -0.6460
 8954TIP3    H248278   0.492   2.523   3.432  1.1129 -0.6387 -0.2331
 8955TIP3   OH248279   4.984   3.910  11.537 -0.2115 -0.2362 -0.8008
 8955TIP3    H148280   4.919   3.903  11.467  0.0606 -0.9350 -0.9918
 8955TIP3    H248281   4.993   3.822  11.572  0.3880 -0.0870 -0.5527
 8956TIP3   OH248282   2.021   2.206   3.776  0.0153 -0.2245  0.0716
 8956TIP3    H148283   1.931   2.176   3.766 -1.3523  3.7084 -1.2510
 8956TIP3    H248284   2.073   2.140   3.730 -2.5076 -1.1760 -1.6422
 8957TIP3   OH248285   3.353   0.093  15.776 -0.4136  0.0968 -0.2045
 8957TIP3    H148286   3.346   0.032  15.849 -1.5784  0.3499 -0.0921
 8957TIP3    H248287   3.443   0.081  15.743 -0.1642 -0.6336  0.7116
 8958TIP3   OH248288   5.692   4.688  11.382  0.1595  0.2869  0.3861
 8958TIP3    H148289   5.684   4.783  11.371 -2.0014  0.0968 -0.2308
 8958TIP3    H248290   5.604   4.660  11.408  0.2257 -1.7591 -1.3033
 8959TIP3   OH248291   3.129   0.682  12.135  0.3433 -0.1851  0.2007
 8959TIP3    H148292   3.197   0.749  12.132  0.4109 -0.2534  0.2230
 8959TIP3    H248293   3.050   0.728  12.107  0.7664 -0.5776 -1.7969
 8960TIP3   OH248294   3.491   2.840  14.462 -0.3313 -0.0648  0.4166
 8960TIP3    H148295   3.514   2.917  14.410  0.7578 -0.1061  0.8150
 8960TIP3    H248296   3.475   2.771  14.397 -1.4591  0.5142  0.0505
 8961TIP3   OH248297   0.815   5.508  11.796  0.4717 -0.1331  0.1429
 8961TIP3    H148298   0.763   5.492  11.717  0.1323  0.8478  0.1582
 8961TIP3    H248299   0.778   5.447  11.861  1.2736 -1.5189 -0.6467
 8962TIP3   OH248300   5.971   3.874  11.030  0.3003 -0.2240 -0.3142
 8962TIP3    H148301   6.040   3.808  11.021  1.9679  1.1121  1.6475
 8962TIP3    H248302   5.975   3.900  11.122 -0.8765  1.9778 -0.8210
 8963TIP3   OH248303   6.236   6.526   5.459  0.6978  0.1392  0.0434
 8963TIP3    H148304   6.293   6.504   5.533 -1.5045 -0.7010  1.6065
 8963TIP3    H248305   6.237   6.448   5.404  0.5125 -0.1600  0.4539
 8964TIP3   OH248306   6.580   5.130   3.871 -0.6527 -0.0427 -0.1763
 8964TIP3    H148307   6.573   5.183   3.791 -0.2197  0.5001  0.1487
 8964TIP3    H248308   6.526   5.053   3.852 -0.9325  0.2996 -0.8182
 8965TIP3   OH248309   0.510   3.883  15.268  0.3894 -0.1289  0.2727
 8965TIP3    H148310   0.561   3.812  15.307 -2.7979 -3.4218 -1.0043
 8965TIP3    H248311   0.430   3.887  15.320 -0.2720  1.4008 -0.7839
 8966TIP3   OH248312   3.811   6.649  12.186 -0.3028  0.1718 -0.2408
 8966TIP3    H148313   3.884   6.631  12.127  0.8821  1.4363  0.8012
 8966TIP3    H248314   3.765   6.722  12.146 -0.2196  0.2373 -0.2164
 8967TIP3   OH248315   5.979   0.614   0.314 -0.1102  0.5706 -0.0799
 8967TIP3    H148316   6.042   0.589   0.382  1.4575 -1.2750 -2.0718
 8967TIP3    H248317   5.900   0.566   0.337  0.3267  0.1321  0.5465
 8968TIP3   OH248318   3.663   4.333  14.456 -0.3152  0.1907 -0.4232
 8968TIP3    H148319   3.597   4.353  14.390  0.2287  1.1516 -0.6889
 8968TIP3    H248320   3.726   4.277  14.411 -0.4912 -0.0161 -0.4151
 8969TIP3   OH248321   4.789   2.416  10.833  0.3528  0.2821  0.0555
 8969TIP3    H148322   4.758   2.356  10.764 -0.2815 -2.1457  2.2511
 8969TIP3    H248323   4.883   2.402  10.837  0.7438  2.1160 -1.7317
 8970TIP3   OH248324   4.453   0.680  16.117 -0.1688 -0.5534  0.4185
 8970TIP3    H148325   4.540   0.659  16.083 -0.3015  1.2228 -1.2103
 8970TIP3    H248326   4.394   0.622  16.069 -0.0258 -0.5877  0.2827
 8971TIP3   OH248327   1.259   2.855   0.992  0.1172 -0.3817  0.5066
 8971TIP3    H148328   1.243   2.765   1.022  2.4680 -0.7985  0.7253
 8971TIP3    H248329   1.180   2.878   0.943 -0.7275 -2.4149  0.7871
 8972TIP3   OH248330   2.864   3.624   1.004 -0.1126 -0.1392 -0.1070
 8972TIP3    H148331   2.795   3.578   1.051  0.4135  0.2166  1.0420
 8972TIP3    H248332   2.911   3.673   1.071  0.6179  0.4450 -1.0142
 8973TIP3   OH248333   6.664   6.466  12.204 -0.3954 -0.2088 -0.0701
 8973TIP3    H148334   6.638   6.442  12.293  1.9668 -2.4359  0.1556
 8973TIP3    H248335   6.680   6.382  12.161 -1.7249  0.7828 -2.7643
 8974TIP3   OH248336   6.328   6.152   2.351  0.0265  0.3237  0.3722
 8974TIP3    H148337   6.339   6.219   2.418  0.7575  0.4714  0.1083
 8974TIP3    H248338   6.417   6.121   2.332  0.1032  1.7606 -2.0276
 8975TIP3   OH248339   2.137   2.385  16.493 -0.3723 -0.1182 -0.3155
 8975TIP3    H148340   2.187   2.344  16.423 -0.4476  1.3246 -1.2662
 8975TIP3    H248341   2.054   2.409  16.452 -0.8836 -0.2770  0.5872
 8976TIP3   OH248342   0.538   6.241   2.765 -0.0425 -0.4260 -0.1579
 8976TIP3    H148343   0.623   6.246   2.809 -1.7961 -1.6045  3.8854
 8976TIP3    H248344   0.493   6.321   2.792 -0.4182 -0.0239 -1.8952
 8977TIP3   OH248345   5.893   1.859  14.628 -1.0569  0.1038 -0.1753
 8977TIP3    H148346   5.852   1.778  14.659 -1.4286  0.8810  1.4390
 8977TIP3    H248347   5.894   1.917  14.704  1.7478  0.6574 -0.5152
 8978TIP3   OH248348   3.734   3.977   4.918 -0.4469 -0.3640 -0.6282
 8978TIP3    H148349   3.771   4.018   4.997 -0.2728 -0.6585 -0.5543
 8978TIP3    H248350   3.641   3.999   4.921 -0.3839 -0.1083 -0.5050
 8979TIP3   OH248351   6.328   0.224   2.973  0.7191  0.2441 -0.1164
 8979TIP3    H148352   6.384   0.147   2.969  0.3313 -0.1136  0.8605
 8979TIP3    H248353   6.268   0.206   3.045  2.3496  2.5964  2.0184
 8980TIP3   OH248354   1.012   1.558  12.365  0.0106 -0.1418  0.0719
 8980TIP3    H148355   0.998   1.472  12.327 -0.0559 -0.2637  0.3734
 8980TIP3    H248356   1.070   1.603  12.303  0.3890 -0.5522  0.1273
 8981TIP3   OH248357   2.673   2.437   1.075 -0.5694 -0.2004 -0.0551
 8981TIP3    H148358   2.670   2.464   1.166  0.0869 -0.6993  0.1208
 8981TIP3    H248359   2.622   2.503   1.028 -2.5069 -0.9387  0.9078
 8982TIP3   OH248360   2.680   5.850   4.231  0.1067  0.1442 -0.2411
 8982TIP3    H148361   2.719   5.914   4.292  0.4837 -0.2037 -0.1129
 8982TIP3    H248362   2.677   5.769   4.282 -0.8333  0.1790 -0.2384
 8983TIP3   OH248363   3.644   1.071   5.547  0.6220 -0.3464 -0.5882
 8983TIP3    H148364   3.591   0.995   5.569 -0.0757  0.0320 -0.9068
 8983TIP3    H248365   3.583   1.145   5.552  1.0785  0.0785 -1.1320
 8984TIP3   OH248366   0.663   0.062   0.455  0.3198  0.3214  0.0229
 8984TIP3    H148367   0.591   0.023   0.504  0.1126  0.5251 -0.1181
 8984TIP3    H248368   0.701   0.126   0.516  0.5672  0.0098  0.2010
 8985TIP3   OH248369   3.916   5.078  17.291 -0.1398  0.0774  0.1777
 8985TIP3    H148370   3.996   5.037  17.259  0.7580  1.3589  0.6832
 8985TIP3    H248371   3.907   5.045  17.381 -0.1994 -0.0973  0.1077
 8986TIP3   OH248372   2.963   4.126  17.087 -0.2855  0.3394 -0.2465
 8986TIP3    H148373   2.875   4.164  17.093  0.3930  2.2292 -1.3603
 8986TIP3    H248374   2.988   4.110  17.178 -0.7487  2.3537  0.2870
 8987TIP3   OH248375   1.959   4.631   6.018 -0.2280 -0.1641 -0.6169
 8987TIP3    H148376   2.007   4.605   5.940  0.0886  2.0950 -1.2700
 8987TIP3    H248377   1.878   4.670   5.984  0.3319  1.7045  0.0583
 8988TIP3   OH248378   1.857   2.359   3.156 -0.2475 -0.2968 -0.2252
 8988TIP3    H148379   1.872   2.447   3.121  2.2247  0.5916  2.6225
 8988TIP3    H248380   1.765   2.359   3.183 -0.2721  1.4790 -0.1777
 8989TIP3   OH248381   4.859   1.496  10.454 -0.0656  0.0343  0.1410
 8989TIP3    H148382   4.785   1.484  10.394 -0.1045  0.4393  0.1048
 8989TIP3    H248383   4.935   1.508  10.397  0.3126 -1.9453  0.1704
 8990TIP3   OH248384   5.869   2.878  12.226  0.3538 -0.0202  0.5557
 8990TIP3    H148385   5.900   2.787  12.225 -0.6373 -0.3856 -1.2408
 8990TIP3    H248386   5.908   2.915  12.305 -0.7722 -2.5178  2.4366
 8991TIP3   OH248387   1.382   5.701  12.477 -0.0513 -0.2003 -0.7343
 8991TIP3    H148388   1.361   5.667  12.564  1.3843 -0.8730 -0.6331
 8991TIP3    H248389   1.310   5.761  12.458 -0.8510 -0.6982  0.5394
 8992TIP3   OH248390   0.728   3.321   6.029 -0.4411  0.4947 -0.6041
 8992TIP3    H148391   0.733   3.228   6.050  0.5340  0.6930  0.0686
 8992TIP3    H248392   0.634   3.340   6.029 -0.6047 -0.2419  0.3626
 8993TIP3   OH248393   2.747   0.940  13.400 -0.3171 -0.0342 -0.0084
 8993TIP3    H148394   2.792   0.914  13.481 -0.5869 -0.2698  0.0673
 8993TIP3    H248395   2.718   0.857  13.361 -0.0263  0.0661 -0.4417
 8994TIP3   OH248396   2.667   0.149   1.247 -0.2754  0.1825 -0.1443
 8994TIP3    H148397   2.751   0.111   1.272 -0.3281  0.0458 -0.1741
 8994TIP3    H248398   2.691   0.224   1.192 -0.1851 -0.6646 -1.3021
 8995TIP3   OH248399   6.717   1.838   3.163 -0.7766 -0.5385  0.3087
 8995TIP3    H148400   6.687   1.920   3.122 -0.2721 -0.6597 -0.3206
 8995TIP3    H248401   6.648   1.775   3.145  0.0722 -0.9760 -1.6584
 8996TIP3   OH248402   5.290   4.038  16.501  0.1610 -0.0979  0.0744
 8996TIP3    H148403   5.223   4.055  16.435  1.7409  2.0431 -1.1086
 8996TIP3    H248404   5.347   3.972  16.461 -0.5792 -1.0977  0.6257
 8997TIP3   OH248405   3.475   3.428   6.345  0.1465  0.5257  0.2180
 8997TIP3    H148406   3.426   3.492   6.397  0.1767 -0.4959  1.5599
 8997TIP3    H248407   3.566   3.438   6.375  0.3903  0.8295 -0.5982
 8998TIP3   OH248408   2.628   0.453  14.487  0.0783 -0.6083 -0.0513
 8998TIP3    H148409   2.543   0.473  14.447 -0.5681 -1.7659  0.6709
 8998TIP3    H248410   2.652   0.367  14.451 -0.5185 -1.6828  1.9353
 8999TIP3   OH248411   3.624   2.389  12.422  0.6835  0.2154  0.4413
 8999TIP3    H148412   3.661   2.419  12.505  0.8265 -1.4269  1.0019
 8999TIP3    H248413   3.536   2.358  12.444  1.0384 -1.0583  0.1822
 9000TIP3   OH248414   4.607   5.993   3.945 -0.1752  0.1403  0.4784
 9000TIP3    H148415   4.517   6.017   3.925 -0.7464 -1.7599  0.5519
 9000TIP3    H248416   4.625   5.918   3.889  0.3264 -1.3446  2.5001
 9001TIP3   OH248417   1.352   6.215   0.937  0.8563  0.1786  0.8350
 9001TIP3    H148418   1.376   6.307   0.931  0.6346  0.2544  1.1641
 9001TIP3    H248419   1.359   6.194   1.030  2.6715 -0.5998  0.5634
 9002TIP3   OH248420   3.407   5.106  12.905 -0.2558  0.3368  0.3408
 9002TIP3    H148421   3.438   5.053  12.831 -0.6977 -0.1251  0.4816
 9002TIP3    H248422   3.423   5.052  12.982 -0.2857  0.5972  0.5307
 9003TIP3   OH248423   3.056   0.317  12.964 -0.0393  0.5100  0.1496
 9003TIP3    H148424   3.125   0.336  13.027  1.6829  0.0037 -1.5050
 9003TIP3    H248425   2.992   0.387  12.976  2.2831  2.8807 -0.3882
 9004TIP3   OH248426   4.259   3.355   3.713  0.1960 -0.2137  0.1139
 9004TIP3    H148427   4.330   3.338   3.651 -1.0927  0.5983 -1.6931
 9004TIP3    H248428   4.218   3.270   3.727 -0.5034 -0.1863 -1.5114
 9005TIP3   OH248429   5.708   0.958   4.425 -0.1815  0.1309 -0.2062
 9005TIP3    H148430   5.636   1.003   4.380  0.0701 -0.8660 -1.6822
 9005TIP3    H248431   5.701   0.867   4.397  0.4823 -0.3772  1.1917
 9006TIP3   OH248432   1.039   5.695  17.265  0.1900  0.0041 -0.2661
 9006TIP3    H148433   1.103   5.629  17.238 -0.9905 -0.7794 -1.3681
 9006TIP3    H248434   1.053   5.768  17.204  1.7326  0.9697  1.1821
 9007TIP3   OH248435   5.165   2.745  15.014  0.4151  0.6654  0.3986
 9007TIP3    H148436   5.159   2.793  14.932  1.7680  0.0117 -0.1168
 9007TIP3    H248437   5.076   2.715  15.031  0.2359  0.1405 -1.2621
 9008TIP3   OH248438   5.882   2.099  14.458  0.2052 -0.0062  0.3643
 9008TIP3    H148439   5.929   2.161  14.514  2.3318 -1.8345  0.7678
 9008TIP3    H248440   5.884   2.016  14.507  0.7732 -1.3002 -1.6853
 9009TIP3   OH248441   3.610   4.458  16.485 -0.3386 -0.2930  0.3189
 9009TIP3    H148442   3.609   4.550  16.511  0.9027  0.3575 -1.6747
 9009TIP3    H248443   3.547   4.452  16.414  1.9619 -0.0830 -1.9207
 9010TIP3   OH248444   3.542   3.768   2.125 -0.6673  0.1762 -0.1495
 9010TIP3    H148445   3.589   3.811   2.054 -1.1212  1.5045  0.3211
 9010TIP3    H248446   3.505   3.689   2.085  0.5091 -0.0008 -0.9434
 9011TIP3   OH248447   3.673   6.043  15.625 -0.7342 -0.1224  0.3396
 9011TIP3    H148448   3.675   6.082  15.712  0.8500  1.7544 -0.4602
 9011TIP3    H248449   3.605   6.092  15.579 -0.2657  0.2077 -0.0139
 9012TIP3   OH248450   4.143   6.474   5.610 -0.0986  0.0513 -0.4894
 9012TIP3    H148451   4.158   6.523   5.692 -0.7299  2.2879 -1.6206
 9012TIP3    H248452   4.057   6.433   5.623 -0.4517  0.8415 -0.2032
 9013TIP3   OH248453   1.288   3.425   4.156 -0.0524 -0.5647 -0.0606
 9013TIP3    H148454   1.381   3.446   4.151 -0.4228  1.1983 -0.1619
 9013TIP3    H248455   1.269   3.419   4.250  0.0701 -0.4409 -0.0285
 9014TIP3   OH248456   2.943   4.035   4.758  0.1220 -0.4309  0.6232
 9014TIP3    H148457   2.859   4.070   4.786  0.2581 -0.2259  0.7712
 9014TIP3    H248458   3.004   4.056   4.829  0.1992 -0.9879  0.7283
 9015TIP3   OH248459   1.248   4.286  13.591 -0.3842 -0.0521  0.3640
 9015TIP3    H148460   1.289   4.354  13.538 -1.8512 -1.1098 -2.3206
 9015TIP3    H248461   1.155   4.305  13.588 -0.7372 -1.5848  0.3507
 9016TIP3   OH248462   1.567   0.506   5.349 -0.0956  0.0645  0.2237
 9016TIP3    H148463   1.562   0.584   5.293  0.6780  1.8483  2.4520
 9016TIP3    H248464   1.493   0.516   5.409 -0.5908 -1.5002 -0.1015
 9017TIP3   OH248465   4.783   4.766   2.009  0.0513  0.5452 -0.3245
 9017TIP3    H148466   4.768   4.834   1.943 -1.1239  0.0051 -0.6351
 9017TIP3    H248467   4.747   4.802   2.090 -1.5337 -0.0798 -0.7094
 9018TIP3   OH248468   4.070   4.377   3.826  0.0805  0.6046 -0.9412
 9018TIP3    H148469   4.113   4.413   3.903  0.0815 -0.9707 -0.1749
 9018TIP3    H248470   3.977   4.393   3.840 -0.1487 -1.5414  0.4823
 9019TIP3   OH248471   5.896   5.445   0.998 -0.3351 -0.0977  0.0179
 9019TIP3    H148472   5.875   5.354   0.978 -0.8083  0.4473 -2.2922
 9019TIP3    H248473   5.962   5.470   0.933 -0.5299  1.3231  0.3258
 9020TIP3   OH248474   5.881   1.576  17.253 -0.2815  0.2524 -0.5297
 9020TIP3    H148475   5.911   1.648  17.309 -0.5726  1.1061 -1.4351
 9020TIP3    H248476   5.918   1.497  17.293 -2.6646  0.4752  2.4052
 9021TIP3   OH248477   6.347   5.220   5.498 -0.0915 -0.4510  0.7802
 9021TIP3    H148478   6.352   5.288   5.566  0.4091 -0.4998  0.7953
 9021TIP3    H248479   6.400   5.254   5.426 -0.2979 -0.5784  0.5650
 9022TIP3   OH248480   2.891   0.588  13.395  0.5746  0.2489  0.1746
 9022TIP3    H148481   2.902   0.660  13.457 -1.2770  1.1230 -0.4164
 9022TIP3    H248482   2.914   0.626  13.310 -0.0480  0.0513 -0.0918
 9023TIP3   OH248483   3.758   1.590  12.816  0.6792  0.1678  0.1596
 9023TIP3    H148484   3.791   1.649  12.884 -1.1994 -0.4141  1.6782
 9023TIP3    H248485   3.688   1.639  12.773 -2.1975 -1.3623  2.6636
 9024TIP3   OH248486   0.811   2.935   3.258  0.5711 -0.0234  0.0774
 9024TIP3    H148487   0.738   2.905   3.203  0.5952 -0.5194  0.3174
 9024TIP3    H248488   0.836   3.019   3.219  0.4002 -0.2323 -0.4979
 9025TIP3   OH248489   6.027   3.922  12.769  0.6433 -0.3905  0.0169
 9025TIP3    H148490   6.120   3.922  12.747  0.5915 -1.5216 -0.2705
 9025TIP3    H248491   6.021   3.864  12.845  0.2029 -0.1333  0.1784
 9026TIP3   OH248492   2.736   3.356  15.177  0.4835  0.7962  0.1242
 9026TIP3    H148493   2.655   3.405  15.196 -1.7494 -1.9501 -1.4816
 9026TIP3    H248494   2.750   3.370  15.083  1.1749  0.2443  0.1418
 9027TIP3   OH248495   4.351   2.233  17.265 -0.7289 -0.4137  0.4846
 9027TIP3    H148496   4.309   2.215  17.181 -1.6176 -2.3496  1.2857
 9027TIP3    H248497   4.329   2.158  17.319  0.1778  0.5910  2.3346
 9028TIP3   OH248498   1.297   0.510  17.245  0.2111  0.1508 -0.0127
 9028TIP3    H148499   1.352   0.532  17.169 -0.7696  0.9216 -0.5355
 9028TIP3    H248500   1.274   0.595  17.283 -2.2228  0.0448 -1.0138
 9029TIP3   OH248501   5.067   4.375   1.943 -0.1744 -0.0538  0.2062
 9029TIP3    H148502   5.157   4.405   1.960  0.1444  1.5931 -3.5122
 9029TIP3    H248503   5.070   4.281   1.958  1.4615  0.2612  2.5004
 9030TIP3   OH248504   1.026   0.978   5.827 -0.0098 -0.5381 -0.4881
 9030TIP3    H148505   1.098   0.962   5.888 -0.5108 -0.2675  0.1987
 9030TIP3    H248506   0.978   0.895   5.825 -0.6072 -0.2319  0.3449
 9031TIP3   OH248507   4.633   6.634   3.175  0.0321 -0.6807  0.1088
 9031TIP3    H148508   4.664   6.684   3.099 -0.1116  0.3087  0.6861
 9031TIP3    H248509   4.711   6.619   3.228 -0.2820  0.9717  1.0837
 9032TIP3   OH248510   3.879   0.236   1.394 -0.2290 -0.3732  0.6259
 9032TIP3    H148511   3.959   0.245   1.342  0.6113 -1.7042  1.6515
 9032TIP3    H248512   3.840   0.153   1.365 -1.2561  0.2449  0.1541
 9033TIP3   OH248513   4.737   5.399  15.588  0.2101  0.7249 -0.2319
 9033TIP3    H148514   4.754   5.410  15.495  0.0980 -0.6929 -0.4435
 9033TIP3    H248515   4.648   5.362  15.593 -0.5156  2.4413  0.5499
 9034TIP3   OH248516   1.208   1.135  13.827  0.0030  0.0868 -0.1254
 9034TIP3    H148517   1.290   1.101  13.861 -0.0413  0.5730  0.4872
 9034TIP3    H248518   1.143   1.114  13.895 -0.2301  0.3962 -0.2506
 9035TIP3   OH248519   4.662   5.057  13.405 -0.1961  0.1758  0.3992
 9035TIP3    H148520   4.645   5.061  13.499 -0.9628  0.2060  0.2649
 9035TIP3    H248521   4.629   4.972  13.378  0.3207  0.0293  0.2070
 9036TIP3   OH248522   2.398   3.004  16.414  0.3456  0.5855 -0.0220
 9036TIP3    H148523   2.452   3.056  16.355  0.6237 -2.7064 -3.0391
 9036TIP3    H248524   2.460   2.948  16.461 -0.1264 -0.4679 -0.5956
 9037TIP3   OH248525   1.470   3.785  16.346 -0.1604  0.7216  0.1857
 9037TIP3    H148526   1.521   3.820  16.273 -0.7568  0.1546 -0.5166
 9037TIP3    H248527   1.444   3.863  16.396 -0.7583  1.2305 -0.8845
 9038TIP3   OH248528   0.506   0.233   3.741 -0.0297 -0.1553 -0.1577
 9038TIP3    H148529   0.451   0.166   3.783 -1.2696  0.5303 -0.6347
 9038TIP3    H248530   0.562   0.265   3.812 -1.2111  0.0883  0.7128
 9039TIP3   OH248531   2.443   1.863   2.229  0.5684  0.0789  0.0195
 9039TIP3    H148532   2.453   1.872   2.324  0.6176  0.5539 -0.0268
 9039TIP3    H248533   2.351   1.839   2.217  0.4243  0.5469  0.1589
 9040TIP3   OH248534   3.692   2.818  12.735 -0.8130 -0.2669  0.5889
 9040TIP3    H148535   3.675   2.786  12.823 -0.2767 -2.1906  0.0511
 9040TIP3    H248536   3.755   2.756  12.699 -0.4551  0.9038 -0.8955
 9041TIP3   OH248537   3.751   3.360   4.187 -0.0009 -0.3711 -0.3367
 9041TIP3    H148538   3.773   3.360   4.280 -0.0547  3.5835 -0.1381
 9041TIP3    H248539   3.831   3.392   4.144 -0.7334  0.1679 -1.3328
 9042TIP3   OH248540   0.126   0.987   2.540 -0.1784  0.3288  0.2946
 9042TIP3    H148541   0.166   0.969   2.455  0.1168  2.8585 -0.1687
 9042TIP3    H248542   0.039   0.948   2.535 -1.2251  2.6873 -2.2554
 9043TIP3   OH248543   3.817   2.078   5.081 -0.4334  0.5153 -0.4799
 9043TIP3    H148544   3.804   2.087   4.987 -2.9789  0.6614 -0.1779
 9043TIP3    H248545   3.774   1.996   5.104 -0.9820  1.1173  0.7227
 9044TIP3   OH248546   1.711   1.971  14.763  0.1294 -0.0766 -0.1570
 9044TIP3    H148547   1.767   1.955  14.839  2.5482  0.3175 -1.7255
 9044TIP3    H248548   1.640   1.908  14.772 -0.3612  0.7269  2.9820
 9045TIP3   OH248549   6.254   5.908  15.420 -0.2500 -0.3191  0.1082
 9045TIP3    H148550   6.167   5.929  15.454 -0.0394  0.4301  0.1926
 9045TIP3    H248551   6.239   5.875  15.332 -0.7655 -1.8269  0.7184
 9046TIP3   OH248552   4.752   3.447  16.282  0.0272 -0.1433  0.2235
 9046TIP3    H148553   4.719   3.537  16.291  0.0148 -0.0760 -0.4382
 9046TIP3    H248554   4.721   3.419  16.196  0.4570 -0.6046  0.2165
 9047TIP3   OH248555   2.343   0.280  13.370 -0.6303  0.1720  0.1159
 9047TIP3    H148556   2.318   0.365  13.333 -3.1098  0.9687  3.1027
 9047TIP3    H248557   2.416   0.300  13.429  0.1931 -0.2028 -0.7609
 9048TIP3   OH248558   0.773   5.570  10.727  0.1754  0.1406 -0.4537
 9048TIP3    H148559   0.862   5.536  10.715 -0.0461 -0.1428 -1.3533
 9048TIP3    H248560   0.716   5.499  10.699 -0.4329 -0.6451  2.4793
 9049TIP3   OH248561   1.001   3.436  10.579  0.4184 -0.2728  0.1938
 9049TIP3    H148562   0.973   3.350  10.547 -1.3899  0.8687 -1.5467
 9049TIP3    H248563   0.926   3.493  10.562  2.1294  1.9877 -0.2188
 9050TIP3   OH248564   1.919   3.968   0.320  0.1485  1.0803  0.5134
 9050TIP3    H148565   1.874   4.025   0.258  2.4783  0.3145 -2.0898
 9050TIP3    H248566   2.007   4.004   0.327  1.4136 -1.5632 -0.4945
 9051TIP3   OH248567   0.976   5.405  13.422  0.7057  0.2939 -0.2384
 9051TIP3    H148568   0.973   5.471  13.352  0.4279  0.2124 -0.3050
 9051TIP3    H248569   0.969   5.455  13.503  3.2082  0.6157 -0.1302
 9052TIP3   OH248570   4.581   5.381   5.977 -0.0763 -0.4878  0.1017
 9052TIP3    H148571   4.589   5.375   6.072  1.7759 -1.5469 -0.0709
 9052TIP3    H248572   4.591   5.475   5.958  1.4847 -0.4691  0.8396
 9053TIP3   OH248573   5.451   5.450   6.137  0.3800  0.8588  0.2399
 9053TIP3    H148574   5.368   5.402   6.130  0.3144  0.9581  0.3452
 9053TIP3    H248575   5.517   5.386   6.110  0.4591  0.2267  1.8219
 9054TIP3   OH248576   1.283   4.676  13.223  0.0228 -0.3662 -0.0477
 9054TIP3    H148577   1.255   4.679  13.315 -1.4199 -1.7714 -0.3859
 9054TIP3    H248578   1.376   4.657  13.227  0.7329  2.8657  1.1261
 9055TIP3   OH248579   1.507   5.986  13.760 -0.1154 -0.1917 -0.1951
 9055TIP3    H148580   1.572   5.978  13.690 -0.8288  0.3124 -0.9368
 9055TIP3    H248581   1.461   5.902  13.759  0.1948 -0.3661  0.0014
 9056TIP3   OH248582   5.114   4.542   5.888 -0.2742  0.4265  0.1048
 9056TIP3    H148583   5.139   4.528   5.797 -3.1488 -1.3966 -0.5512
 9056TIP3    H248584   5.176   4.489   5.939  0.3173  0.0945 -0.9404
 9057TIP3   OH248585   6.250   3.829  11.387 -0.3821 -0.0459 -0.1552
 9057TIP3    H148586   6.208   3.797  11.467  0.5446 -2.7939 -0.6666
 9057TIP3    H248587   6.283   3.750  11.344  0.1329  1.4528 -2.7117
 9058TIP3   OH248588   2.575   5.584  13.546 -0.0419 -0.0958  0.0786
 9058TIP3    H148589   2.496   5.630  13.517  0.1173 -0.0319 -0.2571
 9058TIP3    H248590   2.563   5.574  13.640 -1.4619 -2.0119 -0.2472
 9059TIP3   OH248591   3.387   5.927  14.894  0.3477 -0.3214 -0.3789
 9059TIP3    H148592   3.316   5.869  14.869  0.1012  0.4730 -1.5842
 9059TIP3    H248593   3.370   6.008  14.847  1.8878 -0.0133 -0.4678
 9060TIP3   OH248594   1.298   6.403  14.952  0.3080  0.4098  0.0040
 9060TIP3    H148595   1.379   6.352  14.948  0.2068  0.1822  0.6428
 9060TIP3    H248596   1.257   6.391  14.866 -0.8262 -2.4697  0.8197
 9061TIP3   OH248597   5.179   0.757   1.302 -0.4693 -0.0452  0.2931
 9061TIP3    H148598   5.238   0.810   1.248  0.0283 -0.7124  0.1708
 9061TIP3    H248599   5.156   0.814   1.375  0.3320  0.2369  0.3414
 9062TIP3   OH248600   1.665   5.761   3.587 -0.3555 -0.2290  0.0729
 9062TIP3    H148601   1.592   5.773   3.527  0.9071  0.0513 -1.4574
 9062TIP3    H248602   1.660   5.836   3.646 -1.7267 -0.6151  0.4776
 9063TIP3   OH248603   4.665   5.332  11.810 -0.6497  0.0645  0.0686
 9063TIP3    H148604   4.617   5.408  11.778  1.5967  1.5827  0.1063
 9063TIP3    H248605   4.735   5.368  11.864  1.4525 -1.8925 -1.1514
 9064TIP3   OH248606   0.210   2.501   0.807 -0.1990  0.1415 -0.5112
 9064TIP3    H148607   0.121   2.511   0.773 -0.5949 -0.8927  0.1827
 9064TIP3    H248608   0.249   2.433   0.752 -0.2610 -0.2916 -0.0260
 9065TIP3   OH248609   0.290   0.862   2.356 -0.0357  0.2054 -0.4564
 9065TIP3    H148610   0.381   0.866   2.325 -0.3267  0.1475 -1.3522
 9065TIP3    H248611   0.264   0.771   2.341  0.3028 -0.2284  1.4374
 9066TIP3   OH248612   3.265   6.482  16.972  0.2550 -0.1409 -0.1172
 9066TIP3    H148613   3.333   6.534  16.929  1.7306 -0.6086  1.5468
 9066TIP3    H248614   3.312   6.412  17.016 -1.5120 -1.6948 -0.5390
 9067TIP3   OH248615   3.421   0.987  16.829 -0.2347 -0.1345 -0.0543
 9067TIP3    H148616   3.453   1.077  16.819  2.4063 -0.9506  0.3515
 9067TIP3    H248617   3.350   0.994  16.894 -0.9282  1.7782 -0.9413
 9068TIP3   OH248618   0.663   2.009  16.477 -0.2654 -0.2395 -0.7270
 9068TIP3    H148619   0.619   2.080  16.524 -2.3799 -1.6463 -0.4694
 9068TIP3    H248620   0.647   2.028  16.385  1.1716  0.8050 -0.8044
 9069TIP3   OH248621   1.316   4.687   3.550 -0.1472  0.1051  0.0590
 9069TIP3    H148622   1.366   4.753   3.502  0.2238  0.1111  0.4506
 9069TIP3    H248623   1.381   4.621   3.574 -0.5967 -0.6632 -0.7562
 9070TIP3   OH248624   3.294   2.152   5.666  0.0812  0.3329 -0.3917
 9070TIP3    H148625   3.329   2.205   5.595 -0.9540  1.0508 -0.3882
 9070TIP3    H248626   3.343   2.070   5.661  1.7002  1.2506 -0.4198
 9071TIP3   OH248627   1.694   0.721  10.941  0.2361  0.6424  0.1086
 9071TIP3    H148628   1.643   0.733  10.861  1.7068 -1.7433 -1.3166
 9071TIP3    H248629   1.631   0.690  11.006 -0.2455 -2.6807 -1.7261
 9072TIP3   OH248630   1.181   5.918  15.166  0.2828  0.0022  0.0630
 9072TIP3    H148631   1.193   5.957  15.079 -0.7114 -0.4063 -0.2773
 9072TIP3    H248632   1.203   5.826  15.154  0.4584  0.0093  0.3280
 9073TIP3   OH248633   5.921   4.578   0.144  0.1631 -0.1348  0.4601
 9073TIP3    H148634   5.958   4.664   0.125  0.3542 -0.1187  0.8982
 9073TIP3    H248635   5.830   4.584   0.114  0.7028 -0.4227 -1.3230
 9074TIP3   OH248636   3.111   0.713  15.369  0.1424  0.2079 -0.4173
 9074TIP3    H148637   3.035   0.658  15.390 -0.4153  1.2412  0.3569
 9074TIP3    H248638   3.104   0.727  15.275  0.0383 -0.6505 -0.5535
 9075TIP3   OH248639   3.384   4.550  17.105  0.1053 -0.9629  0.3642
 9075TIP3    H148640   3.342   4.466  17.088 -3.3660  0.9658 -1.8713
 9075TIP3    H248641   3.326   4.595  17.166  0.4915  0.7354 -0.4552
 9076TIP3   OH248642   1.000   6.381   4.179  0.4497  0.0084  0.1447
 9076TIP3    H148643   0.953   6.397   4.097  0.3008 -0.7453  0.0748
 9076TIP3    H248644   1.045   6.464   4.197  1.6773 -0.2400 -1.4787
 9077TIP3   OH248645   0.727   3.261   1.601 -0.2774  0.0622 -0.3690
 9077TIP3    H148646   0.683   3.347   1.602  0.4964  0.4791 -0.9227
 9077TIP3    H248647   0.764   3.252   1.689 -2.4879 -0.8610  0.5293
 9078TIP3   OH248648   4.115   3.511  11.399  0.0252 -0.7459  0.4929
 9078TIP3    H148649   4.140   3.602  11.417  1.6896 -0.7650 -1.3617
 9078TIP3    H248650   4.199   3.467  11.384 -0.6833 -2.8247  2.1813
 9079TIP3   OH248651   5.443   4.355  12.253  0.3321  0.3304 -0.3197
 9079TIP3    H148652   5.436   4.295  12.328 -0.8401  0.3523 -0.3826
 9079TIP3    H248653   5.384   4.427  12.275  0.1101  0.4228 -1.1741
 9080TIP3   OH248654   0.537   1.714  14.380  0.2036 -0.0588 -0.1933
 9080TIP3    H148655   0.463   1.758  14.422  0.7550  0.5029  0.2273
 9080TIP3    H248656   0.503   1.685  14.296 -0.4775  0.2520 -0.0359
 9081TIP3   OH248657   2.718   5.145   6.517  0.3158 -0.1669  0.0032
 9081TIP3    H148658   2.716   5.234   6.552  0.4092  0.3166 -1.1477
 9081TIP3    H248659   2.641   5.102   6.554  0.8957  0.0231  1.4723
 9082TIP3   OH248660   1.659   2.826  13.451 -0.5913  0.1258  0.5746
 9082TIP3    H148661   1.706   2.850  13.371  0.3342  0.1684  1.1189
 9082TIP3    H248662   1.728   2.804  13.513 -1.3314 -1.4704  0.8802
 9083TIP3   OH248663   4.049   1.661  16.897  0.5483  0.0601  0.2666
 9083TIP3    H148664   4.091   1.746  16.909  0.1760  0.6083 -1.9076
 9083TIP3    H248665   3.957   1.683  16.878  0.7896 -0.6723 -2.0161
 9084TIP3   OH248666   0.893   3.155  15.267  0.1094 -0.4608  0.0528
 9084TIP3    H148667   0.963   3.094  15.292 -0.2922 -0.8212  0.3040
 9084TIP3    H248668   0.901   3.163  15.172  0.1931 -0.8732  0.0222
 9085TIP3   OH248669   0.607   0.156   0.014  0.0812  0.0816  0.7735
 9085TIP3    H148670   0.545   0.219   0.051  0.7283  1.3626 -0.2229
 9085TIP3    H248671   0.560   0.115  -0.058  0.4098  1.1795 -0.0946
 9086TIP3   OH248672   0.552   6.539  13.143  0.2796  0.3035 -0.2704
 9086TIP3    H148673   0.635   6.556  13.099  0.0477 -0.7222 -1.1385
 9086TIP3    H248674   0.562   6.450  13.177 -0.7246 -0.1049 -1.0127
 9087TIP3   OH248675   4.376   0.320  12.144  0.5948  0.2106  0.2977
 9087TIP3    H148676   4.357   0.235  12.104  0.0389  0.3550  0.2450
 9087TIP3    H248677   4.432   0.300  12.219  0.2445 -0.2286  0.4406
 9088TIP3   OH248678   5.072   5.084  13.179 -0.6683  0.0137 -0.2380
 9088TIP3    H148679   5.165   5.096  13.165 -0.6644  0.1668 -0.0753
 9088TIP3    H248680   5.032   5.110  13.096 -0.5540 -0.2224 -0.3674
 9089TIP3   OH248681   3.978   1.672  12.242 -0.2471 -0.6365 -0.3044
 9089TIP3    H148682   3.894   1.626  12.243  0.4675 -2.0824  2.1892
 9089TIP3    H248683   3.955   1.764  12.257 -1.4652 -0.7112 -1.5552
 9090TIP3   OH248684   3.796   0.615  15.125 -0.4164 -0.0847 -0.4094
 9090TIP3    H148685   3.741   0.591  15.051 -0.4070 -1.0568 -0.1256
 9090TIP3    H248686   3.838   0.533  15.150 -0.3094  0.2602  0.5765
 9091TIP3   OH248687   4.501   1.465   3.112  0.0890 -0.4100  0.0492
 9091TIP3    H148688   4.413   1.484   3.079  0.1997 -2.1956 -1.4544
 9091TIP3    H248689   4.490   1.453   3.206 -1.2118 -0.3070 -0.0798
 9092TIP3   OH248690   4.161   2.951  13.918 -0.1265 -0.4266 -0.2344
 9092TIP3    H148691   4.206   3.031  13.945 -1.9718  0.5852  0.0404
 9092TIP3    H248692   4.163   2.895  13.995  1.1614 -0.6659 -0.4223
 9093TIP3   OH248693   4.589   1.487  13.949 -0.1069 -0.0914 -0.4650
 9093TIP3    H148694   4.617   1.503  13.859  0.4735  0.8760 -0.1320
 9093TIP3    H248695   4.493   1.494  13.945 -0.0620  0.3661 -0.9379
 9094TIP3   OH248696   0.335   3.698  15.039  0.3813 -0.3919 -0.1602
 9094TIP3    H148697   0.378   3.739  15.114  1.2190  0.0976 -0.8841
 9094TIP3    H248698   0.338   3.765  14.970  0.0036 -0.9773 -0.7559
 9095TIP3   OH248699   2.170   4.859  12.768 -0.8033 -0.4312 -0.1795
 9095TIP3    H148700   2.201   4.779  12.810 -2.0853 -0.8559  0.0017
 9095TIP3    H248701   2.198   4.929  12.827 -0.0181 -0.7672 -0.1382
 9096TIP3   OH248702   3.135   2.470  12.104 -0.2154  0.2109  0.4694
 9096TIP3    H148703   3.172   2.395  12.057 -0.5700 -0.3271  1.0332
 9096TIP3    H248704   3.105   2.528  12.034 -0.3691 -0.3890  0.0171
 9097TIP3   OH248705   5.883   1.224   1.534 -0.2118 -0.1216  0.6001
 9097TIP3    H148706   5.792   1.235   1.561  0.2620 -0.0077  2.2719
 9097TIP3    H248707   5.881   1.225   1.439 -1.7673  1.4602  0.6157
 9098TIP3   OH248708   3.283   4.961  11.683  0.3154  0.2384  0.1440
 9098TIP3    H148709   3.305   4.993  11.596 -1.1161  0.0253 -0.3106
 9098TIP3    H248710   3.366   4.928  11.717  0.9850  0.7227 -0.9539
 9099TIP3   OH248711   1.677   2.668  16.980 -0.3420  0.2313 -0.2794
 9099TIP3    H148712   1.693   2.758  16.951 -3.1208  1.5833  1.9631
 9099TIP3    H248713   1.611   2.635  16.919 -0.1845  0.1255 -0.3926
 9100TIP3   OH248714   1.041   4.070   3.003  0.1479 -0.1665 -0.0512
 9100TIP3    H148715   1.058   3.987   3.048 -3.7026 -0.3774  1.4297
 9100TIP3    H248716   0.973   4.049   2.939  0.9132  1.4160 -1.4636
 9101TIP3   OH248717   0.068   4.640   4.651 -0.1809 -0.0791  0.0925
 9101TIP3    H148718   0.024   4.709   4.601  0.3383  0.2385  0.0647
 9101TIP3    H248719   0.110   4.687   4.723  1.3088 -0.1804 -0.6783
 9102TIP3   OH248720   4.149   0.685  17.296  0.3109 -0.5012 -0.3022
 9102TIP3    H148721   4.057   0.671  17.274  0.7079 -0.8420 -1.8914
 9102TIP3    H248722   4.159   0.780  17.300 -0.2680 -0.4684  0.6801
 9103TIP3   OH248723   5.311   2.702  11.922  0.2512 -0.0452  0.9891
 9103TIP3    H148724   5.233   2.651  11.943 -0.2705  0.7961  1.1111
 9103TIP3    H248725   5.367   2.640  11.874  0.0050 -0.9819  1.8694
 9104TIP3   OH248726   1.733   5.062   2.371  0.2091 -0.0144 -0.2787
 9104TIP3    H148727   1.756   5.152   2.348 -0.2704  0.0428 -0.5410
 9104TIP3    H248728   1.672   5.034   2.303 -1.2943  0.1816  0.9365
 9105TIP3   OH248729   0.214   0.437  13.251 -0.4282  0.0753 -0.3327
 9105TIP3    H148730   0.263   0.366  13.293 -0.6826  0.5779  0.8274
 9105TIP3    H248731   0.170   0.483  13.322 -1.0026  0.8562 -1.1582
 9106TIP3   OH248732   3.892   5.088  16.332  0.2972  0.0342 -0.3116
 9106TIP3    H148733   3.880   5.027  16.259 -0.1978  0.4353 -0.5769
 9106TIP3    H248734   3.984   5.114  16.326 -0.1857  1.6037 -2.0711
 9107TIP3   OH248735   0.944   2.226  15.068  0.1843  0.1984 -0.5304
 9107TIP3    H148736   0.910   2.146  15.029  0.5332  0.1644 -0.7721
 9107TIP3    H248737   0.926   2.294  15.003 -0.4836  0.3971 -0.1508
 9108TIP3   OH248738   0.668   3.260   0.680 -0.2139 -0.3404 -0.0107
 9108TIP3    H148739   0.705   3.236   0.765 -1.0744 -1.2227  0.1327
 9108TIP3    H248740   0.725   3.330   0.648  0.0129  0.1365  1.3746
 9109TIP3   OH248741   1.570   4.621  11.250 -0.5467 -0.5680  0.0016
 9109TIP3    H148742   1.603   4.691  11.306 -0.2179 -1.4048  0.8844
 9109TIP3    H248743   1.636   4.612  11.182  1.0365 -2.0813  1.6317
 9110TIP3   OH248744   0.563   3.588   1.082  0.0603 -0.1956  0.5842
 9110TIP3    H148745   0.548   3.493   1.081  0.7236 -0.3006 -0.2052
 9110TIP3    H248746   0.535   3.617   0.995 -1.1312  0.5021  1.1828
 9111TIP3   OH248747   0.637   0.149  13.289 -0.0190 -0.2043  0.3067
 9111TIP3    H148748   0.655   0.093  13.214 -2.1330 -0.3429 -0.1765
 9111TIP3    H248749   0.708   0.131  13.350  1.8430  0.0282 -1.6883
 9112TIP3   OH248750   4.779   2.922   3.353  0.1173  0.3221  0.1563
 9112TIP3    H148751   4.728   2.942   3.431  0.0081 -2.8215  1.0511
 9112TIP3    H248752   4.863   2.964   3.368  0.3555 -0.7701  2.4056
 9113TIP3   OH248753   2.566   6.201  12.209 -0.3226  0.7991 -0.1451
 9113TIP3    H148754   2.483   6.225  12.168  0.3349 -0.5737 -2.4365
 9113TIP3    H248755   2.628   6.268  12.178 -0.6145  2.1989  2.0691
 9114TIP3   OH248756   2.342   5.187   1.935 -0.0922  0.3073  0.1090
 9114TIP3    H148757   2.313   5.119   1.996 -2.4242  0.3913 -0.7882
 9114TIP3    H248758   2.349   5.266   1.988 -1.8123  0.3176  0.3751
 9115TIP3   OH248759   5.501   3.106  12.089 -0.4349 -0.4390  0.1560
 9115TIP3    H148760   5.428   3.165  12.108 -0.1608  0.0018 -0.1477
 9115TIP3    H248761   5.562   3.119  12.162 -0.5109 -0.5680  0.2427
 9116TIP3   OH248762   4.778   2.081  14.183  0.5099 -0.2986 -0.0747
 9116TIP3    H148763   4.822   1.999  14.207 -1.0089 -0.6292  1.7816
 9116TIP3    H248764   4.726   2.104  14.259 -1.3066  0.8997 -1.5865
 9117TIP3   OH248765   4.176   5.465   5.373 -0.3021  0.5613  0.8483
 9117TIP3    H148766   4.080   5.461   5.371 -0.2780  0.2998 -0.0429
 9117TIP3    H248767   4.195   5.541   5.428 -0.9909 -0.1532  2.1222
 9118TIP3   OH248768   4.307   3.559   3.308  0.4746  0.2397  0.5826
 9118TIP3    H148769   4.235   3.549   3.370  0.0270  0.1422  0.0520
 9118TIP3    H248770   4.304   3.479   3.255  1.8538 -0.4353  1.4521
 9119TIP3   OH248771   3.566   0.699   2.891 -0.0283 -0.3610  0.8752
 9119TIP3    H148772   3.516   0.780   2.894 -1.6470 -1.2503 -0.5486
 9119TIP3    H248773   3.547   0.661   2.805  0.5961 -2.2857  1.5190
 9120TIP3   OH248774   1.218   4.830  16.941 -0.4172 -0.0421 -0.2063
 9120TIP3    H148775   1.174   4.757  16.897  1.4758 -0.3797 -1.7058
 9120TIP3    H248776   1.216   4.901  16.876 -1.2091  0.9008  0.7978
 9121TIP3   OH248777   6.687   5.471   4.310  0.5673 -0.5534 -0.2024
 9121TIP3    H148778   6.781   5.490   4.304  0.8232 -1.8106 -0.6571
 9121TIP3    H248779   6.677   5.390   4.260 -0.4638 -1.3856  1.2715
 9122TIP3   OH248780   1.354   1.218   0.800  0.5416 -0.0518  0.4315
 9122TIP3    H148781   1.263   1.224   0.831  0.0001  0.4582 -1.1511
 9122TIP3    H248782   1.387   1.308   0.806 -1.2041  1.2678 -4.9158
 9123TIP3   OH248783   0.423   6.209   2.285  0.3304 -0.5630  0.2269
 9123TIP3    H148784   0.500   6.173   2.241  1.0632  0.2963  0.7783
 9123TIP3    H248785   0.413   6.297   2.249  2.3428  1.0867  3.2953
 9124TIP3   OH248786   2.129   6.381  15.043 -0.1897 -0.9527 -0.1547
 9124TIP3    H148787   2.133   6.357  14.950 -2.8999 -1.2510 -0.2788
 9124TIP3    H248788   2.068   6.455  15.045  1.5631  0.5188  1.1813
 9125TIP3   OH248789   3.257   4.348  12.557 -0.1561 -0.2481 -0.3228
 9125TIP3    H148790   3.230   4.276  12.614  0.3689 -1.2410 -1.2871
 9125TIP3    H248791   3.254   4.311  12.469  1.6129  0.4445 -0.7189
 9126TIP3   OH248792   2.545   6.574  17.066 -0.6337 -0.2832 -0.0599
 9126TIP3    H148793   2.568   6.500  17.123 -1.4552  0.8470  1.8482
 9126TIP3    H248794   2.628   6.603  17.029  0.2196 -0.0600  1.8866
 9127TIP3   OH248795   5.265   2.203   1.155  0.2026 -0.1786 -0.2034
 9127TIP3    H148796   5.326   2.194   1.081  1.5050 -1.8344  0.9936
 9127TIP3    H248797   5.316   2.247   1.223 -1.0642  1.5763 -0.3190
 9128TIP3   OH248798   6.555   1.851  16.423 -0.0259  0.5846 -0.2855
 9128TIP3    H148799   6.623   1.797  16.384 -1.2663 -1.4131  0.1648
 9128TIP3    H248800   6.602   1.908  16.484  1.4011  0.4921 -1.2449
 9129TIP3   OH248801   1.468   4.504   4.417  0.5497 -0.6110  0.2654
 9129TIP3    H148802   1.558   4.534   4.429  0.4825 -0.4867  0.4627
 9129TIP3    H248803   1.428   4.513   4.503  0.2657 -0.3892  0.1113
 9130TIP3   OH248804   0.431   2.287   0.374 -0.2454  0.2254  0.2942
 9130TIP3    H148805   0.526   2.287   0.375 -0.2448 -0.2448  0.5968
 9130TIP3    H248806   0.407   2.345   0.302  0.2734  0.0862  0.0091
 9131TIP3   OH248807   1.741   1.287   5.306 -0.2790  0.6937 -0.5314
 9131TIP3    H148808   1.673   1.327   5.252 -0.6021  3.0530  1.4560
 9131TIP3    H248809   1.703   1.204   5.334 -1.7636  1.3079 -0.6407
 9132TIP3   OH248810   5.830   6.392  12.649  1.1605 -0.3833  0.4783
 9132TIP3    H148811   5.903   6.453  12.640  1.6954 -0.9213  1.1158
 9132TIP3    H248812   5.757   6.447  12.678  1.3021  0.1504 -0.1391
 9133TIP3   OH248813   2.713   4.589   2.426 -0.1617  0.1562 -0.3272
 9133TIP3    H148814   2.710   4.614   2.334 -2.3968  0.9478 -0.0992
 9133TIP3    H248815   2.772   4.514   2.428  2.5888  2.1130 -1.8384
 9134TIP3   OH248816   0.548   4.604  15.095 -0.4884  0.4773 -0.0519
 9134TIP3    H148817   0.602   4.638  15.024  0.7948 -0.5681  0.3715
 9134TIP3    H248818   0.505   4.527  15.057  0.6822 -0.4516  0.4347
 9135TIP3   OH248819   5.768   5.120  15.091 -0.4740  0.0423  0.0376
 9135TIP3    H148820   5.735   5.091  15.176 -2.4000 -0.0196 -0.6696
 9135TIP3    H248821   5.775   5.216  15.100 -0.7341  0.0428  0.2473
 9136TIP3   OH248822   0.982   5.338   3.435 -0.7888 -0.0414  0.0729
 9136TIP3    H148823   0.986   5.243   3.446 -0.8340 -0.1465 -0.8062
 9136TIP3    H248824   1.054   5.371   3.489 -2.0920 -0.4016  2.1399
 9137TIP3   OH248825   3.843   0.912  13.575 -0.1225  0.7375 -0.1959
 9137TIP3    H148826   3.748   0.910  13.588  0.0334  1.6135  1.4196
 9137TIP3    H248827   3.877   0.853  13.642  0.4720  0.0634 -1.0709
 9138TIP3   OH248828   3.090   3.443   5.171  0.1858  0.1219 -0.0048
 9138TIP3    H148829   3.072   3.411   5.083 -0.8912 -0.2228  0.3225
 9138TIP3    H248830   3.058   3.534   5.170 -2.5672 -0.7322  0.8110
 9139TIP3   OH248831   4.316   2.428  10.741  0.3052  0.3634 -0.0302
 9139TIP3    H148832   4.399   2.383  10.729  0.1826  0.5572 -1.8540
 9139TIP3    H248833   4.322   2.506  10.686 -1.7417 -0.5726 -1.7389
 9140TIP3   OH248834   4.995   2.267  12.520 -0.3636 -0.1981  0.3291
 9140TIP3    H148835   5.055   2.293  12.590  0.4131 -0.6031 -0.1635
 9140TIP3    H248836   4.955   2.186  12.551  0.7963 -0.9723 -0.1322
 9141TIP3   OH248837   4.253   2.621  14.102  0.2064  0.2791  1.0397
 9141TIP3    H148838   4.185   2.557  14.080 -0.7427  1.8221 -0.8617
 9141TIP3    H248839   4.279   2.598  14.191 -1.1203 -1.8235  0.9660
 9142TIP3   OH248840   2.510   1.344   4.182  0.2428 -0.1058  0.0016
 9142TIP3    H148841   2.539   1.267   4.231 -1.5665 -0.8290  0.0512
 9142TIP3    H248842   2.420   1.323   4.157  0.8329  0.5295 -3.0220
 9143TIP3   OH248843   3.573   3.924   5.318 -0.2778 -0.3103  0.1413
 9143TIP3    H148844   3.491   3.920   5.367 -1.2122  0.4075 -1.3015
 9143TIP3    H248845   3.641   3.919   5.386 -1.4959 -0.5173  1.4048
 9144TIP3   OH248846   3.762   2.539   2.290 -0.6001 -0.1600  0.1234
 9144TIP3    H148847   3.707   2.604   2.245 -0.9075  0.0521  0.7951
 9144TIP3    H248848   3.700   2.471   2.319 -0.2561 -0.8749 -0.7576
 9145TIP3   OH248849   4.392   1.531  12.076  0.2102  0.0166 -0.1185
 9145TIP3    H148850   4.427   1.443  12.082 -0.7509 -0.4099 -0.5615
 9145TIP3    H248851   4.453   1.578  12.019  0.6257 -0.4101 -0.0269
 9146TIP3   OH248852   1.760   1.880  15.437 -0.0473 -0.5559  0.1843
 9146TIP3    H148853   1.694   1.863  15.370 -0.0510  1.5835 -0.4508
 9146TIP3    H248854   1.728   1.958  15.483  2.2691  0.9742 -0.5951
 9147TIP3   OH248855   0.595   2.541   1.425 -0.5404  0.1869 -0.2181
 9147TIP3    H148856   0.549   2.588   1.495  1.2452  0.2346  0.9885
 9147TIP3    H248857   0.553   2.455   1.423 -0.7080  0.2262  0.8565
 9148TIP3   OH248858   6.286   6.375   2.521  0.4775 -0.1082 -0.2842
 9148TIP3    H148859   6.337   6.449   2.489  0.2954  0.3100  0.3615
 9148TIP3    H248860   6.238   6.410   2.596  0.8519 -1.0318  0.4100
 9149TIP3   OH248861   2.913   1.951  15.982  0.3905  0.3072 -0.5003
 9149TIP3    H148862   2.970   2.011  15.934  1.4544 -0.4110 -0.1571
 9149TIP3    H248863   2.836   1.941  15.925  0.7126  1.0777 -1.0898
 9150TIP3   OH248864   2.838   5.507   2.559 -0.3238  0.2329 -0.3935
 9150TIP3    H148865   2.823   5.444   2.487  1.2210 -1.0584  0.3538
 9150TIP3    H248866   2.778   5.478   2.628  0.7945 -0.8347  0.1653
 9151TIP3   OH248867   0.017   6.045  14.385  0.1277  0.2639 -0.4241
 9151TIP3    H148868  -0.067   6.061  14.343 -1.0605 -0.3563  1.5689
 9151TIP3    H248869   0.022   6.112  14.454  1.8129  1.0062 -1.2248
 9152TIP3   OH248870   6.410   5.592   5.842  0.1324  0.6134  0.2717
 9152TIP3    H148871   6.447   5.516   5.797 -0.5007  1.3798 -1.6327
 9152TIP3    H248872   6.315   5.577   5.841  0.0668  0.9651  0.7718
 9153TIP3   OH248873   2.318   6.221  13.669  1.0184  0.0499  0.1125
 9153TIP3    H148874   2.252   6.288  13.650  0.0588 -0.9603 -0.2280
 9153TIP3    H248875   2.362   6.253  13.748 -0.6784  0.2015  1.0555
 9154TIP3   OH248876   0.765   4.694   4.999  0.2763  0.1186 -0.1788
 9154TIP3    H148877   0.749   4.600   5.001  0.1783  0.0998 -1.3244
 9154TIP3    H248878   0.719   4.725   4.920  3.2880  0.5307 -1.9287
 9155TIP3   OH248879   5.929   1.034  12.312 -0.0725 -0.1842  0.4284
 9155TIP3    H148880   6.002   1.061  12.255  0.0157  0.8816  1.0186
 9155TIP3    H248881   5.888   0.961  12.265  1.3301 -0.7634  0.0604
 9156TIP3   OH248882   0.795   6.354   5.030  0.4476 -0.4336 -0.2816
 9156TIP3    H148883   0.813   6.353   5.124  0.4846 -1.7128 -0.2824
 9156TIP3    H248884   0.852   6.285   4.995  1.3538  0.8530 -1.4256
 9157TIP3   OH248885   4.521   2.705  15.340  0.6626  0.2760 -0.1066
 9157TIP3    H148886   4.602   2.655  15.326  1.3062  1.5103 -0.9446
 9157TIP3    H248887   4.544   2.795  15.317 -0.9526  0.6528 -0.3571
 9158TIP3   OH248888   5.326   1.014  13.556  0.4413 -0.3232  0.5599
 9158TIP3    H148889   5.299   1.039  13.468 -0.0917  1.2916  1.1533
 9158TIP3    H248890   5.265   1.060  13.614  1.9670  0.2054  1.8141
 9159TIP3   OH248891   6.285   4.773  16.681 -0.2692 -0.2113  0.2127
 9159TIP3    H148892   6.235   4.844  16.642 -0.9341 -0.2944  0.8873
 9159TIP3    H248893   6.319   4.723  16.606 -0.1183  0.5863 -0.2522
 9160TIP3   OH248894   1.319   1.926  16.925  0.0440 -0.2642  0.3375
 9160TIP3    H148895   1.276   1.960  17.003  1.7076  0.2416  1.1003
 9160TIP3    H248896   1.281   1.976  16.852  0.4992  1.3364  1.1530
 9161TIP3   OH248897   0.123   2.879  13.088  0.6185 -0.4553  0.2348
 9161TIP3    H148898   0.044   2.849  13.133  0.9261 -0.2596  0.9201
 9161TIP3    H248899   0.189   2.813  13.108  1.1763  0.4167  1.3714
 9162TIP3   OH248900   1.056   6.061   5.082  0.5021 -0.3693 -0.0780
 9162TIP3    H148901   1.049   6.085   4.989 -0.4703  0.7325  0.2463
 9162TIP3    H248902   0.965   6.048   5.109  0.8572 -1.9262  0.4290
 9163TIP3   OH248903   2.165   4.515   4.491  0.3442 -0.2901 -0.5125
 9163TIP3    H148904   2.098   4.467   4.540 -0.3900  1.0316 -0.1832
 9163TIP3    H248905   2.200   4.578   4.554  1.9223 -0.9510 -0.6794
 9164TIP3   OH248906   4.041   4.509  12.113 -0.1725 -0.5323  0.5102
 9164TIP3    H148907   3.983   4.451  12.064  0.5922 -1.2653  0.4416
 9164TIP3    H248908   3.994   4.592  12.118 -1.3595 -1.1963  0.7332
 9165TIP3   OH248909   6.522   2.510  16.008  0.3678  0.4500  0.3085
 9165TIP3    H148910   6.584   2.568  16.052  0.3087  0.3754  0.4911
 9165TIP3    H248911   6.437   2.536  16.043  0.5456 -1.5906  2.5728
 9166TIP3   OH248912   2.664   5.963  14.814  0.1144  0.6963 -0.4374
 9166TIP3    H148913   2.689   6.026  14.881  0.3528  1.3896 -1.1585
 9166TIP3    H248914   2.601   6.010  14.759 -1.5454 -0.4795  0.3897
 9167TIP3   OH248915   2.587   5.992  12.862 -0.0880 -0.3326  0.0260
 9167TIP3    H148916   2.618   5.908  12.894  0.4839  0.1574  0.7782
 9167TIP3    H248917   2.506   6.008  12.911  0.8867  0.5070  1.4263
 9168TIP3   OH248918   5.989   2.670  16.900  0.2279 -0.1699  1.0402
 9168TIP3    H148919   6.030   2.672  16.987  1.6891  1.5372  0.3567
 9168TIP3    H248920   6.037   2.735  16.849  0.0634 -1.8300 -1.3731
 9169TIP3   OH248921   4.822   4.332  15.091 -0.1406 -0.3374 -0.4898
 9169TIP3    H148922   4.848   4.270  15.023  2.1647  0.1875 -0.1758
 9169TIP3    H248923   4.808   4.415  15.045  0.2956 -0.2625 -0.4987
 9170TIP3   OH248924   5.074   6.626  16.745 -0.7604  0.2879 -0.0264
 9170TIP3    H148925   5.020   6.608  16.822  0.0036  1.1998  0.7389
 9170TIP3    H248926   5.134   6.551  16.741 -2.1837 -0.8616 -1.0277
 9171TIP3   OH248927   0.101   1.756   4.727  0.1151 -0.4815  0.3655
 9171TIP3    H148928   0.010   1.763   4.755  0.7693 -2.7597  3.6498
 9171TIP3    H248929   0.106   1.671   4.682  0.0853  1.0928 -2.9181
 9172TIP3   OH248930   4.769   2.013   0.006  0.4267  0.0226 -0.2868
 9172TIP3    H148931   4.844   1.964   0.040 -1.3174 -0.2278  3.7309
 9172TIP3    H248932   4.806   2.093  -0.030  2.6416 -0.1050  1.5242
 9173TIP3   OH248933   4.936   4.274   0.095  0.2068  0.4052 -0.3316
 9173TIP3    H148934   4.925   4.345   0.031 -2.8066 -0.6105 -1.1391
 9173TIP3    H248935   4.905   4.196   0.048 -1.3227 -0.5250  2.0686
 9174TIP3   OH248936   6.204   0.883   2.233  0.2336 -0.7922 -0.2410
 9174TIP3    H148937   6.124   0.936   2.241  0.0516 -1.0290 -0.4796
 9174TIP3    H248938   6.229   0.892   2.141 -0.1498 -1.6219 -0.4351
 9175TIP3   OH248939   2.751   5.115   1.438  0.3229 -0.3901  0.6463
 9175TIP3    H148940   2.837   5.141   1.470  0.3987  0.1498  0.0276
 9175TIP3    H248941   2.715   5.061   1.508  0.7644  0.1763  1.3266
 9176TIP3   OH248942   4.314   1.030   4.293  0.3870 -0.2872  0.4239
 9176TIP3    H148943   4.319   0.958   4.230 -0.0066 -0.5276  0.6684
 9176TIP3    H248944   4.223   1.060   4.289  0.1014 -0.9302  1.5643
 9177TIP3   OH248945   0.274   2.935   3.200 -0.2946 -0.3440 -0.3436
 9177TIP3    H148946   0.208   3.002   3.180 -1.1105 -0.4397  1.7402
 9177TIP3    H248947   0.334   2.979   3.261  0.2868 -0.9371 -0.4825
 9178TIP3   OH248948   3.819   2.975  11.081 -0.0385  0.2376  0.5252
 9178TIP3    H148949   3.873   2.897  11.071  3.5041  2.6614 -1.9484
 9178TIP3    H248950   3.763   2.975  11.003  0.8818  0.7224 -0.1567
 9179TIP3   OH248951   4.772   4.658   6.610  0.2544 -0.0579 -0.0483
 9179TIP3    H148952   4.719   4.689   6.536 -0.1119  0.6393  0.4895
 9179TIP3    H248953   4.792   4.567   6.589  1.1829  0.4601 -1.5915
 9180TIP3   OH248954   5.356   4.134  11.120  0.0877  0.4824 -0.6014
 9180TIP3    H148955   5.292   4.105  11.055 -0.5542  0.6835 -0.0735
 9180TIP3    H248956   5.433   4.078  11.105  0.7252  1.8259 -2.8209
 9181TIP3   OH248957   5.422   2.949  11.878 -0.0383  0.4358 -0.3861
 9181TIP3    H148958   5.460   2.992  11.955  0.6083 -1.3212  0.3247
 9181TIP3    H248959   5.389   2.865  11.910 -1.2530  0.3565 -1.7208
 9182TIP3   OH248960   4.793   4.292  12.008  0.0904  0.0542 -0.3143
 9182TIP3    H148961   4.808   4.310  11.916 -0.5487  0.4525 -0.3412
 9182TIP3    H248962   4.853   4.220  12.028  0.9727  0.6453 -0.7809
 9183TIP3   OH248963   1.919   0.430   1.496  0.2526  0.1072 -0.6418
 9183TIP3    H148964   2.009   0.440   1.462  0.1418  2.5045 -0.4559
 9183TIP3    H248965   1.866   0.415   1.418  0.7165 -0.6700 -0.8237
 9184TIP3   OH248966   3.961   0.504   2.480 -0.1082 -0.1998 -0.0041
 9184TIP3    H148967   3.924   0.462   2.557 -0.2719 -1.2386 -0.6280
 9184TIP3    H248968   4.029   0.563   2.514 -0.6181 -0.1598  0.9629
 9185TIP3   OH248969   0.937   4.894   4.596  0.0532  0.6230 -0.4609
 9185TIP3    H148970   0.890   4.941   4.527  0.2267  0.4949 -0.6633
 9185TIP3    H248971   0.867   4.859   4.652 -0.1011  0.1540 -0.9459
 9186TIP3   OH248972   2.865   1.295  15.494  0.3214  0.2696  0.1117
 9186TIP3    H148973   2.814   1.292  15.413  0.2948  0.7028  0.1111
 9186TIP3    H248974   2.800   1.284  15.563  0.0319  2.0250  0.1720
 9187TIP3   OH248975   1.536   4.144  11.333  0.3724  0.4236  0.0978
 9187TIP3    H148976   1.594   4.136  11.258  0.1433  1.2711 -0.1898
 9187TIP3    H248977   1.517   4.238  11.338  2.3583  0.7867  2.7330
 9188TIP3   OH248978   0.271   2.825  12.713  0.4297  0.7546 -0.2441
 9188TIP3    H148979   0.237   2.897  12.768  0.5694  0.3909  0.3292
 9188TIP3    H248980   0.233   2.841  12.627  0.3141  1.4186 -0.0812
 9189TIP3   OH248981   1.447   3.609   0.718 -0.3559  0.1473  0.3868
 9189TIP3    H148982   1.543   3.607   0.710 -0.2788  1.2349  0.9078
 9189TIP3    H248983   1.420   3.682   0.662 -0.8683 -0.0557  0.3699
 9190TIP3   OH248984   0.332   2.330  14.991 -0.4810 -0.5858  0.0214
 9190TIP3    H148985   0.341   2.236  14.971  3.8343 -0.0654 -1.6985
 9190TIP3    H248986   0.353   2.337  15.084 -1.1128 -1.3371  0.2286
 9191TIP3   OH248987   4.753   4.260  13.288  0.1062 -0.5164 -0.3327
 9191TIP3    H148988   4.843   4.238  13.313  0.2923 -0.2996 -0.7854
 9191TIP3    H248989   4.749   4.355  13.294 -0.1977 -0.5518  0.0200
 9192TIP3   OH248990   5.094   3.732  11.257  1.0718 -0.5185 -0.1169
 9192TIP3    H148991   5.162   3.778  11.307  0.1049 -0.8450  1.5740
 9192TIP3    H248992   5.078   3.652  11.307  2.5609 -2.6877 -2.8793
 9193TIP3   OH248993   4.915   3.852  14.677 -0.9378  0.3465 -0.0239
 9193TIP3    H148994   4.852   3.819  14.613 -0.1765 -1.3014  0.0145
 9193TIP3    H248995   4.897   3.802  14.756  0.1508  0.1158  0.0993
 9194TIP3   OH248996   0.184   4.802  11.848  0.3470  0.1231 -0.4289
 9194TIP3    H148997   0.148   4.753  11.922  0.5519 -0.2248 -0.5594
 9194TIP3    H248998   0.275   4.818  11.872  0.7468 -1.0008 -1.1058
 9195TIP3   OH248999   4.137   0.715   0.867  0.3736  0.0262 -0.0581
 9195TIP3    H149000   4.158   0.719   0.774 -0.9352 -1.1005 -0.4352
 9195TIP3    H249001   4.206   0.662   0.906  0.6112  0.0266 -0.4826
 9196TIP3   OH249002   2.694   1.944  16.969  0.1238 -0.5735 -0.3258
 9196TIP3    H149003   2.719   2.017  17.026 -2.2428  0.3329 -0.3014
 9196TIP3    H249004   2.694   1.868  17.027  1.9261 -0.4845 -0.1755
 9197TIP3   OH249005   3.826   1.016   1.261 -0.5902 -0.1963 -0.0711
 9197TIP3    H149006   3.893   0.952   1.287  0.3037  0.0343 -1.6945
 9197TIP3    H249007   3.789   0.980   1.180  0.0540  1.4138 -1.1170
 9198TIP3   OH249008   3.409   6.538  15.226  0.0863 -0.6646 -0.4980
 9198TIP3    H149009   3.455   6.596  15.166  2.1492 -1.4803  0.1997
 9198TIP3    H249010   3.356   6.597  15.280 -0.0990  0.2640 -1.6500
 9199TIP3   OH249011   2.115   5.318   0.930  0.3098 -0.7383  0.4778
 9199TIP3    H149012   2.183   5.341   0.992 -0.3513  0.2648  0.8522
 9199TIP3    H249013   2.050   5.271   0.982  0.4816 -1.2732  0.2183
 9200TIP3   OH249014   6.329   3.540   5.075  0.1791 -0.0137  0.1375
 9200TIP3    H149015   6.392   3.525   5.004  0.3401  2.3321 -0.2916
 9200TIP3    H249016   6.244   3.527   5.034  0.1504  3.2218 -1.1908
 9201TIP3   OH249017   2.119   6.740  15.216  0.7841 -0.2968  0.0087
 9201TIP3    H149018   2.126   6.787  15.299 -0.6111 -0.5283  0.2798
 9201TIP3    H249019   2.114   6.648  15.241 -0.0706 -0.3402 -0.2968
 9202TIP3   OH249020   0.107   5.819   1.517  0.2101  0.0776  0.1270
 9202TIP3    H149021   0.192   5.790   1.484  0.3492  1.3772 -0.7377
 9202TIP3    H249022   0.098   5.909   1.485 -1.4257  0.0191  0.3229
 9203TIP3   OH249023   3.028   0.945  11.285 -0.2365 -0.0940 -0.9539
 9203TIP3    H149024   3.025   0.956  11.190  0.2999  0.1886 -0.9380
 9203TIP3    H249025   3.079   0.866  11.299 -0.5068 -0.2638 -0.9035
 9204TIP3   OH249026   2.101   4.364  13.715 -0.3452  0.1532  0.6655
 9204TIP3    H149027   2.183   4.328  13.749 -0.2054  0.9062  1.1647
 9204TIP3    H249028   2.123   4.391  13.625 -0.3794 -0.7344  0.3869
 9205TIP3   OH249029   0.675   4.650   1.922 -0.2348  0.2137  0.3346
 9205TIP3    H149030   0.650   4.656   1.830 -0.3009  1.2158  0.4013
 9205TIP3    H249031   0.655   4.736   1.958  1.4839  0.4536  0.8548
 9206TIP3   OH249032   3.864   3.293   2.647 -0.2570  0.0151 -0.1071
 9206TIP3    H149033   3.781   3.263   2.610 -0.2025  0.8781 -0.9777
 9206TIP3    H249034   3.843   3.377   2.687 -0.2605 -0.7944  1.6636
 9207TIP3   OH249035   3.328   4.015   5.413 -0.3867  0.0536  0.3306
 9207TIP3    H149036   3.336   4.082   5.482 -2.2942  0.0450  0.6240
 9207TIP3    H249037   3.280   3.944   5.455  0.9534 -1.2079 -0.2102
 9208TIP3   OH249038   2.482   2.676  11.434  0.0425  1.1024  0.7125
 9208TIP3    H149039   2.531   2.643  11.358  1.2955 -0.0080  1.9662
 9208TIP3    H249040   2.392   2.648  11.418  0.4301  0.2049  0.0037
 9209TIP3   OH249041   4.583   2.108   5.090  0.1372 -0.0107  0.5625
 9209TIP3    H149042   4.511   2.154   5.049  0.5600 -0.3632 -0.6125
 9209TIP3    H249043   4.550   2.082   5.176 -1.3502 -0.7174 -0.1944
 9210TIP3   OH249044   2.344   3.192   3.567 -0.0609 -0.0216 -0.6108
 9210TIP3    H149045   2.418   3.195   3.507  0.5105 -1.0141  0.0150
 9210TIP3    H249046   2.292   3.117   3.538 -0.7061  0.5214 -0.8952
 9211TIP3   OH249047   3.431   1.572   3.563  0.8826  0.4306  0.2405
 9211TIP3    H149048   3.493   1.624   3.513 -0.0308  0.4352 -0.9455
 9211TIP3    H249049   3.418   1.621   3.644 -0.3746  2.4068 -1.0551
 9212TIP3   OH249050   1.590   2.585  12.936  0.0344  0.1982 -0.2087
 9212TIP3    H149051   1.613   2.543  13.019  0.1664 -0.0222 -0.3549
 9212TIP3    H249052   1.593   2.679  12.954  0.3887  0.1572 -0.0513
 9213TIP3   OH249053   4.395   4.474  11.159  0.2835 -0.3716 -0.0568
 9213TIP3    H149054   4.374   4.385  11.131 -0.7477 -0.0706 -0.2805
 9213TIP3    H249055   4.310   4.516  11.170  0.7628  0.5825  0.0637
 9214TIP3   OH249056   2.808   0.133  12.442  0.1791 -0.5396  0.2726
 9214TIP3    H149057   2.816   0.150  12.349 -0.0677 -0.3339  0.2872
 9214TIP3    H249058   2.878   0.186  12.482 -0.7358  0.6684  0.3382
 9215TIP3   OH249059   0.713   1.528   3.500 -0.5115  0.1141  0.0511
 9215TIP3    H149060   0.710   1.481   3.417 -0.8296  0.7150 -0.2792
 9215TIP3    H249061   0.622   1.534   3.528 -0.4827  0.6158  0.0454
 9216TIP3   OH249062   1.284   5.937  11.871 -0.3027  0.2676  0.9087
 9216TIP3    H149063   1.349   5.867  11.872 -0.1280  0.4326  1.0144
 9216TIP3    H249064   1.327   6.010  11.827 -1.1239 -0.3063 -0.9685
 9217TIP3   OH249065   0.503   2.156  12.351  0.7042  0.2733  0.1907
 9217TIP3    H149066   0.451   2.082  12.382 -0.0709  0.8381  0.2566
 9217TIP3    H249067   0.470   2.231  12.400  2.4812  0.4408  1.2297
 9218TIP3   OH249068   1.784   1.503   4.021  1.0519  0.1472  0.1938
 9218TIP3    H149069   1.735   1.581   3.994 -0.4179 -1.1328 -1.0237
 9218TIP3    H249070   1.716   1.440   4.046  2.1393 -1.1474 -0.0051
 9219TIP3   OH249071   5.875   2.932   1.589 -0.2169 -0.4708  0.1442
 9219TIP3    H149072   5.899   3.010   1.538 -0.4078 -0.1304  0.5740
 9219TIP3    H249073   5.930   2.936   1.667 -0.0277 -0.9212  0.0421
 9220TIP3   OH249074   1.866   3.891  12.603 -0.1509 -0.7655  0.4395
 9220TIP3    H149075   1.788   3.898  12.546  0.4942  1.4703 -0.3080
 9220TIP3    H249076   1.853   3.960  12.668  0.9804 -0.6936  0.5986
 9221TIP3   OH249077   6.248   5.996  14.978 -0.8486  0.0143 -0.0029
 9221TIP3    H149078   6.225   5.949  15.058 -2.1071 -0.8776 -0.8455
 9221TIP3    H249079   6.280   5.927  14.919 -1.3658  0.4262 -0.7792
 9222TIP3   OH249080   1.078   0.345   2.185 -0.1122 -0.2891  0.0832
 9222TIP3    H149081   1.050   0.346   2.277 -1.1420  0.5297 -0.2204
 9222TIP3    H249082   1.061   0.255   2.157 -1.7308 -0.0352  0.1468
 9223TIP3   OH249083   6.501   4.563   5.565 -0.0353 -0.4823  0.2428
 9223TIP3    H149084   6.478   4.501   5.635  1.1974  0.6417  1.7409
 9223TIP3    H249085   6.596   4.555   5.557 -0.0741 -0.0169 -0.7424
 9224TIP3   OH249086   4.075   2.677   5.447  0.2186 -0.5055  0.0231
 9224TIP3    H149087   4.171   2.677   5.453  0.3618  1.9607 -1.0959
 9224TIP3    H249088   4.054   2.592   5.408  2.1191 -0.4010 -1.3834
 9225TIP3   OH249089   3.928   1.435  12.672 -0.4258 -0.2580  0.0977
 9225TIP3    H149090   4.009   1.469  12.712  0.0699 -2.4057  1.0456
 9225TIP3    H249091   3.858   1.475  12.722  0.1707 -2.8469  3.3007
 9226TIP3   OH249092   0.947   1.239   5.980 -0.2258 -0.3714  0.4307
 9226TIP3    H149093   0.984   1.150   5.984  0.5081 -0.1475 -0.9165
 9226TIP3    H249094   0.856   1.226   5.954 -0.1432 -0.7337  0.3119
 9227TIP3   OH249095   3.929   2.736   2.921  0.0045  0.1764 -0.6302
 9227TIP3    H149096   3.956   2.805   2.983 -1.5643  1.5949 -1.4497
 9227TIP3    H249097   4.008   2.684   2.908  0.6147  0.3296  1.8966
 9228TIP3   OH249098   2.178   3.612   6.071 -0.7398 -0.1408  0.3969
 9228TIP3    H149099   2.105   3.593   6.130  1.5709 -1.4508  3.0799
 9228TIP3    H249100   2.214   3.695   6.103 -0.6836  0.2077 -0.5377
 9229TIP3   OH249101   5.580   1.522  15.152 -0.3299  0.0163  0.3898
 9229TIP3    H149102   5.574   1.431  15.180 -0.4334 -0.7339 -1.8547
 9229TIP3    H249103   5.674   1.536  15.138 -0.3212  0.2309  0.6618
 9230TIP3   OH249104   3.428   6.406   2.541  0.2101 -0.0459 -0.0619
 9230TIP3    H149105   3.507   6.461   2.550  0.3936 -0.1614 -0.9164
 9230TIP3    H249106   3.394   6.427   2.454  0.2206 -1.2134 -0.3551
 9231TIP3   OH249107   3.496   0.849   3.582 -0.3387  0.3013 -0.9273
 9231TIP3    H149108   3.494   0.923   3.643 -3.9369  0.4839 -1.0978
 9231TIP3    H249109   3.512   0.773   3.637  0.8173  0.8827 -0.4130
 9232TIP3   OH249110   1.768   2.647   3.444  0.2461  0.6491 -0.4098
 9232TIP3    H149111   1.764   2.715   3.511 -0.4193 -0.4746  0.7427
 9232TIP3    H249112   1.712   2.678   3.373 -2.7206 -0.0874  1.4623
 9233TIP3   OH249113   0.730   2.592   4.155 -0.4113  0.1134 -0.1390
 9233TIP3    H149114   0.700   2.568   4.068  0.3617  0.6566 -0.5675
 9233TIP3    H249115   0.650   2.596   4.208 -1.0741  1.2231 -1.1752
 9234TIP3   OH249116   3.667   2.342  10.560  0.4931 -0.0807  0.0756
 9234TIP3    H149117   3.627   2.296  10.486  1.2746  0.4045 -0.6567
 9234TIP3    H249118   3.681   2.431  10.528 -0.6859  0.6134  1.3627
 9235TIP3   OH249119   3.618   1.560  16.864  0.3466 -0.4554  0.5248
 9235TIP3    H149120   3.598   1.467  16.851 -0.8986  0.1696 -3.5763
 9235TIP3    H249121   3.534   1.599  16.888  0.7237 -0.2404  1.5394
 9236TIP3   OH249122   0.621   4.337  13.936 -0.1682  0.0478 -0.6176
 9236TIP3    H149123   0.574   4.282  13.872 -2.0897  1.6275 -0.6436
 9236TIP3    H249124   0.601   4.297  14.021  0.3835 -0.6256 -0.7920
 9237TIP3   OH249125   6.449   2.025   3.765 -0.7025 -0.1151 -0.5807
 9237TIP3    H149126   6.434   1.996   3.675 -0.9336 -0.9642 -0.2730
 9237TIP3    H249127   6.507   2.101   3.756 -0.4019 -0.4348 -1.4250
 9238TIP3   OH249128   3.719   6.147   3.662  0.7946  0.2193 -0.3617
 9238TIP3    H149129   3.709   6.188   3.748  1.7774 -1.9994  0.8825
 9238TIP3    H249130   3.629   6.143   3.627  0.1130 -0.4679  1.3648
 9239TIP3   OH249131   4.679   6.237   2.702  0.1102 -0.0361  0.4545
 9239TIP3    H149132   4.615   6.308   2.702  0.3066  0.1527  1.1047
 9239TIP3    H249133   4.705   6.228   2.794  1.1273 -0.0030  0.1815
 9240TIP3   OH249134   6.341   4.565  16.497 -0.0696 -0.4154  0.3129
 9240TIP3    H149135   6.290   4.485  16.495  0.3540 -0.7400  1.5166
 9240TIP3    H249136   6.372   4.577  16.407 -0.1438 -1.5968  0.1187
 9241TIP3   OH249137   3.785   4.015  12.801 -0.4385 -0.0395 -0.4838
 9241TIP3    H149138   3.750   3.931  12.831  0.7758 -0.1462  0.6935
 9241TIP3    H249139   3.866   3.993  12.755  0.3317  0.5286  0.5548
 9242TIP3   OH249140   5.016   2.175   3.589 -0.0285  0.1945  0.2524
 9242TIP3    H149141   5.009   2.259   3.634  1.2418  1.1425 -1.1883
 9242TIP3    H249142   5.110   2.161   3.578 -0.1759 -1.7680  1.0134
 9243TIP3   OH249143   4.649   2.240   3.645  0.2904  0.5482  0.2768
 9243TIP3    H149144   4.557   2.265   3.649  0.3020  0.8451 -0.8856
 9243TIP3    H249145   4.659   2.199   3.559  0.4968 -2.6245  1.6775
 9244TIP3   OH249146   1.697   1.014   0.683  1.0003 -0.3898  0.1969
 9244TIP3    H149147   1.773   1.026   0.626  0.9306  0.4575  0.2792
 9244TIP3    H249148   1.686   1.098   0.727  0.4230 -0.7177  0.6941
 9245TIP3   OH249149   6.231   4.610   1.036 -0.0193  0.1697  0.5350
 9245TIP3    H149150   6.260   4.678   0.975 -0.1056  0.0076  0.3096
 9245TIP3    H249151   6.282   4.533   1.012 -0.9652 -0.2486 -0.1802
 9246TIP3   OH249152   4.588   0.655   2.360 -0.0880 -0.0328 -0.7711
 9246TIP3    H149153   4.547   0.741   2.350 -1.4729 -0.2268  2.1672
 9246TIP3    H249154   4.655   0.668   2.426 -2.4123 -1.6720  2.1545
 9247TIP3   OH249155   0.914   1.681   1.626 -0.3529  0.8125  0.3027
 9247TIP3    H149156   0.836   1.729   1.655 -1.6128 -1.4980  1.0053
 9247TIP3    H249157   0.926   1.613   1.692  1.6367  0.4380 -0.3821
 9248TIP3   OH249158   1.602   1.138   5.630 -0.2418 -0.0562  0.4024
 9248TIP3    H149159   1.685   1.172   5.664 -0.2639 -1.1524  1.6212
 9248TIP3    H249160   1.538   1.158   5.698 -0.5143 -1.2596  0.5180
 9249TIP3   OH249161   5.415   4.006  16.988  0.0151  0.2880  0.3702
 9249TIP3    H149162   5.441   3.938  17.050 -0.9986  0.3175  0.8432
 9249TIP3    H249163   5.349   3.964  16.932  0.2740  0.5261 -0.1198
 9250TIP3   OH249164   3.881   6.258  12.578 -0.1084 -0.0846 -0.1162
 9250TIP3    H149165   3.807   6.304  12.616 -1.4430 -1.9545 -0.2758
 9250TIP3    H249166   3.955   6.277  12.636 -0.6876  1.8358  0.0359
 9251TIP3   OH249167   6.531   2.540   3.570  0.3026  0.0989  0.0383
 9251TIP3    H149168   6.596   2.560   3.503  0.0624  0.3358 -0.1281
 9251TIP3    H249169   6.450   2.581   3.538  0.4277  1.1455  0.9728
 9252TIP3   OH249170   0.769   0.656  17.017  0.1024 -0.2922 -0.1981
 9252TIP3    H149171   0.692   0.667  17.073  0.3826  0.2412  0.0867
 9252TIP3    H249172   0.793   0.745  16.992  2.7241 -0.0867  2.5568
 9253TIP3   OH249173   3.039   5.567   0.086 -0.4305 -0.5219 -0.1021
 9253TIP3    H149174   3.064   5.657   0.104 -1.5156  0.0994 -1.4853
 9253TIP3    H249175   3.086   5.515   0.151  1.4419  0.8926 -0.2428
 9254TIP3   OH249176   3.760   0.366  15.936 -0.5941 -0.4999  0.1684
 9254TIP3    H149177   3.807   0.328  16.010 -1.3591 -1.2720  0.2653
 9254TIP3    H249178   3.718   0.444  15.972 -0.2668 -0.4003  0.3365
 9255TIP3   OH249179   6.296   5.136  16.330  0.0636  0.7447 -0.1015
 9255TIP3    H149180   6.359   5.086  16.278  0.6886  0.3363  1.0127
 9255TIP3    H249181   6.244   5.184  16.265 -0.2077 -0.9323 -1.1827
 9256TIP3   OH249182   6.562   1.230  13.285  0.1333 -0.1829  0.0616
 9256TIP3    H149183   6.503   1.247  13.359  0.0708 -0.6210  0.1152
 9256TIP3    H249184   6.596   1.142  13.302  0.6065 -0.0325 -0.1039
 9257TIP3   OH249185   2.423   6.033   0.266 -0.0544 -0.6726  0.1951
 9257TIP3    H149186   2.366   5.958   0.281 -1.4097  0.1408 -0.7208
 9257TIP3    H249187   2.420   6.082   0.348 -0.6137 -0.6752  0.1785
 9258TIP3   OH249188   6.196   0.605   0.490 -0.1352  0.1178 -0.4693
 9258TIP3    H149189   6.156   0.681   0.532  2.6278  1.1231  0.5741
 9258TIP3    H249190   6.282   0.636   0.461  0.6906 -2.3376 -0.9035
 9259TIP3   OH249191   6.440   0.360  16.402  0.2062  0.0465 -0.3739
 9259TIP3    H149192   6.511   0.296  16.398 -0.2787 -0.5022 -0.2092
 9259TIP3    H249193   6.360   0.308  16.408 -0.1805  0.6673 -0.0457
 9260TIP3   OH249194   0.273   0.266   5.410  0.5346  0.9316  0.0453
 9260TIP3    H149195   0.236   0.220   5.335  0.3058 -0.8155  1.1650
 9260TIP3    H249196   0.197   0.296   5.460  0.5877 -0.6794  1.1734
 9261TIP3   OH249197   0.812   1.212  14.345 -0.2155  0.0400 -0.7621
 9261TIP3    H149198   0.868   1.204  14.422  0.0781 -2.1023 -1.1127
 9261TIP3    H249199   0.724   1.187  14.376 -0.3326  0.2962 -0.8826
 9262TIP3   OH249200   5.826   4.590  15.762 -0.0943  0.1485  0.0049
 9262TIP3    H149201   5.789   4.542  15.837  0.0569 -0.7823 -0.4980
 9262TIP3    H249202   5.866   4.667  15.801 -1.0818  0.3126  0.7586
 9263TIP3   OH249203   5.878   0.975  13.826  0.0919  0.2864  0.1842
 9263TIP3    H149204   5.895   0.964  13.919 -0.1908 -0.9352  0.1104
 9263TIP3    H249205   5.938   1.044  13.798 -0.7252  1.5892  1.5109
 9264TIP3   OH249206   3.131   6.545  11.528 -0.4749  0.4454 -0.1747
 9264TIP3    H149207   3.150   6.590  11.446 -0.5174  1.1441  0.1929
 9264TIP3    H249208   3.166   6.602  11.596  1.4867 -1.1043  0.2289
 9265TIP3   OH249209   1.947   6.711  15.839 -0.1999  0.3500 -0.3048
 9265TIP3    H149210   1.949   6.634  15.895 -0.0241 -0.1553 -1.0024
 9265TIP3    H249211   2.037   6.742  15.837  0.6169 -1.8430 -3.3161
 9266TIP3   OH249212   5.822   3.910  13.867 -0.3150 -0.0938  0.2682
 9266TIP3    H149213   5.868   3.951  13.794  0.8803  0.8072  1.4718
 9266TIP3    H249214   5.761   3.977  13.898 -1.3355 -0.7255 -0.3301
 9267TIP3   OH249215   5.347   4.255  16.651 -0.0768  0.5430  0.2525
 9267TIP3    H149216   5.298   4.310  16.590 -1.6467 -0.3128  0.7079
 9267TIP3    H249217   5.340   4.167  16.615 -1.6783 -0.1047  2.0161
 9268TIP3   OH249218   2.197   1.395  13.633  0.2487 -0.2293 -0.6272
 9268TIP3    H149219   2.103   1.410  13.643  0.1067  0.6414 -2.7269
 9268TIP3    H249220   2.222   1.450  13.559  2.1656 -1.3872 -0.8965
 9269TIP3   OH249221   0.023   4.673   3.425 -0.5650 -0.3439  0.0896
 9269TIP3    H149222  -0.070   4.697   3.426 -0.3215  0.7513 -1.1254
 9269TIP3    H249223   0.069   4.755   3.406  0.7347 -0.6907  1.5177
 9270TIP3   OH249224   0.387   1.508   0.274 -0.0171  0.1310 -0.8020
 9270TIP3    H149225   0.481   1.517   0.293  0.5408 -2.3624 -1.8843
 9270TIP3    H249226   0.381   1.518   0.179 -1.2567  2.5876 -0.5246
 9271TIP3   OH249227   0.728   6.605  14.381 -0.3095  0.5470 -0.2418
 9271TIP3    H149228   0.660   6.562  14.432 -0.3178  1.6634  0.7211
 9271TIP3    H249229   0.692   6.609  14.292 -0.4785 -1.0083 -0.2817
 9272TIP3   OH249230   2.269   1.454   4.816  0.3782 -0.2067 -0.8923
 9272TIP3    H149231   2.300   1.513   4.884 -0.2215 -0.6072 -0.2642
 9272TIP3    H249232   2.298   1.368   4.844 -1.8517 -0.6950  0.0857
 9273TIP3   OH249233   0.801   2.798  14.157 -0.3124  0.2552 -0.3868
 9273TIP3    H149234   0.860   2.814  14.083  0.5476  0.6181  0.3663
 9273TIP3    H249235   0.833   2.855  14.226 -1.5221  0.4173  0.0630
 9274TIP3   OH249236   2.782   5.047   0.634  0.3016  0.8818 -0.0099
 9274TIP3    H149237   2.857   5.084   0.680  1.8447 -2.5831  0.5865
 9274TIP3    H249238   2.819   5.010   0.554 -0.7148 -0.8633  0.2720
 9275TIP3   OH249239   4.631   5.991  15.420 -0.6503 -0.1258 -0.4716
 9275TIP3    H149240   4.708   6.044  15.440 -0.7260  0.1654 -0.9404
 9275TIP3    H249241   4.650   5.905  15.459 -1.1020  0.6047  1.4862
 9276TIP3   OH249242   2.412   4.132   0.661 -0.1007  0.5061  0.4856
 9276TIP3    H149243   2.475   4.083   0.607 -0.6238 -0.3297  0.6214
 9276TIP3    H249244   2.411   4.087   0.745 -2.3772 -0.7869 -0.1438
 9277TIP3   OH249245   5.828   6.466   5.706 -0.3278  0.0312 -0.1373
 9277TIP3    H149246   5.881   6.534   5.666 -0.6979  1.3796  1.5774
 9277TIP3    H249247   5.765   6.442   5.637 -0.4907  1.7446 -0.6271
 9278TIP3   OH249248   4.521   1.345   2.406 -0.2700 -0.5012 -0.0421
 9278TIP3    H149249   4.544   1.438   2.410 -0.5011 -0.3367 -1.7616
 9278TIP3    H249250   4.605   1.300   2.392 -0.3804 -0.3338 -1.3802
 9279TIP3   OH249251   6.289   0.753  11.774  0.0307 -0.3146 -0.4062
 9279TIP3    H149252   6.243   0.832  11.746 -0.1942  0.5446  2.1103
 9279TIP3    H249253   6.255   0.736  11.862  3.5942 -0.3275  1.1171
 9280TIP3   OH249254   1.699   5.956  10.767 -0.2238  0.1081  0.2671
 9280TIP3    H149255   1.607   5.960  10.793  0.0379 -1.6995  1.7194
 9280TIP3    H249256   1.731   6.046  10.772 -1.2432  0.3938  2.4108
 9281TIP3   OH249257   3.708   3.153  14.002 -0.1029  0.4902 -0.1477
 9281TIP3    H149258   3.646   3.120  13.937 -0.2766 -1.3247  0.8576
 9281TIP3    H249259   3.794   3.131  13.966 -0.2216 -1.7017  0.7264
 9282TIP3   OH249260   4.284   2.607  14.704 -0.1295  0.0750 -0.5307
 9282TIP3    H149261   4.351   2.672  14.728  1.2120 -0.6537 -2.1223
 9282TIP3    H249262   4.255   2.571  14.788  1.0330  0.8473  0.2411
 9283TIP3   OH249263   4.284   0.256   3.765  0.1430  0.0885 -0.2600
 9283TIP3    H149264   4.230   0.183   3.794  0.2756  0.7994  1.9432
 9283TIP3    H249265   4.225   0.311   3.714 -0.5278 -0.4276 -0.0567
 9284TIP3   OH249266   4.635   3.749   5.442 -0.0672 -0.0073  0.4914
 9284TIP3    H149267   4.574   3.693   5.491 -1.2897  0.0309 -0.8978
 9284TIP3    H249268   4.645   3.827   5.495 -0.0948 -0.6213  1.4148
 9285TIP3   OH249269   2.994   0.824   0.472 -0.0074 -0.0201 -0.2800
 9285TIP3    H149270   2.904   0.849   0.492 -0.0402  0.0028 -0.4522
 9285TIP3    H249271   3.046   0.859   0.544 -0.1588 -0.1855 -0.0902
 9286TIP3   OH249272   3.601   1.465   4.063  0.1372 -0.3707 -0.0396
 9286TIP3    H149273   3.612   1.553   4.027 -0.5328 -0.3437 -0.1870
 9286TIP3    H249274   3.671   1.414   4.022  1.7707  0.5050  1.5017
 9287TIP3   OH249275   5.515   6.704   4.603  0.2783 -0.6349 -0.8801
 9287TIP3    H149276   5.543   6.743   4.686 -0.4683 -2.9463  0.5608
 9287TIP3    H249277   5.526   6.774   4.539 -0.9349  1.9279  1.4715
 9288TIP3   OH249278   5.134   5.069  16.199 -0.1715  0.0378  0.6002
 9288TIP3    H149279   5.146   5.124  16.121  1.1631 -1.1984 -0.1183
 9288TIP3    H249280   5.053   5.021  16.182 -0.1997  0.2051  0.2534
 9289TIP3   OH249281   3.715   2.141   4.131  0.3738  0.0239  0.3751
 9289TIP3    H149282   3.663   2.071   4.172 -0.0987 -1.8065 -2.9773
 9289TIP3    H249283   3.798   2.100   4.108  1.8442  1.8387  2.0668
 9290TIP3   OH249284   0.051   4.394   4.787  0.3864 -0.2578  0.3518
 9290TIP3    H149285   0.052   4.480   4.745 -1.7710  0.0862  0.8542
 9290TIP3    H249286   0.126   4.395   4.846  2.6757 -0.2210 -2.3518
 9291TIP3   OH249287   5.383   1.122   0.267 -0.1395 -0.1982  0.1847
 9291TIP3    H149288   5.462   1.096   0.315  0.3193 -0.4299 -0.6817
 9291TIP3    H249289   5.402   1.101   0.176 -0.6039  1.1834 -0.2536
 9292TIP3   OH249290   5.689   5.640  16.002  0.5127  0.7029 -0.0235
 9292TIP3    H149291   5.741   5.564  15.977 -1.1243  0.1227 -1.9090
 9292TIP3    H249292   5.663   5.622  16.093 -0.2463 -1.2704 -0.5759
 9293TIP3   OH249293   4.085   4.671  10.942  0.2953 -0.2694 -0.0018
 9293TIP3    H149294   4.015   4.713  10.892  0.4575 -0.5277 -0.4451
 9293TIP3    H249295   4.150   4.740  10.953  0.9690 -0.6341 -1.5072
 9294TIP3   OH249296   4.793   4.649   1.671 -0.1262 -0.2962  0.6439
 9294TIP3    H149297   4.819   4.614   1.757  0.7375 -0.9864  0.1261
 9294TIP3    H249298   4.869   4.633   1.616  0.6816  3.2065  0.5386
 9295TIP3   OH249299   1.459   1.325  17.045  0.1830 -0.0463  0.0522
 9295TIP3    H149300   1.485   1.415  17.025 -0.1065  0.4633  1.8150
 9295TIP3    H249301   1.392   1.333  17.112  0.3758 -1.5931  0.4727
 9296TIP3   OH249302   5.727   1.153   3.171 -0.0203 -0.2068  0.0232
 9296TIP3    H149303   5.645   1.193   3.203  0.3563  1.5622 -1.0908
 9296TIP3    H249304   5.782   1.228   3.147  2.2282 -1.3288  1.3709
 9297TIP3   OH249305   5.993   6.414   1.194 -0.1901 -0.1238  0.5659
 9297TIP3    H149306   5.952   6.334   1.228  0.3789 -0.9154 -0.5665
 9297TIP3    H249307   5.933   6.484   1.221 -1.5167 -1.0864  0.2445
 9298TIP3   OH249308   4.212   3.081   3.763  0.7541  0.3016 -0.0394
 9298TIP3    H149309   4.305   3.063   3.776  0.7663  1.0495  1.0121
 9298TIP3    H249310   4.185   3.019   3.695  2.2236  0.6868 -1.0257
 9299TIP3   OH249311   1.525   1.261  14.493 -0.1351  0.3576 -0.1931
 9299TIP3    H149312   1.572   1.205  14.554 -1.7197  0.0526  0.8112
 9299TIP3    H249313   1.557   1.235  14.406  2.2827  0.9238  0.4664
 9300TIP3   OH249314   0.395   6.350   4.020 -0.0738 -0.1900 -0.1851
 9300TIP3    H149315   0.320   6.405   3.997 -0.1252 -0.8726 -1.7208
 9300TIP3    H249316   0.376   6.319   4.109 -1.6533 -0.4122 -0.5800
 9301TIP3   OH249317   6.075   1.941  13.955  0.2238  0.1218 -0.3570
 9301TIP3    H149318   5.991   1.904  13.926  0.6687 -0.6671 -0.6846
 9301TIP3    H249319   6.058   1.972  14.044 -0.4111 -0.0428 -0.4155
 9302TIP3   OH249320   2.029   4.798  14.030  0.2472  0.4244 -0.0824
 9302TIP3    H149321   2.026   4.747  13.949  0.8593  1.7080 -0.9457
 9302TIP3    H249322   2.087   4.749  14.088  0.2095 -0.2509 -0.6059
 9303TIP3   OH249323   5.730   0.597  13.445  0.0667 -0.0551  0.2886
 9303TIP3    H149324   5.703   0.673  13.394  0.9398 -0.4769 -0.8439
 9303TIP3    H249325   5.653   0.576  13.499 -1.0692  0.1356 -1.1968
 9304TIP3   OH249326   6.420   2.543  13.473  0.2192  0.5108 -0.0834
 9304TIP3    H149327   6.408   2.523  13.566  0.3047  0.7972 -0.0110
 9304TIP3    H249328   6.426   2.457  13.431  1.3960  0.3806  0.3333
 9305TIP3   OH249329   6.100   5.106   5.110  0.3536  0.1849  0.0593
 9305TIP3    H149330   6.165   5.048   5.150  0.6072  0.0470 -0.5372
 9305TIP3    H249331   6.108   5.188   5.158 -1.0580 -0.6884  1.9570
 9306TIP3   OH249332   2.598   5.690   4.559  0.1550  1.1037  0.3149
 9306TIP3    H149333   2.689   5.721   4.550  0.7064  0.0038  1.7153
 9306TIP3    H249334   2.571   5.721   4.645 -0.0011 -0.4426  0.8560
 9307TIP3   OH249335   0.783   0.854  15.650  0.2024 -0.3275  0.2383
 9307TIP3    H149336   0.711   0.880  15.708  0.3560 -0.0656  0.3154
 9307TIP3    H249337   0.836   0.934  15.641  0.4301 -0.4931  0.1060
 9308TIP3   OH249338   3.588   1.494   2.212  0.1019 -0.4860 -0.1293
 9308TIP3    H149339   3.573   1.439   2.135 -1.7072  1.4124 -1.2453
 9308TIP3    H249340   3.504   1.494   2.258  0.8828 -0.8195  1.3477
 9309TIP3   OH249341   4.177   4.391  15.929 -0.1036 -0.0076  0.3598
 9309TIP3    H149342   4.199   4.483  15.942 -0.2110 -0.0817  1.0880
 9309TIP3    H249343   4.181   4.379  15.834  0.7477  0.5332  0.3180
 9310TIP3   OH249344   0.510   6.599   1.876 -0.8286  0.1920 -0.2304
 9310TIP3    H149345   0.502   6.635   1.787 -5.2213  2.0912  0.6824
 9310TIP3    H249346   0.535   6.674   1.930  0.8131 -0.7304  0.3633
 9311TIP3   OH249347   6.320   1.000   5.086  0.4989  0.4529  0.2556
 9311TIP3    H149348   6.334   1.009   5.181 -4.8112  0.4358  1.3912
 9311TIP3    H249349   6.293   0.908   5.075  0.0554  0.7150 -1.0460
 9312TIP3   OH249350   1.441   6.372  14.686  0.1275 -0.5138 -0.0633
 9312TIP3    H149351   1.405   6.324  14.611  0.9723 -0.8397 -0.2729
 9312TIP3    H249352   1.530   6.336  14.697 -0.3507 -1.2467  1.7802
 9313TIP3   OH249353   0.740   0.257  16.328  0.2607  0.1224 -0.1108
 9313TIP3    H149354   0.789   0.283  16.250  0.6207 -0.5715 -0.1162
 9313TIP3    H249355   0.795   0.193  16.372 -0.8888 -1.1118 -0.4168
 9314TIP3   OH249356   2.767   3.178   1.006  0.1998  0.3862 -0.2150
 9314TIP3    H149357   2.738   3.088   0.987 -1.5539  0.8857 -0.1299
 9314TIP3    H249358   2.762   3.223   0.922  0.7696  0.4985 -0.1931
 9315TIP3   OH249359   2.889   5.037   2.276  0.4616  0.3338 -0.6236
 9315TIP3    H149360   2.881   5.106   2.211  0.7348 -0.3980 -1.4487
 9315TIP3    H249361   2.908   4.958   2.226 -0.1858 -0.4186  0.2617
 9316TIP3   OH249362   5.593   1.516   3.987  1.1421  0.0834 -0.3316
 9316TIP3    H149363   5.525   1.507   3.921  0.1204 -0.7143  0.8053
 9316TIP3    H249364   5.588   1.608   4.015 -0.3833 -0.2748  0.6762
 9317TIP3   OH249365   3.151   4.222   5.637  0.1429  0.2041  0.0289
 9317TIP3    H149366   3.173   4.159   5.706  1.4116 -1.1387 -1.5314
 9317TIP3    H249367   3.201   4.300   5.659  2.9601 -1.2155 -0.8822
 9318TIP3   OH249368   2.611   2.716   5.149 -0.2463 -0.6187 -0.9087
 9318TIP3    H149369   2.518   2.704   5.129 -0.0835 -0.7157 -1.6069
 9318TIP3    H249370   2.629   2.806   5.121 -0.3335 -0.2958  0.0305
 9319TIP3   OH249371   0.956   6.196   1.154  0.1277  0.0345 -0.0573
 9319TIP3    H149372   0.999   6.235   1.078  1.0652 -1.3921 -0.3019
 9319TIP3    H249373   0.985   6.105   1.154 -2.3884 -0.8569  0.1621
 9320TIP3   OH249374   6.495   4.147  16.041 -0.1452 -0.1696  0.7331
 9320TIP3    H149375   6.415   4.153  16.093 -0.5490  0.5888  0.0477
 9320TIP3    H249376   6.465   4.148  15.950  0.6976  1.7748  0.4202
 9321TIP3   OH249377   4.899   1.675  11.495  0.7091  0.0279 -0.2826
 9321TIP3    H149378   4.836   1.711  11.433 -0.0368  0.0712  0.4907
 9321TIP3    H249379   4.977   1.730  11.485  0.5373  0.1332 -1.0541
 9322TIP3   OH249380   0.468   5.655   2.089 -0.6698 -0.1670  0.3933
 9322TIP3    H149381   0.557   5.641   2.055  0.1048 -1.2042  2.6514
 9322TIP3    H249382   0.444   5.742   2.057  1.6689  0.6828  0.7559
 9323TIP3   OH249383   2.667   0.247  14.300 -0.5273  0.5200  0.5643
 9323TIP3    H149384   2.702   0.208  14.220  0.3697  0.7579  0.8296
 9323TIP3    H249385   2.639   0.335  14.274  0.2283  0.7818  0.6074
 9324TIP3   OH249386   3.206   3.767   0.283  0.7274  0.1588 -0.1800
 9324TIP3    H149387   3.115   3.798   0.289 -0.3603 -2.5553 -1.1118
 9324TIP3    H249388   3.233   3.756   0.375 -1.2385 -2.3047  0.2416
 9325TIP3   OH249389   0.134   0.781  12.707 -0.1141 -0.3314 -0.0174
 9325TIP3    H149390   0.174   0.733  12.635  0.8703  0.1102  0.2283
 9325TIP3    H249391   0.114   0.714  12.773  0.6538 -0.4995  0.0498
 9326TIP3   OH249392   0.116   1.201   5.083  0.2401  0.2472  0.2123
 9326TIP3    H149393   0.180   1.136   5.052 -0.6656  0.2581 -1.8418
 9326TIP3    H249394   0.163   1.284   5.079  0.4031  0.1334 -0.3440
 9327TIP3   OH249395   0.519   4.930  17.163 -0.1875 -0.5080 -0.0929
 9327TIP3    H149396   0.509   4.942  17.258  0.4789 -1.2682  0.0782
 9327TIP3    H249397   0.613   4.938  17.148 -0.4328  1.3029 -0.9498
 9328TIP3   OH249398   3.117   6.141  15.239 -0.7784 -0.2609 -0.3548
 9328TIP3    H149399   3.183   6.072  15.237 -0.7399 -0.2200 -0.4969
 9328TIP3    H249400   3.134   6.189  15.320  0.3490  0.7134 -1.1418
 9329TIP3   OH249401   6.564   4.589   0.452  0.4040 -0.5674  0.2662
 9329TIP3    H149402   6.652   4.599   0.416  0.0169  0.0104 -0.5615
 9329TIP3    H249403   6.516   4.540   0.386 -0.2968  0.4305  0.0030
 9330TIP3   OH249404   4.159   5.393   0.668  0.2414  0.7307 -0.5510
 9330TIP3    H149405   4.174   5.423   0.758 -0.2249  0.4331 -0.3684
 9330TIP3    H249406   4.084   5.444   0.638 -1.5482 -1.2301  0.2878
 9331TIP3   OH249407   4.604   3.737  12.504 -0.1396 -0.4865  0.0276
 9331TIP3    H149408   4.633   3.825  12.526 -0.1171 -0.4430 -0.1741
 9331TIP3    H249409   4.673   3.702  12.448 -1.2267  0.2109 -1.8295
 9332TIP3   OH249410   2.044   6.416  11.996  0.1831  0.3721 -0.5554
 9332TIP3    H149411   1.948   6.420  11.992 -0.1513 -3.5569 -0.2456
 9332TIP3    H249412   2.072   6.432  11.906 -1.0166 -1.2487 -1.2630
 9333TIP3   OH249413   6.371   4.091   3.862  0.3379  0.1961 -0.5145
 9333TIP3    H149414   6.278   4.076   3.845  0.1769 -0.7222  1.0453
 9333TIP3    H249415   6.373   4.151   3.936  0.9843 -0.4680  0.0203
 9334TIP3   OH249416   4.136   5.763  16.407  0.1035 -0.0526  1.0176
 9334TIP3    H149417   4.130   5.676  16.448 -2.1912 -0.8769 -0.8403
 9334TIP3    H249418   4.047   5.781  16.377  0.6107  2.8255  1.0381
 9335TIP3   OH249419   3.401   6.280   0.516 -0.6970 -0.1111 -0.0137
 9335TIP3    H149420   3.468   6.216   0.537 -0.7279  0.4012  1.8770
 9335TIP3    H249421   3.446   6.348   0.467 -0.3363 -0.8267 -0.6848
 9336TIP3   OH249422   3.027   1.703  15.311  0.4436 -0.1331 -0.0567
 9336TIP3    H149423   2.962   1.773  15.308  0.9819  0.4432  1.1757
 9336TIP3    H249424   3.110   1.748  15.322  0.7306 -0.9706  1.4660
 9337TIP3   OH249425   1.820   1.112   0.259 -0.1867  0.5014  0.7991
 9337TIP3    H149426   1.853   1.152   0.179  1.5956  0.6723  1.5499
 9337TIP3    H249427   1.815   1.019   0.239 -1.7686  0.7637 -0.1300
 9338TIP3   OH249428   6.273   2.889  16.537  0.4109  0.6072 -0.7703
 9338TIP3    H149429   6.259   2.854  16.625  1.0975  0.7349 -0.6021
 9338TIP3    H249430   6.331   2.825  16.495  0.4671  0.7889 -0.9697
 9339TIP3   OH249431   3.483   4.348  11.304  0.4049  0.0805  0.2231
 9339TIP3    H149432   3.409   4.290  11.289  0.0334 -0.1183  2.4653
 9339TIP3    H249433   3.559   4.290  11.303  0.1104 -0.3759  1.6857
 9340TIP3   OH249434   6.268   6.606  10.848 -0.3196  1.0004  0.0699
 9340TIP3    H149435   6.356   6.641  10.866 -0.6263  0.4036  3.2992
 9340TIP3    H249436   6.213   6.683  10.841  0.5337  1.4521 -3.2209
 9341TIP3   OH249437   1.377   1.335   3.016  0.0841 -0.3901 -0.5229
 9341TIP3    H149438   1.352   1.270   2.951 -0.5067 -1.3354  0.6045
 9341TIP3    H249439   1.346   1.418   2.980 -1.2708 -1.0442 -0.9324
 9342TIP3   OH249440   1.499   4.973   2.868 -0.2548 -0.4914 -0.1373
 9342TIP3    H149441   1.548   5.053   2.853 -1.8164  1.2178  2.9072
 9342TIP3    H249442   1.512   4.921   2.789 -0.6733  3.5208 -3.1296
 9343TIP3   OH249443   5.464   0.513   1.242  0.0877  0.3268  0.2136
 9343TIP3    H149444   5.504   0.426   1.236 -0.3625  0.1927 -1.3447
 9343TIP3    H249445   5.374   0.496   1.271  0.1304  0.3163  0.3415
 9344TIP3   OH249446   4.394   4.160   1.943 -0.1612 -0.7296 -0.3449
 9344TIP3    H149447   4.401   4.101   1.868 -2.2756  0.3625 -1.4927
 9344TIP3    H249448   4.454   4.232   1.922 -1.2351 -0.0948 -1.3798
 9345TIP3   OH249449   1.422   4.037   6.311  0.0243  0.4119  0.4904
 9345TIP3    H149450   1.380   3.951   6.316  0.4762  0.2492  1.9942
 9345TIP3    H249451   1.405   4.076   6.397 -1.7137  2.5807 -0.7473
 9346TIP3   OH249452   1.032   0.156  16.757 -0.2793 -0.9736 -0.2435
 9346TIP3    H149453   1.097   0.182  16.692  1.2766 -0.6570  1.3426
 9346TIP3    H249454   0.987   0.237  16.781 -1.2735 -1.1867 -1.3152
 9347TIP3   OH249455   4.957   5.636   4.652  0.2482 -0.2757 -0.5241
 9347TIP3    H149456   5.028   5.700   4.658 -1.7087  2.0157 -0.3705
 9347TIP3    H249457   4.938   5.611   4.742 -0.4342  0.6924 -0.3794
 9348TIP3   OH249458   2.476   0.243  17.164 -0.2868  0.4446  0.1164
 9348TIP3    H149459   2.397   0.203  17.127 -0.4633 -0.2595  1.2094
 9348TIP3    H249460   2.513   0.293  17.092 -0.9498 -0.3770 -0.8272
 9349TIP3   OH249461   0.738   0.342  15.748  0.8293 -0.3084  0.2309
 9349TIP3    H149462   0.674   0.359  15.816 -1.0171 -0.6941 -1.3330
 9349TIP3    H249463   0.792   0.421  15.746 -1.2175  1.1608 -0.1153
 9350TIP3   OH249464   5.253   3.771   5.419  0.1620  0.4199 -0.0786
 9350TIP3    H149465   5.311   3.845   5.433 -0.5972  1.0999 -0.4585
 9350TIP3    H249466   5.173   3.794   5.466 -0.1874 -0.0230 -0.4447
 9351TIP3   OH249467   6.381   5.529   5.425 -0.0059 -0.3239 -0.1837
 9351TIP3    H149468   6.316   5.576   5.477 -0.2240  0.8375 -1.4620
 9351TIP3    H249469   6.399   5.586   5.350  2.8613 -0.3976  0.3531
 9352TIP3   OH249470   6.651   2.573   1.384  0.0467  0.0600  0.1851
 9352TIP3    H149471   6.595   2.509   1.428  0.7806 -0.1554  0.8268
 9352TIP3    H249472   6.648   2.547   1.292  0.4555 -1.0082  0.4585
 9353TIP3   OH249473   5.300   6.380   0.443 -0.8970 -0.4884 -0.1405
 9353TIP3    H149474   5.372   6.349   0.389  1.5356  2.9408  0.7678
 9353TIP3    H249475   5.322   6.350   0.531 -1.8288 -1.2875 -0.1629
 9354TIP3   OH249476   5.105   0.596   0.835 -0.1441  0.2238  0.2681
 9354TIP3    H149477   5.180   0.654   0.827  0.0436 -0.2012 -1.2646
 9354TIP3    H249478   5.036   0.650   0.873  0.5312  0.9790  0.4228
 9355TIP3   OH249479   1.133   1.940  11.536  0.0645 -0.1092 -0.0576
 9355TIP3    H149480   1.106   1.908  11.450  0.4315 -0.1973 -0.1414
 9355TIP3    H249481   1.054   1.935  11.589 -0.4336  0.9468 -0.6666
 9356TIP3   OH249482   2.974   4.472   3.900  0.3711  0.3955  0.2497
 9356TIP3    H149483   2.881   4.483   3.918  0.5598  1.5948  0.5876
 9356TIP3    H249484   3.014   4.554   3.931  1.6332 -0.4113  0.8397
 9357TIP3   OH249485   5.545   5.740   5.399  0.0144  0.0803 -0.5253
 9357TIP3    H149486   5.526   5.786   5.317  0.1251  1.2428  0.0785
 9357TIP3    H249487   5.458   5.717   5.434 -0.0490  0.0112 -0.7231
 9358TIP3   OH249488   1.343   3.758   5.223 -0.1253 -0.2445  0.3858
 9358TIP3    H149489   1.393   3.837   5.243  0.6298 -1.0097  1.7117
 9358TIP3    H249490   1.257   3.790   5.196  0.6214  1.0588 -0.5308
 9359TIP3   OH249491   4.871   4.297   5.368  0.0191  0.0475  0.5388
 9359TIP3    H149492   4.928   4.364   5.408  1.4517  0.0433 -1.3515
 9359TIP3    H249493   4.922   4.264   5.294 -0.9330 -2.7030  1.0197
 9360TIP3   OH249494   4.855   3.669   1.839 -0.2470 -0.0644  0.1861
 9360TIP3    H149495   4.898   3.627   1.764 -0.6563 -0.0880 -0.0375
 9360TIP3    H249496   4.920   3.663   1.909  0.5033  0.7767 -0.4138
 9361TIP3   OH249497   5.700   2.899   2.696  0.4397 -0.2256 -0.2208
 9361TIP3    H149498   5.676   2.807   2.689 -1.1697  0.0271  1.2456
 9361TIP3    H249499   5.619   2.943   2.722  1.2951  1.5260 -0.3962
 9362TIP3   OH249500   0.643   3.414   2.918  0.3922 -0.1766 -0.4422
 9362TIP3    H149501   0.615   3.388   2.830 -0.1492 -1.0990 -0.0152
 9362TIP3    H249502   0.588   3.362   2.976  1.2047 -0.0697  0.4425
 9363TIP3   OH249503   0.281   3.242   2.600 -0.6620  0.5003  0.0692
 9363TIP3    H149504   0.218   3.186   2.646 -0.3586  0.4999  0.4899
 9363TIP3    H249505   0.250   3.331   2.617  0.6044  0.6265  2.0595
 9364TIP3   OH249506   0.391   3.156  13.036  0.5177 -0.4812  0.1145
 9364TIP3    H149507   0.398   3.247  13.065 -0.5684 -0.5851  0.7382
 9364TIP3    H249508   0.456   3.149  12.965 -0.6171  1.2725 -1.2055
 9365TIP3   OH249509   2.255   0.468   5.119 -0.0140 -0.3247  0.2543
 9365TIP3    H149510   2.312   0.451   5.044  0.7227 -0.9547  0.9507
 9365TIP3    H249511   2.260   0.563   5.132  2.4340 -0.5678  1.5062
 9366TIP3   OH249512   4.662   4.763  11.595 -0.4783 -0.5784  0.2023
 9366TIP3    H149513   4.642   4.761  11.502  1.9043 -0.2976 -0.3886
 9366TIP3    H249514   4.651   4.673  11.625  0.3799 -1.0158 -0.7577
 9367TIP3   OH249515   5.008   4.650  11.039 -0.5040  0.6365 -0.2877
 9367TIP3    H149516   4.922   4.680  11.069 -0.5866  1.1526 -1.0377
 9367TIP3    H249517   4.996   4.631  10.946 -0.1285 -0.5429 -0.1207
 9368TIP3   OH249518   5.725   1.299  14.254 -0.1502 -0.1140 -0.6330
 9368TIP3    H149519   5.800   1.256  14.212 -1.2244  0.3359 -3.1193
 9368TIP3    H249520   5.659   1.307  14.186 -1.0716  2.9566  0.4474
 9369TIP3   OH249521   5.810   2.569  13.019  0.6581 -0.4412  0.3997
 9369TIP3    H149522   5.773   2.637  13.076  2.0840  0.6685  0.0485
 9369TIP3    H249523   5.799   2.488  13.069  0.0032  0.1992  1.3448
 9370TIP3   OH249524   4.219   0.416   0.001  0.2227 -0.1889  0.3916
 9370TIP3    H149525   4.282   0.393  -0.067  2.0447  0.6750  1.6831
 9370TIP3    H249526   4.183   0.500  -0.026  1.2509  0.3555  0.6496
 9371TIP3   OH249527   1.026   2.489   4.203  0.1516 -0.5434  0.1184
 9371TIP3    H149528   0.940   2.530   4.215  0.9252  0.9935  0.6733
 9371TIP3    H249529   1.034   2.476   4.109 -0.0697  0.7442 -0.0943
 9372TIP3   OH249530   4.971   1.292   2.860  0.0044 -0.4091  0.5462
 9372TIP3    H149531   4.983   1.235   2.784 -1.8280  0.5894 -0.5792
 9372TIP3    H249532   4.878   1.282   2.882 -0.3912  2.0868  0.3042
 9373TIP3   OH249533   3.626   0.051   3.849  1.1669 -0.0252 -0.3340
 9373TIP3    H149534   3.613  -0.043   3.837 -0.2805  0.1994 -0.7205
 9373TIP3    H249535   3.661   0.082   3.766 -0.4437  0.1023 -1.0034
 9374TIP3   OH249536   0.135   5.361   3.398  0.2641  0.7988 -0.7838
 9374TIP3    H149537   0.139   5.291   3.464 -0.8849  1.3133 -0.1435
 9374TIP3    H249538   0.199   5.426   3.428 -1.2147  1.6762  0.6325
 9375TIP3   OH249539   0.458   6.583   2.657  0.0391 -0.2182  0.3112
 9375TIP3    H149540   0.373   6.539   2.651 -0.0129 -0.0256 -0.3744
 9375TIP3    H249541   0.481   6.605   2.567  1.6346 -1.8199  0.2724
 9376TIP3   OH249542   2.048   0.543  12.474 -0.0570 -0.4783  0.4291
 9376TIP3    H149543   2.055   0.606  12.402  0.4559 -1.0791 -0.0599
 9376TIP3    H249544   1.967   0.495  12.455  1.1211 -2.0633 -0.9651
 9377TIP3   OH249545   2.638   2.049  10.815 -0.0600  0.0161 -0.1414
 9377TIP3    H149546   2.663   1.957  10.805  1.8908  0.0204  3.3031
 9377TIP3    H249547   2.672   2.092  10.736 -0.1492 -1.9839 -1.3452
 9378TIP3   OH249548   6.608   6.430   0.253 -0.2551 -0.1699  0.2709
 9378TIP3    H149549   6.685   6.404   0.303 -0.8497 -0.8541  0.8432
 9378TIP3    H249550   6.642   6.487   0.184  1.1270 -2.5569 -1.1474
 9379TIP3   OH249551   5.057   1.339  14.970  0.5378  0.2531 -0.4886
 9379TIP3    H149552   4.971   1.354  14.930 -0.0985  0.1105  0.7721
 9379TIP3    H249553   5.097   1.426  14.972 -0.0362  0.5110 -0.0679
 9380TIP3   OH249554   1.042   3.261   4.100 -1.1322 -0.0646 -0.0840
 9380TIP3    H149555   1.055   3.266   4.194 -2.2262  1.4902  0.0289
 9380TIP3    H249556   0.948   3.244   4.089 -1.0195 -0.2214 -0.8943
 9381TIP3   OH249557   2.615   3.951  10.623  0.1963  0.0611  0.3041
 9381TIP3    H149558   2.533   3.901  10.620  0.1138  0.2218 -0.3720
 9381TIP3    H249559   2.602   4.015  10.692 -0.1087 -0.1509  0.4459
 9382TIP3   OH249560   3.870   3.037   2.329  0.4369 -0.6081 -0.0184
 9382TIP3    H149561   3.896   2.957   2.285 -1.3031 -1.2189 -0.0016
 9382TIP3    H249562   3.846   3.097   2.258 -1.4747 -1.2822 -0.0203
 9383TIP3   OH249563   4.746   2.763   2.336 -0.2230  0.6127 -0.2994
 9383TIP3    H149564   4.780   2.806   2.414  1.4988 -1.4741  0.1961
 9383TIP3    H249565   4.792   2.806   2.263  1.8222 -0.5310  0.2157
 9384TIP3   OH249566   0.055   1.593   5.113  0.4940  0.2045 -0.2989
 9384TIP3    H149567   0.120   1.524   5.123 -0.2430 -0.6953 -1.4484
 9384TIP3    H249568  -0.017   1.551   5.065 -1.6628  0.6995  2.2974
 9385TIP3   OH249569   5.619   3.383  11.695 -0.1192 -0.0473  0.2764
 9385TIP3    H149570   5.527   3.404  11.680  0.0951 -0.2797 -1.6467
 9385TIP3    H249571   5.637   3.310  11.636  1.2552 -0.1175  0.7470
 9386TIP3   OH249572   2.027   3.197  15.647  0.4011 -0.0453 -0.0895
 9386TIP3    H149573   2.116   3.172  15.672 -0.3587 -1.5752  1.3611
 9386TIP3    H249574   1.971   3.132  15.691 -1.4202  0.7183 -1.1528
 9387TIP3   OH249575   3.004   1.357   3.690 -0.4495 -0.3394  0.0067
 9387TIP3    H149576   3.062   1.290   3.653 -0.4793 -1.0764  1.2510
 9387TIP3    H249577   2.916   1.320   3.680 -0.5758  0.0644 -0.4117
 9388TIP3   OH249578   6.349   5.042  13.218  0.2358  0.0155 -0.1103
 9388TIP3    H149579   6.384   4.954  13.203 -0.2692 -0.3428  0.7391
 9388TIP3    H249580   6.394   5.073  13.296  0.2662  0.4339 -0.2910
 9389TIP3   OH249581   2.768   6.394  16.572  0.4298  0.0352  0.4307
 9389TIP3    H149582   2.736   6.338  16.643 -0.7975  0.6817  0.4134
 9389TIP3    H249583   2.690   6.413  16.520  0.9520  1.1816  0.0406
 9390TIP3   OH249584   2.594   2.635  17.258  0.2035 -0.3078 -0.0540
 9390TIP3    H149585   2.541   2.621  17.180  0.3614 -0.9605 -0.0500
 9390TIP3    H249586   2.681   2.605  17.234  0.0630 -1.3138  0.6366
 9391TIP3   OH249587   5.507   1.314   4.888  0.3839  0.7477 -0.1536
 9391TIP3    H149588   5.499   1.223   4.859  1.5232  0.0507  1.5203
 9391TIP3    H249589   5.601   1.333   4.882  0.5524  0.8531  2.0605
 9392TIP3   OH249590   4.528   5.068  12.827  0.0407  0.0713  0.1159
 9392TIP3    H149591   4.490   5.063  12.914 -3.7028  2.1949 -1.1841
 9392TIP3    H249592   4.459   5.039  12.768  2.9614 -2.9202 -2.2535
 9393TIP3   OH249593   0.055   6.552   5.491  0.3303  0.2384  0.2464
 9393TIP3    H149594   0.135   6.604   5.502  1.1200 -0.6956 -0.8618
 9393TIP3    H249595   0.057   6.491   5.564  0.8611 -0.0560 -0.0079
 9394TIP3   OH249596   4.149   4.837   0.460  0.3888  0.5590  0.0329
 9394TIP3    H149597   4.189   4.868   0.541 -1.2701 -0.0654  1.1340
 9394TIP3    H249598   4.157   4.911   0.400 -0.5490  1.9433  1.5413
 9395TIP3   OH249599   0.741   5.153   3.223 -0.2743  0.0381  0.6631
 9395TIP3    H149600   0.689   5.129   3.146  0.5384  1.5239 -0.4069
 9395TIP3    H249601   0.815   5.202   3.188  0.7537 -0.2475  2.3215
 9396TIP3   OH249602   1.468   2.996  11.343 -0.3888 -0.2051  0.7433
 9396TIP3    H149603   1.425   2.931  11.289 -1.1276  1.0311 -0.2049
 9396TIP3    H249604   1.402   3.064  11.357  0.6243  0.7726  0.9419
 9397TIP3   OH249605   4.205   4.977  17.253  0.2678  0.0388  0.2916
 9397TIP3    H149606   4.295   4.989  17.222  0.4435  1.1731  1.1853
 9397TIP3    H249607   4.199   4.883  17.271  1.0609 -0.1602 -0.3877
 9398TIP3   OH249608   3.809   1.700   3.707 -0.5522  0.0719  0.3706
 9398TIP3    H149609   3.858   1.721   3.628 -1.1419 -1.2096 -0.3764
 9398TIP3    H249610   3.772   1.783   3.736 -0.3539  0.5572 -0.7250
 9399TIP3   OH249611   6.051   1.972  16.275  0.5292 -0.3753  0.2154
 9399TIP3    H149612   6.132   1.923  16.262  0.5898 -0.4524  0.8767
 9399TIP3    H249613   5.982   1.908  16.266  0.6158 -0.6282  1.2599
 9400TIP3   OH249614   5.947   4.694  11.507 -0.0716  0.6250 -0.3903
 9400TIP3    H149615   5.866   4.734  11.474 -0.8994 -0.4951  0.2311
 9400TIP3    H249616   5.971   4.630  11.440  1.0738  1.8758 -1.2250
 9401TIP3   OH249617   0.062   1.838   1.480  0.7701 -0.2242 -0.1712
 9401TIP3    H149618   0.080   1.925   1.515 -1.1930  0.1471  0.0203
 9401TIP3    H249619   0.068   1.780   1.555 -0.1099  0.0813  0.1426
 9402TIP3   OH249620   5.591   4.886   0.655  0.4744 -0.0161 -0.3063
 9402TIP3    H149621   5.631   4.972   0.665 -0.3317  0.2844  0.4305
 9402TIP3    H249622   5.509   4.903   0.608  0.4088 -0.4081 -0.3366
 9403TIP3   OH249623   5.683   3.076   1.286  0.2432 -0.3723  0.5837
 9403TIP3    H149624   5.729   3.038   1.211  0.2587 -0.7967  0.8051
 9403TIP3    H249625   5.591   3.080   1.258  0.6254  2.3370 -0.6364
 9404TIP3   OH249626   6.407   0.354  13.835  0.0759  0.0817 -0.0490
 9404TIP3    H149627   6.354   0.426  13.799  0.2538  0.1116 -0.2515
 9404TIP3    H249628   6.363   0.275  13.805 -0.3611  0.1026  0.5241
 9405TIP3   OH249629   3.659   1.926   5.718  0.2703 -0.2126  0.7602
 9405TIP3    H149630   3.751   1.904   5.729  0.9702  2.7358  1.6559
 9405TIP3    H249631   3.648   1.939   5.624 -0.0167 -3.2251  0.2727
 9406TIP3   OH249632   6.386   4.175  12.073  0.0628 -0.0288 -0.4850
 9406TIP3    H149633   6.309   4.118  12.083  0.1862 -0.1026  0.0974
 9406TIP3    H249634   6.459   4.114  12.063  0.0496  0.0419 -1.0272
 9407TIP3   OH249635   3.977   2.695   2.337 -0.3338 -0.1724  0.1396
 9407TIP3    H149636   3.971   2.764   2.271  1.0953  1.3182  1.4485
 9407TIP3    H249637   3.917   2.627   2.307 -0.6510  0.9641 -2.0216
 9408TIP3   OH249638   4.839   1.098  11.688 -0.2768  0.3766 -0.5840
 9408TIP3    H149639   4.907   1.081  11.622  0.5919  0.4149  0.2729
 9408TIP3    H249640   4.855   1.032  11.755 -0.1421  1.3227  0.3295
 9409TIP3   OH249641   3.924   4.315  11.872  0.0813 -0.2232 -0.2066
 9409TIP3    H149642   3.907   4.225  11.902  0.0556 -0.2154 -0.1974
 9409TIP3    H249643   3.843   4.340  11.827  0.3039 -0.4192 -0.7245
 9410TIP3   OH249644   2.022   0.748   4.376 -0.0640 -0.4044 -0.1181
 9410TIP3    H149645   2.005   0.711   4.290 -0.1892  0.0902 -0.3064
 9410TIP3    H249646   2.117   0.760   4.378  0.2397 -2.5094  0.6717
 9411TIP3   OH249647   4.740   5.088   6.142  0.2631 -0.5633 -0.1025
 9411TIP3    H149648   4.817   5.112   6.091  0.6738 -1.3818  0.1001
 9411TIP3    H249649   4.679   5.053   6.077  0.2952 -0.4581 -0.1899
 9412TIP3   OH249650   3.324   0.571  11.904  0.1728  0.2111  0.1391
 9412TIP3    H149651   3.347   0.537  11.817 -0.9482  0.9728 -0.4799
 9412TIP3    H249652   3.385   0.643  11.918  0.0870  0.3558 -0.2100
 9413TIP3   OH249653   0.646   5.741  11.258 -0.3733  0.0848  0.1580
 9413TIP3    H149654   0.686   5.827  11.273  0.2984 -0.3914  1.1463
 9413TIP3    H249655   0.631   5.705  11.345 -0.7649 -0.7516 -0.2425
 9414TIP3   OH249656   0.159   3.057   1.837 -0.4192 -0.1259  0.6667
 9414TIP3    H149657   0.121   3.065   1.924 -0.1455  1.5492  0.6702
 9414TIP3    H249658   0.194   3.145   1.818  0.5334 -0.7582 -0.6571
 9415TIP3   OH249659   4.224   1.571  14.471  0.0644 -0.6903  0.1721
 9415TIP3    H149660   4.270   1.574  14.387  0.6889  0.6605  0.5329
 9415TIP3    H249661   4.194   1.481  14.479  2.2752 -1.5319 -0.3026
 9416TIP3   OH249662   5.089   0.762  16.953  0.2524 -0.0436  0.1829
 9416TIP3    H149663   5.102   0.670  16.926  2.2938 -0.0968  1.1783
 9416TIP3    H249664   5.028   0.797  16.888  1.0982 -1.5279 -1.5037
 9417TIP3   OH249665   3.793   1.090  12.249 -0.0166  0.4806  0.0520
 9417TIP3    H149666   3.755   1.072  12.163 -0.4561  2.0779 -0.1234
 9417TIP3    H249667   3.799   1.186  12.253 -0.6084  0.4749  2.0519
 9418TIP3   OH249668   1.047   5.959  16.788  0.2366 -0.5474  0.3372
 9418TIP3    H149669   1.118   5.978  16.726 -1.6335 -0.5147 -1.9596
 9418TIP3    H249670   1.091   5.917  16.862  2.6432 -0.5734 -0.9775
 9419TIP3   OH249671   2.117   0.411   1.269  0.0007 -0.1479  0.3306
 9419TIP3    H149672   2.078   0.342   1.216 -0.2270  0.3831 -0.2063
 9419TIP3    H249673   2.117   0.488   1.212  1.5760 -0.0595  0.4098
 9420TIP3   OH249674   1.836   3.764   4.317  0.3839 -0.0973  0.1278
 9420TIP3    H149675   1.769   3.779   4.384  0.4395 -0.8705  0.3655
 9420TIP3    H249676   1.791   3.781   4.234 -0.9719 -3.2316  0.0743
 9421TIP3   OH249677   3.618   6.308   5.470  0.0988 -0.1928  0.6053
 9421TIP3    H149678   3.636   6.284   5.379  1.9631  0.6887  0.7001
 9421TIP3    H249679   3.531   6.348   5.467 -0.2324 -0.9458 -0.6331
 9422TIP3   OH249680   3.888   4.274  16.275  0.4696  0.0169 -1.0254
 9422TIP3    H149681   3.939   4.328  16.215  0.0336 -0.2994 -1.6994
 9422TIP3    H249682   3.895   4.185  16.239  0.0071 -0.1374 -0.7466
 9423TIP3   OH249683   4.007   6.569  11.616 -0.2997  0.6366  0.5607
 9423TIP3    H149684   3.912   6.566  11.632 -0.2661 -1.0960  0.5985
 9423TIP3    H249685   4.040   6.488  11.654  0.9389  0.3361 -1.0561
 9424TIP3   OH249686   1.890   1.149   0.530  0.3985  0.0596 -0.5613
 9424TIP3    H149687   1.983   1.165   0.551  0.4113  1.5665 -1.5657
 9424TIP3    H249688   1.888   1.143   0.434 -0.1339 -3.1902 -0.4656
 9425TIP3   OH249689   4.015   6.457   1.952  0.2221  0.9446 -0.0875
 9425TIP3    H149690   4.032   6.364   1.940 -1.2276  0.4801  1.1184
 9425TIP3    H249691   3.962   6.482   1.876 -0.2525  0.5309  0.1053
 9426TIP3   OH249692   2.479   2.145   1.486  0.2198 -0.2819  0.1357
 9426TIP3    H149693   2.532   2.091   1.428  0.4226  0.6284 -0.5427
 9426TIP3    H249694   2.517   2.233   1.479  0.2426 -0.1393  1.6354
 9427TIP3   OH249695   2.984   4.370   4.578  0.5872  0.3948 -0.2918
 9427TIP3    H149696   2.987   4.277   4.557  1.1316  0.7167 -1.7197
 9427TIP3    H249697   3.073   4.402   4.563  0.3270  1.2237 -0.1482
 9428TIP3   OH249698   1.303   1.276   4.166  0.1785  0.2395 -0.4324
 9428TIP3    H149699   1.237   1.234   4.221  2.3051 -1.0514  1.3060
 9428TIP3    H249700   1.297   1.369   4.190 -1.3439  0.2573 -0.7561
 9429TIP3   OH249701   6.240   0.127  13.782  0.6064 -0.4073  0.0602
 9429TIP3    H149702   6.275   0.062  13.721 -1.2976 -0.4325 -1.1149
 9429TIP3    H249703   6.194   0.076  13.848 -0.2041 -0.3112 -0.4124
 9430TIP3   OH249704   5.827   5.760   5.586  0.0763  0.8047  0.6196
 9430TIP3    H149705   5.905   5.720   5.625  0.9489  0.4974 -1.2856
 9430TIP3    H249706   5.828   5.729   5.495 -2.1453  1.0059  0.4764
 9431TIP3   OH249707   5.237   0.850   3.538 -0.2002 -0.0177 -0.1234
 9431TIP3    H149708   5.142   0.855   3.529 -0.1521 -1.8171 -3.4964
 9431TIP3    H249709   5.253   0.764   3.578 -0.0042 -0.1171 -0.4089
 9432TIP3   OH249710   6.447   3.752  12.460  0.1224  0.5703 -0.2882
 9432TIP3    H149711   6.405   3.832  12.492 -1.0622 -0.5098  0.9754
 9432TIP3    H249712   6.378   3.704  12.415  0.7263  0.0804 -0.7158
 9433TIP3   OH249713   1.462   3.816   5.803 -0.2408  0.7881  0.4385
 9433TIP3    H149714   1.417   3.785   5.724 -0.2065  0.5121  0.5255
 9433TIP3    H249715   1.399   3.804   5.873 -1.0340  2.9484  0.1600
 9434TIP3   OH249716   3.456   5.630  13.432 -0.0242 -0.2459 -0.7750
 9434TIP3    H149717   3.446   5.535  13.427  1.9690 -0.5048 -0.5049
 9434TIP3    H249718   3.457   5.658  13.340 -1.2236 -0.3868 -0.8479
 9435TIP3   OH249719   5.503   2.743  14.372 -0.7867 -0.5907 -0.3033
 9435TIP3    H149720   5.550   2.720  14.452  2.3114 -0.6998 -2.0186
 9435TIP3    H249721   5.524   2.835  14.358 -0.9559 -0.6864 -1.2054
 9436TIP3   OH249722   5.418   5.068  12.139  0.5694  0.0131  0.0275
 9436TIP3    H149723   5.365   5.122  12.080  2.6589 -0.0036 -2.0362
 9436TIP3    H249724   5.471   5.014  12.080  2.1457 -0.6520  1.9587
 9437TIP3   OH249725   2.631   5.745  16.338  0.4980 -0.2694  0.0869
 9437TIP3    H149726   2.605   5.828  16.299  1.2262  0.5511  1.2815
 9437TIP3    H249727   2.657   5.690  16.264  0.6475  0.7885 -0.6668
 9438TIP3   OH249728   3.632   1.739   1.703  0.1312 -0.3287 -0.2153
 9438TIP3    H149729   3.586   1.753   1.785 -1.1976 -1.7591 -0.6655
 9438TIP3    H249730   3.606   1.651   1.675  3.1427 -1.2486 -0.5244
 9439TIP3   OH249731   3.795   5.480  11.953 -0.0392 -0.1033  0.4623
 9439TIP3    H149732   3.810   5.537  12.029 -0.8646 -0.7571  1.1371
 9439TIP3    H249733   3.742   5.533  11.894 -1.1876 -0.2912  1.2821
 9440TIP3   OH249734   2.107   1.235   3.591 -0.2166 -0.4199 -0.4769
 9440TIP3    H149735   2.164   1.266   3.521  1.0733 -1.1949  0.1902
 9440TIP3    H249736   2.036   1.300   3.595  1.6853  1.7590  0.0379
 9441TIP3   OH249737   0.935   3.397   3.798 -0.7763 -0.2087  0.4629
 9441TIP3    H149738   0.902   3.353   3.720  0.4676 -1.4825  0.6192
 9441TIP3    H249739   0.879   3.366   3.869 -0.9252 -0.2800  0.3147
 9442TIP3   OH249740   3.687   4.719  16.247 -0.0417  0.2731 -0.3312
 9442TIP3    H149741   3.648   4.758  16.325 -1.1605  1.7438 -1.5580
 9442TIP3    H249742   3.615   4.712  16.185  0.7279 -1.2738 -1.1084
 9443TIP3   OH249743   5.354   5.663   3.026 -0.2924  0.1767 -0.3849
 9443TIP3    H149744   5.372   5.643   2.934  0.5825  2.2787 -0.7347
 9443TIP3    H249745   5.433   5.637   3.073 -0.5286 -0.4037 -0.3089
 9444TIP3   OH249746   5.461   2.702  16.731 -0.2082  0.1478 -0.1978
 9444TIP3    H149747   5.554   2.683  16.736 -0.0282  1.2388  0.8566
 9444TIP3    H249748   5.439   2.740  16.816 -1.2131  1.6454 -1.0799
 9445TIP3   OH249749   5.453   4.196   1.416 -0.7475 -0.3088  0.4030
 9445TIP3    H149750   5.539   4.159   1.394 -0.3690 -0.1689  1.5592
 9445TIP3    H249751   5.452   4.282   1.376 -1.4167 -1.2864 -1.8591
 9446TIP3   OH249752   5.965   3.867   1.389 -0.0854  0.1618  0.3769
 9446TIP3    H149753   5.988   3.895   1.300 -1.4932 -0.9353 -0.3639
 9446TIP3    H249754   5.939   3.947   1.434  0.8389  0.7560 -0.1074
 9447TIP3   OH249755   3.777   4.019  13.255 -0.4410 -0.4254 -0.0984
 9447TIP3    H149756   3.682   4.021  13.267 -1.1719  3.1970 -4.1953
 9447TIP3    H249757   3.807   4.105  13.284  1.7305 -1.5557  1.2864
 9448TIP3   OH249758   2.342   5.698  11.420 -0.5907 -0.2289 -0.8020
 9448TIP3    H149759   2.357   5.609  11.453  2.0976 -0.4803 -2.3704
 9448TIP3    H249760   2.341   5.688  11.324 -1.9109  1.2566 -0.9812
 9449TIP3   OH249761   0.063   5.616  11.194 -0.3467  0.1964 -0.1539
 9449TIP3    H149762  -0.015   5.668  11.210 -0.4917  0.2573 -1.0282
 9449TIP3    H249763   0.041   5.560  11.120  0.5629  0.4798 -0.6587
 9450TIP3   OH249764   5.480   5.593   1.852  0.4757  0.1733 -0.3263
 9450TIP3    H149765   5.442   5.675   1.820 -1.0022 -0.8893 -1.3905
 9450TIP3    H249766   5.515   5.616   1.938  0.4412  2.0117 -0.7602
 9451TIP3   OH249767   1.203   3.833  14.357 -0.0501  0.8932 -0.1104
 9451TIP3    H149768   1.115   3.863  14.335  0.3542  2.3577  0.1774
 9451TIP3    H249769   1.261   3.897  14.316  0.8897 -0.0712 -0.3246
 9452TIP3   OH249770   4.324   4.240   4.020  0.1139 -0.3667  0.2342
 9452TIP3    H149771   4.236   4.212   4.049 -0.5348 -0.1213 -1.4040
 9452TIP3    H249772   4.350   4.175   3.956  0.1230  0.8011 -0.9914
 9453TIP3   OH249773   0.912   0.078  12.559 -0.3518  0.1732 -0.8750
 9453TIP3    H149774   0.981   0.086  12.493 -0.2638  1.0635 -0.6823
 9453TIP3    H249775   0.880   0.167  12.572 -1.1974 -0.1568 -0.5869
 9454TIP3   OH249776   1.092   4.631  16.815  0.0212 -0.3594  0.4758
 9454TIP3    H149777   1.004   4.616  16.781  0.7830 -2.2056 -0.8529
 9454TIP3    H249778   1.147   4.569  16.767  1.5828 -1.4048  3.3901
 9455TIP3   OH249779   0.354   5.440  13.395  0.3869 -0.5909 -0.5316
 9455TIP3    H149780   0.323   5.513  13.341  0.5170 -1.0416 -1.2235
 9455TIP3    H249781   0.440   5.419  13.360  0.3152 -1.1319 -0.3889
 9456TIP3   OH249782   1.205   5.892   4.044  0.1539 -0.2550  0.1984
 9456TIP3    H149783   1.142   5.843   4.097 -0.2073  0.2519  0.2470
 9456TIP3    H249784   1.190   5.984   4.067 -1.3242  0.1815 -2.1220
 9457TIP3   OH249785   5.984   5.644  15.585 -0.1006  0.2316 -0.2868
 9457TIP3    H149786   5.985   5.701  15.508  0.3892  0.7416  0.0867
 9457TIP3    H249787   5.940   5.696  15.652 -0.1997 -0.0696 -0.1186
 9458TIP3   OH249788   3.373   4.771   5.997 -0.3773  0.4885 -0.6140
 9458TIP3    H149789   3.359   4.745   5.906 -0.0284 -1.7528 -0.0784
 9458TIP3    H249790   3.288   4.805   6.026 -1.2833 -1.3307 -1.0015
 9459TIP3   OH249791   5.766   3.233   4.096  0.9360  0.8198  0.4682
 9459TIP3    H149792   5.765   3.218   4.001  0.6419  1.1720  0.4138
 9459TIP3    H249793   5.708   3.308   4.109 -0.5161 -0.3552  1.1167
 9460TIP3   OH249794   2.694   6.596   4.739 -0.2025 -0.0366  0.0135
 9460TIP3    H149795   2.709   6.510   4.780 -1.2161  0.5642  1.7703
 9460TIP3    H249796   2.777   6.642   4.749 -0.2967 -0.0677  1.0283
 9461TIP3   OH249797   5.455   6.311   1.928 -0.1031 -0.1101  0.1813
 9461TIP3    H149798   5.502   6.255   1.867  0.0739  1.8780 -1.6239
 9461TIP3    H249799   5.385   6.255   1.963  1.0497 -1.8974 -0.2232
 9462TIP3   OH249800   2.726   1.128   1.223  0.4038  0.7585  0.0890
 9462TIP3    H149801   2.653   1.147   1.282  0.2001 -0.5515  0.2969
 9462TIP3    H249802   2.802   1.168   1.265  0.0955  0.6519  0.7650
 9463TIP3   OH249803   1.605   1.399   3.526  0.4386 -0.0974 -0.2279
 9463TIP3    H149804   1.566   1.321   3.487  0.3973 -0.2276  0.0696
 9463TIP3    H249805   1.660   1.436   3.457  0.1889 -0.1995 -0.4799
 9464TIP3   OH249806   2.916   5.338  15.152 -0.2843  0.5404  0.3118
 9464TIP3    H149807   2.865   5.418  15.169  0.6647  1.2185  0.0794
 9464TIP3    H249808   3.007   5.366  15.161  0.0627 -0.5340  0.2373
 9465TIP3   OH249809   2.270   1.947  13.822 -0.5005  0.2819 -0.1277
 9465TIP3    H149810   2.345   2.005  13.835  0.2700 -0.5502 -0.6952
 9465TIP3    H249811   2.271   1.890  13.899 -1.8598  1.6123  0.9370
 9466TIP3   OH249812   3.396   4.785  16.920 -0.1491  0.0071 -0.3803
 9466TIP3    H149813   3.483   4.822  16.932  0.3891 -1.4018  0.2434
 9466TIP3    H249814   3.403   4.696  16.953 -2.0427  0.1210  0.4637
 9467TIP3   OH249815   1.193   5.213   4.916  0.3753 -0.2048 -0.0262
 9467TIP3    H149816   1.125   5.225   4.982 -1.3198 -1.7647 -1.3854
 9467TIP3    H249817   1.260   5.278   4.939 -1.2714  0.9953  1.7187
 9468TIP3   OH249818   0.392   0.228   1.500 -0.0142  0.0032  0.0636
 9468TIP3    H149819   0.398   0.235   1.595 -0.9821 -0.5422  0.1818
 9468TIP3    H249820   0.376   0.135   1.484  0.9282 -0.0475 -0.6915
 9469TIP3   OH249821   3.904   3.696  10.437  0.0084  0.2228  0.7632
 9469TIP3    H149822   3.818   3.702  10.478  0.1531 -1.0983  1.3117
 9469TIP3    H249823   3.914   3.779  10.390 -1.3526  0.5943  1.0810
 9470TIP3   OH249824   1.148   5.183   1.758 -0.0630 -0.3084  0.2710
 9470TIP3    H149825   1.137   5.189   1.853  1.7191  1.5820  0.4314
 9470TIP3    H249826   1.132   5.272   1.727  1.3878 -0.4221 -0.9284
 9471TIP3   OH249827   4.486   6.096  12.591 -0.2727  0.0068 -0.3341
 9471TIP3    H149828   4.431   6.035  12.541 -1.8941  0.3155  0.9933
 9471TIP3    H249829   4.526   6.152  12.524 -2.1735  0.2384 -1.3468
 9472TIP3   OH249830   1.045   1.728   4.626 -0.2453  0.4457 -0.2428
 9472TIP3    H149831   1.020   1.673   4.700 -2.2856  1.7795  0.1479
 9472TIP3    H249832   1.096   1.798   4.665 -1.3534  1.1699 -0.0418
 9473TIP3   OH249833   1.831   2.071  13.421 -0.0687 -0.3201 -0.2038
 9473TIP3    H149834   1.762   2.009  13.446  0.3249 -0.8045 -0.2913
 9473TIP3    H249835   1.904   2.015  13.395  0.6103  0.1771  0.5912
 9474TIP3   OH249836   2.793   5.959  11.900 -0.1308 -0.5546  0.1038
 9474TIP3    H149837   2.717   5.993  11.852  0.4851 -1.0567 -1.2976
 9474TIP3    H249838   2.851   5.926  11.831  1.3300 -0.2413  1.1446
 9475TIP3   OH249839   0.906   2.658  15.843 -0.1907  0.2172  0.3616
 9475TIP3    H149840   0.968   2.646  15.771 -0.2319  1.3381  0.1225
 9475TIP3    H249841   0.828   2.696  15.801 -0.1727  0.9897  1.0051
 9476TIP3   OH249842   6.749   4.785   5.929 -0.3257  0.5091  0.2106
 9476TIP3    H149843   6.774   4.747   6.013 -0.8582  1.9619  1.0734
 9476TIP3    H249844   6.824   4.772   5.872  1.2363  2.0282  1.7962
 9477TIP3   OH249845   5.973   0.328   0.215 -0.5391 -0.0527 -0.1148
 9477TIP3    H149846   6.062   0.295   0.202 -0.6577 -0.1090 -0.7733
 9477TIP3    H249847   5.985   0.421   0.233 -0.3337 -0.1018  0.0093
 9478TIP3   OH249848   3.852   0.551   0.737 -0.3891  0.3163 -0.0621
 9478TIP3    H149849   3.943   0.526   0.722 -0.7574 -1.3515  0.3212
 9478TIP3    H249850   3.804   0.514   0.664 -0.9863 -0.2963  0.6259
 9479TIP3   OH249851   3.920   2.629  15.585  0.2212 -0.2377  0.4749
 9479TIP3    H149852   4.007   2.603  15.555 -0.0116  0.1732 -0.6309
 9479TIP3    H249853   3.860   2.574  15.534 -0.2466  1.7197 -1.2388
 9480TIP3   OH249854   6.562   3.521   0.754 -0.1409 -0.1321  0.0357
 9480TIP3    H149855   6.618   3.448   0.782 -1.2960  0.1129  3.3860
 9480TIP3    H249856   6.623   3.595   0.747  0.8136 -1.0204 -2.0954
 9481TIP3   OH249857   5.702   3.319  13.943  0.1619 -0.3919  0.1842
 9481TIP3    H149858   5.777   3.263  13.964 -0.7299 -1.1658  1.4337
 9481TIP3    H249859   5.657   3.272  13.873  0.9783  0.2280 -0.7896
 9482TIP3   OH249860   3.184   0.680   5.587 -0.6505  0.0803  0.4292
 9482TIP3    H149861   3.227   0.634   5.659 -0.6260 -0.9562 -0.2379
 9482TIP3    H249862   3.101   0.712   5.625 -1.2078 -1.5107  0.6067
 9483TIP3   OH249863   6.751   1.441  14.425  0.0273 -0.2215 -0.1172
 9483TIP3    H149864   6.736   1.363  14.371  0.9615  0.4387 -1.3824
 9483TIP3    H249865   6.800   1.501  14.368  0.6967  0.6708  1.3276
 9484TIP3   OH249866   3.572   5.803   3.099  0.0064 -0.3227  0.4053
 9484TIP3    H149867   3.491   5.837   3.138  0.0728 -0.9844  1.1404
 9484TIP3    H249868   3.547   5.778   3.010 -0.1095  1.3703 -0.0723
 9485TIP3   OH249869   3.990   2.268   4.842  0.0584 -0.2127  0.4022
 9485TIP3    H149870   3.912   2.265   4.787  0.6953 -0.7765 -0.4802
 9485TIP3    H249871   4.042   2.341   4.807  0.2499 -0.2786  0.5424
 9486TIP3   OH249872   5.965   6.667   5.571 -0.0080  0.4709  0.1688
 9486TIP3    H149873   6.000   6.705   5.491  1.5887  0.8348  1.0093
 9486TIP3    H249874   6.040   6.657   5.629 -0.7144 -1.9372  0.8068
 9487TIP3   OH249875   4.754   3.292   2.388 -0.0508 -0.7450  0.2103
 9487TIP3    H149876   4.693   3.230   2.427  1.1802 -2.7345 -0.8376
 9487TIP3    H249877   4.735   3.289   2.294  2.4541 -2.5526 -0.3641
 9488TIP3   OH249878   5.324   1.530  17.043  0.7296 -0.9147 -0.0283
 9488TIP3    H149879   5.333   1.619  17.010  1.1857 -0.7318  0.5872
 9488TIP3    H249880   5.249   1.534  17.102  0.3844 -1.0748 -0.4483
 9489TIP3   OH249881   4.126   3.849   0.599  0.5460  0.5904  0.0900
 9489TIP3    H149882   4.158   3.817   0.515  0.1829  2.8275 -0.9734
 9489TIP3    H249883   4.037   3.815   0.606  0.4831  0.6105 -0.5792
 9490TIP3   OH249884   1.714   5.001  16.545 -0.4021 -0.2903  0.1748
 9490TIP3    H149885   1.728   4.943  16.620  2.2458  0.1827  0.1404
 9490TIP3    H249886   1.754   4.955  16.471  1.3785  1.2981  0.0693
 9491TIP3   OH249887   2.517   1.734   4.076 -0.1604  0.2238 -0.1506
 9491TIP3    H149888   2.470   1.697   4.151  2.7631 -2.7536  0.4268
 9491TIP3    H249889   2.585   1.789   4.115  0.6573 -0.4211 -0.6380
 9492TIP3   OH249890   6.722   4.253  15.678 -0.2258 -0.2249  0.3967
 9492TIP3    H149891   6.813   4.261  15.704 -0.0837  0.0695 -0.1820
 9492TIP3    H249892   6.694   4.343  15.660 -0.6109 -0.3203  0.4992
 9493TIP3   OH249893   4.189   1.364   6.256 -0.6857  0.1409 -0.7702
 9493TIP3    H149894   4.206   1.274   6.230 -1.5969  0.3971 -2.3930
 9493TIP3    H249895   4.275   1.398   6.282 -0.5517 -1.5415  1.1507
 9494TIP3   OH249896   0.650   4.255   6.721  0.3290 -0.6297  0.0328
 9494TIP3    H149897   0.605   4.336   6.744  0.9572  0.0819 -1.1463
 9494TIP3    H249898   0.584   4.187   6.732 -0.1128 -0.0221  1.3801
 9495TIP3   OH249899   2.406   3.016   5.603  0.5183  0.2267  0.0727
 9495TIP3    H149900   2.413   3.108   5.628  0.7327  0.9320 -2.3233
 9495TIP3    H249901   2.352   2.976   5.671  0.5815  2.0775  1.2546
 9496TIP3   OH249902   0.621   2.282   5.094  0.1598 -0.4054  0.2146
 9496TIP3    H149903   0.589   2.221   5.028  0.7136  0.0938 -0.5425
 9496TIP3    H249904   0.699   2.240   5.130  1.4480  0.4509 -1.3842
 9497TIP3   OH249905   6.312   6.359  15.348 -0.1694 -0.1279  0.2651
 9497TIP3    H149906   6.233   6.316  15.316 -1.8675  2.8869  0.1401
 9497TIP3    H249907   6.305   6.450  15.320  1.7793  1.0176  2.9685
 9498TIP3   OH249908   6.258   0.344  13.308 -0.3751  0.0898  0.2601
 9498TIP3    H149909   6.214   0.261  13.288 -1.3007  0.8640 -1.1839
 9498TIP3    H249910   6.186   0.406  13.322  0.2517  1.0313 -0.5266
 9499TIP3   OH249911   1.217   3.111  11.345 -0.5079  0.5020 -0.4693
 9499TIP3    H149912   1.166   3.192  11.340 -1.0380  0.0972 -2.6260
 9499TIP3    H249913   1.167   3.048  11.294  1.0007 -0.5767 -0.6849
 9500TIP3   OH249914   5.821   6.343  16.389  0.0601 -1.1027 -0.3575
 9500TIP3    H149915   5.904   6.370  16.426 -1.1883  1.9076  0.5698
 9500TIP3    H249916   5.799   6.262  16.435  2.0339 -1.5025 -0.0282
 9501TIP3   OH249917   3.170   6.215  14.166  0.4737  0.0897 -0.5170
 9501TIP3    H149918   3.153   6.128  14.202  0.2416 -0.0932 -1.0556
 9501TIP3    H249919   3.107   6.273  14.210  0.6343 -0.0107 -0.1540
 9502TIP3   OH249920   6.177   6.679   2.139 -0.1761  0.2575 -0.7445
 9502TIP3    H149921   6.202   6.609   2.199  0.5146 -0.6479 -2.0360
 9502TIP3    H249922   6.255   6.734   2.133 -0.6056  0.9682  0.0057
 9503TIP3   OH249923   3.271   2.687   0.306 -0.2905 -0.4224 -0.4376
 9503TIP3    H149924   3.355   2.641   0.313  0.2104  0.6339  0.7546
 9503TIP3    H249925   3.294   2.777   0.285 -1.1357 -0.1414 -0.2154
 9504TIP3   OH249926   0.012   0.892  15.096 -0.2160 -0.0576 -0.4122
 9504TIP3    H149927   0.007   0.860  15.006  0.6358  2.2252 -1.3687
 9504TIP3    H249928  -0.057   0.958  15.102  1.5290  1.8615 -0.3852
 9505TIP3   OH249929   0.925   6.562   1.077  0.0634  0.1338 -0.4162
 9505TIP3    H149930   0.938   6.493   1.012  0.4809 -0.2165  0.0221
 9505TIP3    H249931   0.864   6.524   1.141  0.6299 -0.0014  0.0556
 9506TIP3   OH249932   3.993   2.778  13.780  0.6527  0.2094 -0.1340
 9506TIP3    H149933   4.037   2.858  13.808 -0.1826  0.5753  0.1508
 9506TIP3    H249934   4.014   2.714  13.847  1.2766  0.2016 -0.3329
 9507TIP3   OH249935   0.353   1.298   0.739 -0.1657  0.5709 -0.4903
 9507TIP3    H149936   0.413   1.229   0.713 -1.6494 -1.5901  1.4119
 9507TIP3    H249937   0.382   1.325   0.826 -0.9054  0.7451 -0.2859
 9508TIP3   OH249938   1.193   1.758  10.660  0.0886  0.6231  0.1424
 9508TIP3    H149939   1.105   1.792  10.644 -0.7696 -1.1483  0.8220
 9508TIP3    H249940   1.188   1.665  10.636  1.5432  0.2916  0.9735
 9509TIP3   OH249941   0.868   1.205   0.743  0.0150 -0.3342  0.5424
 9509TIP3    H149942   0.884   1.297   0.761 -0.0266 -0.1748 -0.2027
 9509TIP3    H249943   0.794   1.205   0.682  0.2461 -0.8481  0.2584
 9510TIP3   OH249944   5.987   0.386  15.534 -0.3052  0.3848  0.0257
 9510TIP3    H149945   5.958   0.353  15.619 -0.5428  0.4514 -0.0289
 9510TIP3    H249946   6.080   0.364  15.530 -0.3825  0.0379  0.1402
 9511TIP3   OH249947   4.308   2.895  16.123  0.1533  0.6052  0.2507
 9511TIP3    H149948   4.352   2.848  16.193  0.2001 -0.6939 -0.6282
 9511TIP3    H249949   4.239   2.836  16.094  1.3529  0.2525 -2.0914
 9512TIP3   OH249950   4.719   1.107  16.533 -0.1833 -0.0092 -0.2765
 9512TIP3    H149951   4.766   1.169  16.589  1.1385 -3.4701  2.8926
 9512TIP3    H249952   4.775   1.098  16.456 -0.1774  2.2587 -0.6010
 9513TIP3   OH249953   5.289   6.025  13.213 -0.3169  0.2049  0.9463
 9513TIP3    H149954   5.355   5.960  13.189 -0.1962  0.2404  1.1740
 9513TIP3    H249955   5.277   6.078  13.134 -0.9249 -0.5170  0.5462
 9514TIP3   OH249956   5.920   2.878  16.662 -0.0752 -0.2450  0.1300
 9514TIP3    H149957   5.999   2.832  16.691 -1.1669 -1.4136  1.4011
 9514TIP3    H249958   5.905   2.944  16.730  1.6428  2.3181 -1.8309
 9515TIP3   OH249959   4.751   2.789  13.192 -0.4766 -0.5306 -0.6094
 9515TIP3    H149960   4.809   2.745  13.253  0.5274  1.2918 -0.1613
 9515TIP3    H249961   4.754   2.737  13.112  0.9154 -1.0803 -0.2235
 9516TIP3   OH249962   3.935   0.542  16.999  0.3354  0.0817 -0.2396
 9516TIP3    H149963   4.022   0.517  16.967  0.2320  0.5997 -0.9457
 9516TIP3    H249964   3.933   0.637  16.991 -1.0933 -0.0582 -2.3803
 9517TIP3   OH249965   5.998   5.575  12.845  0.4982  0.6260  0.2423
 9517TIP3    H149966   5.991   5.650  12.904 -2.4698 -1.4510  2.9711
 9517TIP3    H249967   6.039   5.507  12.899 -2.3097 -1.3584  0.1017
 9518TIP3   OH249968   2.598   2.816   2.655  0.0680  0.3955 -0.5095
 9518TIP3    H149969   2.588   2.904   2.619  1.9885  1.5318  1.4786
 9518TIP3    H249970   2.667   2.825   2.720  0.9070 -2.7952 -0.8097
 9519TIP3   OH249971   4.233   1.886   1.927 -0.0503 -0.5023  0.2216
 9519TIP3    H149972   4.183   1.840   1.994 -0.1757  1.9174  1.8853
 9519TIP3    H249973   4.166   1.915   1.864 -0.3559  0.0579  0.7993
 9520TIP3   OH249974   4.445   5.998   1.908 -0.1006 -0.2324 -0.0110
 9520TIP3    H149975   4.472   6.087   1.888  1.0571 -0.6968 -0.6191
 9520TIP3    H249976   4.350   6.001   1.909 -0.1176  0.6859 -1.6202
 9521TIP3   OH249977   2.734   1.893   4.490 -1.1036 -0.2734  0.4981
 9521TIP3    H149978   2.697   1.808   4.515  0.1582 -0.6150  1.2936
 9521TIP3    H249979   2.692   1.955   4.550 -0.8578 -0.5687  0.9875
 9522TIP3   OH249980   5.800   1.475   3.524  0.0402 -0.5864 -0.5013
 9522TIP3    H149981   5.826   1.390   3.488 -2.5447 -1.4796 -0.4764
 9522TIP3    H249982   5.704   1.475   3.519 -0.0802  1.9647  0.3681
 9523TIP3   OH249983   2.261   2.669   5.659 -0.0002 -0.0139  0.5519
 9523TIP3    H149984   2.177   2.633   5.690 -0.4559  1.5268  1.2314
 9523TIP3    H249985   2.284   2.734   5.725  2.0687 -0.8180  0.6904
 9524TIP3   OH249986   2.702   2.932  15.287  0.0768 -0.3755  0.1472
 9524TIP3    H149987   2.790   2.895  15.293  0.1258 -0.6679 -1.8252
 9524TIP3    H249988   2.709   2.999  15.219 -0.7538  1.1432  1.4791
 9525TIP3   OH249989   1.359   2.077   2.277 -0.5765  0.5149 -0.4018
 9525TIP3    H149990   1.389   2.014   2.212 -2.7792  0.5457 -1.5105
 9525TIP3    H249991   1.435   2.134   2.291  0.4605 -0.4727 -1.7012
 9526TIP3   OH249992   3.746   1.539   3.274 -0.0049  0.3351 -0.2518
 9526TIP3    H149993   3.709   1.453   3.255  0.6226  0.0414 -0.1905
 9526TIP3    H249994   3.791   1.527   3.358  2.2293  0.0020 -1.4008
 9527TIP3   OH249995   4.366   0.374   2.478  0.2303 -0.8013 -0.6023
 9527TIP3    H149996   4.367   0.278   2.475  1.7958 -0.8170 -0.3193
 9527TIP3    H249997   4.329   0.394   2.564 -0.2053 -1.1424 -0.7041
 9528TIP3   OH249998   1.880   3.516  13.105  0.0395 -0.2410  0.9847
 9528TIP3    H149999   1.853   3.473  13.025  3.3899  0.3018 -0.6020
 9528TIP3    H250000   1.826   3.595  13.109 -0.4943 -0.4994 -0.5177
 9529TIP3   OH250001   3.963   0.452   2.217  0.0527 -0.3687  0.4492
 9529TIP3    H150002   3.871   0.436   2.199 -0.5310  2.2640  0.7653
 9529TIP3    H250003   3.965   0.481   2.308  1.1027  0.2819  0.2350
 9530TIP3   OH250004   5.188   1.575  12.153  0.4151 -0.5317  0.3015
 9530TIP3    H150005   5.270   1.558  12.106 -0.8219 -3.2051 -1.1505
 9530TIP3    H250006   5.146   1.646  12.103  1.0220 -0.4095 -0.0464
 9531TIP3   OH250007   5.463   1.041   2.011  0.6822  0.3036 -0.3360
 9531TIP3    H150008   5.478   1.135   2.006 -0.3518  0.4525 -1.0076
 9531TIP3    H250009   5.524   1.003   1.948  2.6665  0.2988  1.4982
 9532TIP3   OH250010   1.903   6.296  13.179  0.2161  1.1248  0.6770
 9532TIP3    H150011   1.891   6.382  13.138  0.0981  1.2002  0.8678
 9532TIP3    H250012   1.971   6.310  13.244 -0.4442  1.2924  1.3428
 9533TIP3   OH250013   0.455   1.339  16.362  0.2682 -0.5260 -0.0789
 9533TIP3    H150014   0.533   1.302  16.404 -0.7369 -1.5503  0.9508
 9533TIP3    H250015   0.384   1.281  16.389 -1.0840  1.1485  0.0842
 9534TIP3   OH250016   4.385   4.247  16.154 -0.1017  0.2302 -0.1859
 9534TIP3    H150017   4.416   4.318  16.097 -0.3807 -0.3227 -1.0560
 9534TIP3    H250018   4.339   4.188  16.095  0.3715 -0.8246  0.4667
 9535TIP3   OH250019   0.302   4.743   3.638  0.1041  0.3797  0.1233
 9535TIP3    H150020   0.307   4.704   3.551 -0.4608 -2.3820  1.2135
 9535TIP3    H250021   0.226   4.802   3.634  0.7165  1.1095 -1.4910
 9536TIP3   OH250022   4.299   0.215  15.271 -0.4498 -0.1087  0.7090
 9536TIP3    H150023   4.224   0.242  15.325 -1.1455  0.1138 -0.3398
 9536TIP3    H250024   4.322   0.128  15.305 -0.7958  0.0720  1.4357
 9537TIP3   OH250025   2.145   3.638   1.237 -0.0573  0.0761 -0.1549
 9537TIP3    H150026   2.223   3.587   1.256 -0.2002 -0.3377 -0.6515
 9537TIP3    H250027   2.080   3.609   1.302  0.2046  0.4493  0.2825
 9538TIP3   OH250028   0.050   4.892   3.641  0.0448  0.0531 -0.6153
 9538TIP3    H150029  -0.036   4.896   3.597 -1.5963  2.4958  2.4219
 9538TIP3    H250030   0.036   4.834   3.715  0.5462  1.5415  0.6886
 9539TIP3   OH250031   5.859   1.743  12.074  1.2196 -0.1610 -0.3512
 9539TIP3    H150032   5.818   1.677  12.131  1.2239  0.7865  0.8052
 9539TIP3    H250033   5.833   1.718  11.986 -1.8392  0.3241  0.2774
 9540TIP3   OH250034   3.386   1.102   3.471  0.5517  0.1872 -0.0508
 9540TIP3    H150035   3.440   1.162   3.522  1.1880 -1.8789  1.9168
 9540TIP3    H250036   3.422   1.015   3.491 -1.2800 -0.9855 -1.5034
 9541TIP3   OH250037   4.561   4.538  12.530  0.2985  0.1168  0.0158
 9541TIP3    H150038   4.494   4.531  12.463  0.6101  0.8556 -0.3857
 9541TIP3    H250039   4.606   4.620  12.511  1.1500 -0.2377  0.4326
 9542TIP3   OH250040   6.172   4.851   4.151 -0.6215 -0.1564  0.4855
 9542TIP3    H150041   6.210   4.931   4.115 -0.0643 -1.1946 -1.3670
 9542TIP3    H250042   6.244   4.789   4.155 -1.0955 -0.6629  1.6774
 9543TIP3   OH250043   5.326   0.559  11.640  0.5716  0.4371 -0.1460
 9543TIP3    H150044   5.367   0.638  11.604  0.0700  0.3426 -0.9432
 9543TIP3    H250045   5.291   0.513  11.564  0.9806 -0.6352  0.3001
 9544TIP3   OH250046   2.626   0.336   2.022  0.2152  0.3255 -0.1014
 9544TIP3    H150047   2.566   0.410   2.033 -0.0423  0.0078  0.7126
 9544TIP3    H250048   2.687   0.343   2.095  0.6798  0.1764 -0.4646
 9545TIP3   OH250049   1.414   5.713  13.790  0.2351  0.4057 -0.5874
 9545TIP3    H150050   1.384   5.635  13.837  2.4925 -1.5326 -2.0772
 9545TIP3    H250051   1.505   5.725  13.819  1.5446 -0.5481 -3.8098
 9546TIP3   OH250052   3.404   5.561  13.156  0.0312 -0.0850 -0.3148
 9546TIP3    H150053   3.322   5.555  13.108 -0.3739  1.0542  0.2023
 9546TIP3    H250054   3.420   5.472  13.189  0.0210 -0.7562 -2.0219
 9547TIP3   OH250055   4.375   4.271   0.990  0.2274 -0.0595 -0.2494
 9547TIP3    H150056   4.305   4.318   1.035 -0.7088 -1.0683 -0.5824
 9547TIP3    H250057   4.331   4.230   0.915  1.6164  1.0622 -1.7283
 9548TIP3   OH250058   5.978   0.418  11.598  0.5379 -0.3410 -0.8112
 9548TIP3    H150059   6.035   0.495  11.597  0.8325 -0.5554 -0.6075
 9548TIP3    H250060   5.914   0.437  11.667 -1.3028  1.0837 -2.7756
 9549TIP3   OH250061   1.726   4.175  16.943  0.1535 -0.4606 -0.3202
 9549TIP3    H150062   1.757   4.134  16.863 -0.9907  1.6703 -1.9420
 9549TIP3    H250063   1.639   4.137  16.957  0.1859 -0.5275 -0.2960
 9550TIP3   OH250064   0.380   3.830  13.485  0.2141 -0.1697  0.1746
 9550TIP3    H150065   0.435   3.889  13.536 -0.2297 -0.0734  0.5576
 9550TIP3    H250066   0.353   3.882  13.410  0.1629 -0.0135  0.2984
 9551TIP3   OH250067   0.873   4.809   1.516 -0.4484  0.3277  0.0052
 9551TIP3    H150068   0.946   4.821   1.578  0.0954 -2.2495 -0.0037
 9551TIP3    H250069   0.879   4.716   1.491 -2.0535  0.7437 -2.1683
 9552TIP3   OH250070   1.138   5.163  14.147  0.0545  0.1522  0.0318
 9552TIP3    H150071   1.105   5.075  14.127 -0.0756  0.5074 -1.3813
 9552TIP3    H250072   1.185   5.189  14.068 -0.4444  1.6109  0.2010
 9553TIP3   OH250073   3.603   4.484  13.306 -0.0417  0.8322  0.0703
 9553TIP3    H150074   3.636   4.433  13.380 -0.4334 -1.0304 -0.9757
 9553TIP3    H250075   3.655   4.453  13.232 -0.7015  1.5589 -0.7069
 9554TIP3   OH250076   1.768   5.666  15.046  0.1540  0.3580 -0.0546
 9554TIP3    H150077   1.811   5.589  15.080  0.8928  0.7703 -0.0372
 9554TIP3    H250078   1.703   5.632  14.984  0.9198 -0.2511 -0.5414
 9555TIP3   OH250079   5.256   1.898  14.911  0.0407 -0.4912 -0.6338
 9555TIP3    H150080   5.306   1.820  14.887 -0.5837 -0.9162 -0.5697
 9555TIP3    H250081   5.173   1.889  14.863  0.0703  0.2693 -0.8441
 9556TIP3   OH250082   0.909   0.423  16.733 -0.5157  0.1271  0.1327
 9556TIP3    H150083   0.944   0.392  16.649 -1.8045  0.8394 -0.7024
 9556TIP3    H250084   0.897   0.517  16.721 -1.1293  0.1717  0.9638
 9557TIP3   OH250085   2.745   0.892  12.505 -0.4492  0.0820 -0.0759
 9557TIP3    H150086   2.748   0.987  12.491  2.4999 -0.1534 -1.9206
 9557TIP3    H250087   2.682   0.860  12.441  0.4776  0.5794 -1.2538
 9558TIP3   OH250088   2.670   6.404  11.996  0.1550 -0.0533  0.5412
 9558TIP3    H150089   2.676   6.395  11.900 -0.1149  2.8722  0.1779
 9558TIP3    H250090   2.750   6.450  12.020  0.1961 -0.7222  1.7595
 9559TIP3   OH250091   1.494   3.831  16.661 -0.2579 -0.0125 -0.1260
 9559TIP3    H150092   1.497   3.830  16.756 -1.3891 -0.9757 -0.0749
 9559TIP3    H250093   1.404   3.860  16.641 -0.0649  0.0774 -0.8948
 9560TIP3   OH250094   0.073   0.473  13.521  0.4174 -0.1465 -0.5116
 9560TIP3    H150095   0.109   0.467  13.610 -0.4788  0.1036 -0.1190
 9560TIP3    H250096   0.022   0.392  13.511 -0.1217  0.1856 -0.4962
 9561TIP3   OH250097   6.678   4.294  12.127  0.0949  0.8185 -0.1253
 9561TIP3    H150098   6.669   4.199  12.124  1.1522  0.6983 -3.1001
 9561TIP3    H250099   6.596   4.325  12.166 -0.1574 -1.2801  1.1414
 9562TIP3   OH250100   4.654   4.423  11.019 -0.0598 -0.3412  0.0094
 9562TIP3    H150101   4.585   4.356  11.018 -0.9257  0.5184  0.0723
 9562TIP3    H250102   4.609   4.503  11.047  1.1558  0.0545  0.9316
 9563TIP3   OH250103   4.919   0.437   5.126 -0.5121  0.2166 -0.2627
 9563TIP3    H150104   4.926   0.526   5.091  1.1189  0.6239  0.9638
 9563TIP3    H250105   4.848   0.442   5.190 -0.1098  0.7843  0.1524
 9564TIP3   OH250106   4.170   6.353  14.309  0.3321  0.1917 -1.0752
 9564TIP3    H150107   4.143   6.298  14.382 -0.4652  0.6563 -1.0025
 9564TIP3    H250108   4.178   6.441  14.347  0.8442  0.2661 -1.3495
 9565TIP3   OH250109   1.739   4.897  12.387 -0.4356  0.2558 -0.1522
 9565TIP3    H150110   1.755   4.961  12.318 -1.9580 -0.1185 -0.9020
 9565TIP3    H250111   1.750   4.946  12.469  2.1009  0.5392 -0.5810
 9566TIP3   OH250112   6.078   2.943   4.550 -0.0410 -0.1129  0.2978
 9566TIP3    H150113   6.154   2.895   4.583 -1.0878 -1.4441  0.8715
 9566TIP3    H250114   6.072   2.919   4.458 -0.3464 -0.8197  0.4956
 9567TIP3   OH250115   6.428   2.642  12.644  0.5629  0.8028  0.0110
 9567TIP3    H150116   6.336   2.665  12.630  0.6324  2.0478  1.3030
 9567TIP3    H250117   6.444   2.569  12.585 -1.3640  0.2849  0.0652
 9568TIP3   OH250118   4.066   4.230   6.133 -0.4126 -0.0692  0.1074
 9568TIP3    H150119   4.085   4.164   6.066 -0.0575  0.1298  0.0106
 9568TIP3    H250120   4.148   4.239   6.182 -0.4988  0.2073  0.2023
 9569TIP3   OH250121   2.173   2.811  13.373 -0.3134  0.1824  0.2283
 9569TIP3    H150122   2.102   2.773  13.321  0.1497  0.3564 -0.5381
 9569TIP3    H250123   2.177   2.903  13.347  0.4080  0.0987  0.0234
 9570TIP3   OH250124   1.119   6.377  14.763  0.8176 -0.2966 -0.3647
 9570TIP3    H150125   1.065   6.421  14.697  0.8462  0.0969 -0.1266
 9570TIP3    H250126   1.117   6.284  14.737 -0.0486 -0.3007 -0.3049
 9571TIP3   OH250127   1.450   5.787  14.128  0.0908 -0.0077 -0.5682
 9571TIP3    H150128   1.406   5.721  14.182 -0.0726  0.8825  0.4107
 9571TIP3    H250129   1.382   5.815  14.066  0.0763 -0.5275 -0.8000
 9572TIP3   OH250130   5.142   5.641   1.129  0.4786 -0.2772  0.4691
 9572TIP3    H150131   5.154   5.549   1.150  0.0101 -0.1123  1.5463
 9572TIP3    H250132   5.096   5.677   1.205  0.4283  0.7879 -0.0455
 9573TIP3   OH250133   6.518   4.219  11.455  0.5393 -0.5525  0.6114
 9573TIP3    H150134   6.589   4.282  11.467  1.3532 -1.1205 -0.9653
 9573TIP3    H250135   6.439   4.274  11.446  1.3669  0.3778 -1.7530
 9574TIP3   OH250136   0.014   5.265  11.739 -0.0910  0.5009  0.0894
 9574TIP3    H150137  -0.041   5.340  11.763  0.6508  0.4404  2.1208
 9574TIP3    H250138   0.092   5.304  11.701 -0.3655  0.6836 -0.3011
 9575TIP3   OH250139   0.550   5.186   2.276  0.0596  0.0735 -0.2277
 9575TIP3    H150140   0.603   5.237   2.215 -1.0161  0.5721 -0.7710
 9575TIP3    H250141   0.564   5.228   2.360  1.2634 -0.3891 -0.1744
 9576TIP3   OH250142   0.983   5.864  16.240 -1.3984  0.0721 -0.1155
 9576TIP3    H150143   1.004   5.890  16.330  0.8085  1.6751 -0.9840
 9576TIP3    H250144   0.933   5.938  16.205  1.4896  1.6005 -1.4024
 9577TIP3   OH250145   1.858   3.050  15.109  0.0486  0.2508  0.0047
 9577TIP3    H150146   1.799   2.977  15.093 -0.0196  0.6792 -1.9580
 9577TIP3    H250147   1.937   3.028  15.060  1.6566 -0.3690  2.6726
 9578TIP3   OH250148   1.728   6.612  13.663 -0.6031  0.1257  0.5099
 9578TIP3    H150149   1.752   6.519  13.668  1.0801  0.2405 -2.8906
 9578TIP3    H250150   1.773   6.652  13.737  0.5978 -1.4311  0.6775
 9579TIP3   OH250151   0.452   2.219   6.458 -0.3691 -0.1966 -0.1203
 9579TIP3    H150152   0.371   2.201   6.411 -0.9025 -1.2683  1.1541
 9579TIP3    H250153   0.446   2.167   6.538  1.2168  0.3369  0.3902
 9580TIP3   OH250154   6.151   0.598   1.040 -0.7507  0.1858 -0.0451
 9580TIP3    H150155   6.088   0.528   1.022  0.8761 -1.4921  0.5267
 9580TIP3    H250156   6.153   0.650   0.960 -0.3505 -1.7453 -1.3516
 9581TIP3   OH250157   3.699   0.198  16.737 -0.4690 -0.2492 -0.1534
 9581TIP3    H150158   3.782   0.241  16.715 -0.0457 -1.3758 -0.7987
 9581TIP3    H250159   3.676   0.234  16.823 -0.1219  1.2469 -0.6502
 9582TIP3   OH250160   4.684   3.379  15.282 -0.6500 -0.3296  0.4701
 9582TIP3    H150161   4.643   3.343  15.203 -1.3933  4.2359 -1.5873
 9582TIP3    H250162   4.778   3.379  15.263 -0.8331  0.8668 -0.5958
 9583TIP3   OH250163   2.201   1.208   5.743  0.4744  0.0312  0.4163
 9583TIP3    H150164   2.217   1.157   5.822  1.1198  0.3256  0.4852
 9583TIP3    H250165   2.181   1.296   5.776 -1.3705 -0.3167  0.3351
 9584TIP3   OH250166   3.976   0.492  11.619  0.4751 -0.2392 -0.6853
 9584TIP3    H150167   3.911   0.421  11.611  1.2189 -1.0242  0.0160
 9584TIP3    H250168   4.052   0.450  11.660  1.8352  0.4117 -2.4283
 9585TIP3   OH250169   2.210   5.438   3.995  0.6201  0.1655 -0.1357
 9585TIP3    H150170   2.143   5.391   4.044  0.9622 -1.6076 -1.2904
 9585TIP3    H250171   2.194   5.530   4.016 -1.5654 -0.2670  0.3562
 9586TIP3   OH250172   0.549   4.416   4.528  0.1818  0.3098 -0.0856
 9586TIP3    H150173   0.588   4.490   4.574 -0.4460 -0.4070  1.6896
 9586TIP3    H250174   0.553   4.344   4.591 -2.8009 -0.1465 -0.2965
 9587TIP3   OH250175   2.270   1.053  13.230 -0.5407 -0.1214  0.3278
 9587TIP3    H150176   2.317   1.101  13.162  0.4688  0.9390  1.7371
 9587TIP3    H250177   2.284   1.103  13.310 -2.5433 -0.7858  1.1653
 9588TIP3   OH250178   0.325   5.800   6.232  0.1413  0.1802 -0.0628
 9588TIP3    H150179   0.240   5.763   6.210  0.3102 -0.6683  0.6641
 9588TIP3    H250180   0.323   5.889   6.195 -0.8323 -0.0263 -0.5389
 9589TIP3   OH250181   0.621   2.400  16.516  0.2219 -0.1292  0.6127
 9589TIP3    H150182   0.600   2.317  16.559 -0.4398 -0.3499 -0.1130
 9589TIP3    H250183   0.546   2.457  16.536 -0.5948 -0.5556 -1.0533
 9590TIP3   OH250184   0.464   5.874   6.459 -0.0977  0.1866  0.5313
 9590TIP3    H150185   0.543   5.902   6.413 -0.6544  2.8478  0.9870
 9590TIP3    H250186   0.404   5.848   6.389  0.5475 -0.0483  0.0565
 9591TIP3   OH250187   4.493   5.796  14.936 -0.1487  0.3515  0.4905
 9591TIP3    H150188   4.488   5.740  14.858  1.4269 -1.1475  1.4093
 9591TIP3    H250189   4.409   5.784  14.979  0.5097 -2.2048  1.2052
 9592TIP3   OH250190   1.624   1.225   3.127  0.4463  0.5602 -0.8856
 9592TIP3    H150191   1.550   1.260   3.078  0.0707  0.1972 -0.5846
 9592TIP3    H250192   1.630   1.133   3.100 -2.9804 -1.2400  3.3367
 9593TIP3   OH250193   4.886   1.613   2.022  0.3904 -0.1942  0.1165
 9593TIP3    H150194   4.815   1.635   1.960 -0.1369 -1.5566  0.2059
 9593TIP3    H250195   4.966   1.635   1.975 -0.0501 -0.0371 -0.5792
 9594TIP3   OH250196   5.045   3.810   2.010  0.3599  0.3497 -0.1529
 9594TIP3    H150197   5.130   3.783   2.045  0.2370  0.9962  0.6904
 9594TIP3    H250198   5.065   3.883   1.952  0.5646 -0.7280 -1.4996
 9595TIP3   OH250199   3.214   1.253   1.966 -0.6402  0.5382  0.1202
 9595TIP3    H150200   3.178   1.283   2.050  1.2067 -1.5240  1.7940
 9595TIP3    H250201   3.307   1.277   1.971 -0.4024 -0.0763 -1.1070
 9596TIP3   OH250202   6.361   3.225  15.974 -0.0331  0.7830  0.0442
 9596TIP3    H150203   6.389   3.134  15.966  0.9966  1.1724 -1.0489
 9596TIP3    H250204   6.265   3.221  15.978  0.0115 -0.3532  0.1009
 9597TIP3   OH250205   0.881   0.757   0.620  0.2426 -0.6522  0.0265
 9597TIP3    H150206   0.869   0.852   0.616 -1.3558 -0.7650  1.2804
 9597TIP3    H250207   0.953   0.740   0.559 -0.9091  1.1010 -1.9860
 9598TIP3   OH250208   0.866   0.462   1.363  0.0722  0.6457 -0.0426
 9598TIP3    H150209   0.786   0.444   1.413 -0.0992  1.2645 -0.0898
 9598TIP3    H250210   0.850   0.423   1.277  1.3298 -2.6601  1.0525
 9599TIP3   OH250211   4.794   4.063   5.056 -0.6304  0.1728  0.8956
 9599TIP3    H150212   4.840   4.015   4.988 -3.0209  0.0183 -0.7111
 9599TIP3    H250213   4.860   4.123   5.092  1.0447 -0.6788 -0.6097
 9600TIP3   OH250214   5.451   2.124  13.010 -0.3520  0.3848  0.4646
 9600TIP3    H150215   5.532   2.113  13.060 -0.1313 -2.7840 -0.3789
 9600TIP3    H250216   5.480   2.143  12.921 -0.6694  2.6006  0.7957
 9601TIP3   OH250217   0.632   5.398  17.139 -0.5616  0.0492  0.4492
 9601TIP3    H150218   0.647   5.486  17.104 -2.3272 -0.4703 -1.8765
 9601TIP3    H250219   0.709   5.348  17.114 -0.1649  0.5954  0.5669
 9602TIP3   OH250220   5.671   2.497   1.705 -0.3172  0.2899  0.2249
 9602TIP3    H150221   5.631   2.508   1.619 -1.5819 -1.5617  0.5301
 9602TIP3    H250222   5.739   2.565   1.708 -0.8406  0.9884 -1.8498
 9603TIP3   OH250223   3.932   0.931   3.632  0.2994  0.0082 -0.4448
 9603TIP3    H150224   3.935   0.840   3.603  0.3484 -0.5255  1.1359
 9603TIP3    H250225   4.024   0.958   3.637  0.5773 -1.1214  2.6779
 9604TIP3   OH250226   2.548   6.349  15.880  0.1795 -0.2731  0.5016
 9604TIP3    H150227   2.608   6.420  15.856  1.4481 -0.3632  3.0672
 9604TIP3    H250228   2.500   6.382  15.956  0.7253 -2.0589  1.6929
 9605TIP3   OH250229   2.883   3.963  10.733  0.4005  0.1456 -0.1543
 9605TIP3    H150230   2.892   4.024  10.661  0.0040  0.3780 -0.0102
 9605TIP3    H250231   2.792   3.932  10.728  0.4907 -0.1479 -0.0058
 9606TIP3   OH250232   1.209   5.401  12.343  0.1058  0.2076  0.1773
 9606TIP3    H150233   1.156   5.322  12.349 -1.9482  1.5699  0.9610
 9606TIP3    H250234   1.240   5.416  12.433 -0.0584  0.6451  0.1629
 9607TIP3   OH250235   1.020   4.785  13.193 -0.2646  0.2818 -0.1710
 9607TIP3    H150236   1.051   4.875  13.202 -1.2665  0.6060  0.1721
 9607TIP3    H250237   1.099   4.732  13.191  0.3047  1.0947  0.5642
 9608TIP3   OH250238   5.192   4.125   6.350  0.0937  0.3850  0.2102
 9608TIP3    H150239   5.227   4.178   6.422  1.4515 -0.3968  0.1561
 9608TIP3    H250240   5.108   4.165   6.330  0.6863  1.9876  0.7560
 9609TIP3   OH250241   1.107   4.888  15.504 -0.5056 -0.1128  0.4616
 9609TIP3    H150242   1.020   4.923  15.486 -0.0224  1.4343  0.9869
 9609TIP3    H250243   1.138   4.855  15.419 -1.8647 -1.3872  0.4216
 9610TIP3   OH250244   0.566   0.690  14.062 -0.0845  0.3253 -0.5724
 9610TIP3    H150245   0.560   0.626  13.991 -0.9432  1.2967 -1.4036
 9610TIP3    H250246   0.584   0.773  14.018 -1.7526  1.1569  0.1927
 9611TIP3   OH250247   2.667   3.988  15.488  0.7291 -0.1560 -0.1750
 9611TIP3    H150248   2.702   3.926  15.424  1.2442 -0.1967  0.1411
 9611TIP3    H250249   2.626   3.933  15.555 -1.9338 -0.0908 -1.6062
 9612TIP3   OH250250   0.454   4.045   0.378 -0.0426 -0.3982  0.0597
 9612TIP3    H150251   0.507   4.091   0.443 -1.7129  1.9162 -0.0896
 9612TIP3    H250252   0.440   3.958   0.416 -1.4091  1.0090  3.1665
 9613TIP3   OH250253   4.792   5.566  13.053 -0.4985  0.0659 -0.3925
 9613TIP3    H150254   4.733   5.641  13.052 -0.3136  0.2075 -0.6830
 9613TIP3    H250255   4.763   5.511  12.980  0.6660  0.8705 -1.5017
 9614TIP3   OH250256   0.809   6.114  16.812  0.4090 -0.4118 -0.0073
 9614TIP3    H150257   0.827   6.179  16.880  0.6091 -2.4154  1.9993
 9614TIP3    H250258   0.877   6.047  16.826  0.3199 -0.9878 -2.0954
 9615TIP3   OH250259   4.926   6.412   3.026 -0.3365 -0.1634  0.4356
 9615TIP3    H150260   5.006   6.464   3.024  0.5751 -1.4686  1.2296
 9615TIP3    H250261   4.886   6.431   3.111  0.6055 -1.5898  1.2247
 9616TIP3   OH250262   2.495   6.289  13.880  0.2478 -0.6749  0.0642
 9616TIP3    H150263   2.455   6.224  13.938  0.9519 -1.5669 -0.4209
 9616TIP3    H250264   2.589   6.270  13.885  0.7220  1.5849  1.4632
 9617TIP3   OH250265   5.692   5.722   2.355  0.2055  0.4143 -0.1465
 9617TIP3    H150266   5.681   5.636   2.395 -0.0096  1.5134  2.3403
 9617TIP3    H250267   5.785   5.726   2.331 -0.0917 -1.0264 -1.7073
 9618TIP3   OH250268   1.420   0.979   2.985 -0.1911  0.1868  0.4837
 9618TIP3    H150269   1.374   1.012   2.908 -0.2032 -0.3794  0.2471
 9618TIP3    H250270   1.370   1.014   3.059 -1.8090 -1.4797  0.2442
 9619TIP3   OH250271   2.757   3.832  17.341 -0.6331 -0.0170  0.2418
 9619TIP3    H150272   2.746   3.838  17.246  0.1800 -1.0828  0.0665
 9619TIP3    H250273   2.683   3.780  17.371 -2.1475  2.1484  0.5163
 9620TIP3   OH250274   2.354   1.517   3.945  0.2557  0.3539  0.5967
 9620TIP3    H150275   2.416   1.549   4.011  0.6324  0.3406  0.2579
 9620TIP3    H250276   2.369   1.573   3.869  0.6800 -0.3942  0.1134
 9621TIP3   OH250277   3.113   3.848  13.973  0.0736 -0.2872  0.4199
 9621TIP3    H150278   3.172   3.791  13.923  0.4179 -0.0222  0.5186
 9621TIP3    H250279   3.169   3.919  14.003 -0.1963 -0.2931  0.9365
 9622TIP3   OH250280   4.017   5.511   3.665 -0.1097 -0.1054  0.6128
 9622TIP3    H150281   3.976   5.446   3.722 -1.0835 -1.6238 -1.6922
 9622TIP3    H250282   3.944   5.559   3.627  0.5231  0.8349  0.5487
 9623TIP3   OH250283   2.610   6.689  12.912  0.2616 -0.0527  0.2752
 9623TIP3    H150284   2.658   6.608  12.894  1.2710  1.0593 -2.7213
 9623TIP3    H250285   2.679   6.755  12.925 -0.3886  1.1667 -1.9948
 9624TIP3   OH250286   3.433   6.604  13.867 -0.0918 -0.3461 -0.0808
 9624TIP3    H150287   3.427   6.615  13.962 -1.4402 -0.5860 -0.1173
 9624TIP3    H250288   3.493   6.530  13.856  0.8903  0.3345  0.5321
 9625TIP3   OH250289   6.688   2.778   3.684 -0.3959 -0.0887 -0.4640
 9625TIP3    H150290   6.686   2.712   3.753 -0.3210 -0.1854 -0.5534
 9625TIP3    H250291   6.656   2.858   3.726 -2.6373 -0.6956 -0.9238
 9626TIP3   OH250292   0.991   2.229   0.255 -0.5483  0.1214 -0.7858
 9626TIP3    H150293   0.924   2.293   0.231  0.3312  0.4540 -2.5313
 9626TIP3    H250294   0.944   2.146   0.259 -1.0205  0.2555 -2.5135
 9627TIP3   OH250295   0.148   4.086   5.222  0.1342  0.0674  0.4284
 9627TIP3    H150296   0.156   4.002   5.176 -2.1035  0.0524 -0.0371
 9627TIP3    H250297   0.164   4.065   5.314  0.4829 -0.7055  0.1979
 9628TIP3   OH250298   2.255   4.310  16.111  0.1175  0.2970 -0.1159
 9628TIP3    H150299   2.342   4.270  16.107  0.2113  0.3993  0.6345
 9628TIP3    H250300   2.198   4.248  16.068  0.3565 -0.3958  0.5400
 9629TIP3   OH250301   5.800   2.471   2.724 -0.0897 -0.7743 -0.4335
 9629TIP3    H150302   5.876   2.412   2.723  1.4191  1.0309  0.0493
 9629TIP3    H250303   5.761   2.458   2.810  0.1911 -1.1327 -0.3564
 9630TIP3   OH250304   2.472   1.368  13.307 -0.4768 -0.2294 -0.6327
 9630TIP3    H150305   2.512   1.282  13.290  1.6982  0.7580 -0.9335
 9630TIP3    H250306   2.428   1.390  13.225  2.1691  0.5088 -1.9668
 9631TIP3   OH250307   6.129   5.828   5.344  0.9685  0.0848 -0.2636
 9631TIP3    H150308   6.035   5.836   5.329  0.6597 -1.0755  0.8203
 9631TIP3    H250309   6.165   5.801   5.260  0.5597  1.8882 -1.0554
 9632TIP3   OH250310   0.086   2.886  14.135  0.5722 -0.3472 -0.0097
 9632TIP3    H150311   0.088   2.982  14.129  0.7771 -0.4334 -2.7259
 9632TIP3    H250312   0.175   2.862  14.161  0.3241  0.1941  1.4136
 9633TIP3   OH250313   1.856   3.363  15.508  0.2243  0.0271  0.7542
 9633TIP3    H150314   1.870   3.306  15.432 -0.8359  1.3007 -0.4323
 9633TIP3    H250315   1.899   3.317  15.580  3.3502 -0.0968 -1.0273
 9634TIP3   OH250316   5.530   6.180   4.638  0.2246  0.0515  0.0726
 9634TIP3    H150317   5.592   6.205   4.570 -1.1122 -0.8813 -1.5796
 9634TIP3    H250318   5.550   6.238   4.712  1.7688  1.0579 -1.0762
 9635TIP3   OH250319   3.484   1.775  16.604 -0.0671 -0.1381  0.7154
 9635TIP3    H150320   3.428   1.821  16.541  2.0923  0.8240 -0.6087
 9635TIP3    H250321   3.432   1.698  16.630 -1.0862 -0.5715 -2.2105
 9636TIP3   OH250322   0.073   2.384  11.410  0.2204 -0.3930  0.3069
 9636TIP3    H150323   0.021   2.409  11.487  0.3258 -0.3718  0.3710
 9636TIP3    H250324   0.098   2.468  11.371 -0.9182 -0.3972 -0.4865
 9637TIP3   OH250325   1.750   5.631  16.465 -0.5073  0.1412  0.0632
 9637TIP3    H150326   1.677   5.642  16.526 -1.9578  1.6137 -1.8095
 9637TIP3    H250327   1.746   5.538  16.439 -0.5838 -0.2136  1.2930
 9638TIP3   OH250328   4.089   5.254  15.992  0.3183  0.2887 -0.9611
 9638TIP3    H150329   4.082   5.308  16.071  1.3598 -0.3231 -0.4305
 9638TIP3    H250330   4.131   5.173  16.022 -1.1568 -0.8233 -1.7463
 9639TIP3   OH250331   0.343   3.440   1.243  0.0631  0.4893 -0.4610
 9639TIP3    H150332   0.415   3.398   1.195  0.6731  1.9669 -0.8957
 9639TIP3    H250333   0.327   3.521   1.196 -0.2153  1.3540  1.0775
 9640TIP3   OH250334   4.949   5.232  16.389  0.5359  0.4808 -0.3812
 9640TIP3    H150335   4.879   5.176  16.356 -1.2435  2.5896 -0.4101
 9640TIP3    H250336   5.026   5.207  16.337 -0.1316 -1.8597 -0.3826
 9641TIP3   OH250337   5.969   1.954   1.264 -0.3639 -0.0437  0.0870
 9641TIP3    H150338   6.054   1.965   1.221 -1.1694 -0.1818 -1.6074
 9641TIP3    H250339   5.989   1.906   1.345  1.0387 -1.0569 -0.8171
 9642TIP3   OH250340   4.577   1.949  12.094 -0.0867 -0.3054  0.2614
 9642TIP3    H150341   4.563   1.874  12.151  0.8309 -0.7117 -0.0300
 9642TIP3    H250342   4.489   1.982  12.076 -0.5652 -1.7086 -0.1377
 9643TIP3   OH250343   1.913   4.545   5.700 -0.5467  0.3042 -0.3713
 9643TIP3    H150344   1.818   4.538   5.712 -0.1798 -0.8055  2.5502
 9643TIP3    H250345   1.948   4.463   5.733  1.4534  0.6125 -1.5860
 9644TIP3   OH250346   1.969   2.824  15.452 -0.3280 -0.0828 -0.2865
 9644TIP3    H150347   1.993   2.837  15.544 -0.8822  0.6571 -0.2289
 9644TIP3    H250348   2.045   2.854  15.403 -0.6670  1.1647 -0.0885
 9645TIP3   OH250349   2.107   1.856  10.864 -0.0303  0.0930 -0.3444
 9645TIP3    H150350   2.147   1.873  10.779  1.2515 -1.1242 -0.0260
 9645TIP3    H250351   2.113   1.761  10.874 -0.2164  0.2165  1.0715
 9646TIP3   OH250352   0.211   4.097   3.241 -0.5104 -0.1571 -0.3571
 9646TIP3    H150353   0.290   4.132   3.199 -1.9351  1.9054 -1.4970
 9646TIP3    H250354   0.200   4.010   3.203  0.2049  0.2596 -1.5774
 9647TIP3   OH250355   6.528   6.442   4.982  0.9512  0.3207 -0.3866
 9647TIP3    H150356   6.533   6.347   4.989 -1.0328  0.1019 -1.0822
 9647TIP3    H250357   6.483   6.469   5.062  0.4445  0.5128 -0.7258
 9648TIP3   OH250358   5.137   4.562  13.101  0.4007 -0.0281  0.2284
 9648TIP3    H150359   5.187   4.624  13.047  0.6519  0.6500  1.2261
 9648TIP3    H250360   5.148   4.594  13.190 -0.8895 -0.5329  0.5802
 9649TIP3   OH250361   1.083   4.684   4.636  0.3492 -0.4056 -0.0627
 9649TIP3    H150362   1.058   4.681   4.729  1.3981 -0.4004  0.2291
 9649TIP3    H250363   1.032   4.757   4.600 -1.2445 -1.3532  0.1297
 9650TIP3   OH250364   2.191   6.587   0.123  0.2433 -0.3723  0.8541
 9650TIP3    H150365   2.109   6.556   0.160  0.2030 -0.3440  0.7883
 9650TIP3    H250366   2.258   6.529   0.160  0.2794  0.0315  1.4437
 9651TIP3   OH250367   3.833   4.788  15.304 -0.3292 -0.4698 -0.4829
 9651TIP3    H150368   3.836   4.879  15.334 -0.5627 -0.3591 -0.7919
 9651TIP3    H250369   3.813   4.738  15.383  1.0659 -0.3930 -0.0365
 9652TIP3   OH250370   5.299   4.117   2.653  0.4665  0.2959  0.1779
 9652TIP3    H150371   5.334   4.206   2.659  1.6248 -0.2385  2.6826
 9652TIP3    H250372   5.353   4.066   2.714 -2.7928 -1.1998  2.0880
 9653TIP3   OH250373   2.792   4.070   2.359  0.2872  0.0809 -0.2102
 9653TIP3    H150374   2.868   4.083   2.416  0.8959 -1.6219 -0.5599
 9653TIP3    H250375   2.721   4.047   2.418 -0.5979  3.5575  0.3364
 9654TIP3   OH250376   3.354   3.065   1.746 -0.0671 -0.0140 -0.0021
 9654TIP3    H150377   3.382   3.023   1.665  2.4244 -0.8762  1.2078
 9654TIP3    H250378   3.421   3.131   1.764 -0.2928 -0.1709  1.5748
 9655TIP3   OH250379   3.465   4.780  15.421  0.0204  0.0103  0.6308
 9655TIP3    H150380   3.454   4.690  15.390  0.2334  0.0536  0.4288
 9655TIP3    H250381   3.380   4.802  15.459  0.1367 -0.4700  1.1902
 9656TIP3   OH250382   5.815   6.325  11.814  0.6005  0.1876  0.2977
 9656TIP3    H150383   5.752   6.366  11.873 -0.5790 -0.3300 -0.5813
 9656TIP3    H250384   5.877   6.281  11.873 -0.7088 -0.5685  1.1644
 9657TIP3   OH250385   5.701   2.909   0.789  0.2587  0.2763  0.6769
 9657TIP3    H150386   5.666   2.861   0.714  1.9258  2.6594 -1.8236
 9657TIP3    H250387   5.624   2.929   0.842 -1.2177 -0.3236 -1.1106
 9658TIP3   OH250388   4.805   2.429   3.990 -0.2592 -0.2236  0.1579
 9658TIP3    H150389   4.775   2.376   4.064 -0.0901 -0.6713 -0.0911
 9658TIP3    H250390   4.900   2.428   3.997 -0.1619 -1.6175 -0.9769
 9659TIP3   OH250391   5.639   0.948  14.525 -0.3451  0.5170 -0.2508
 9659TIP3    H150392   5.589   0.891  14.582  0.7371 -1.6796 -1.3901
 9659TIP3    H250393   5.590   0.949  14.443  1.3500 -1.6820 -1.3857
 9660TIP3   OH250394   3.321   2.543  16.901  0.2520  0.6490 -0.5107
 9660TIP3    H150395   3.297   2.456  16.931 -0.2307  1.4123  1.4628
 9660TIP3    H250396   3.415   2.538  16.885  0.8391  0.4499  2.4305
 9661TIP3   OH250397   4.800   5.240   0.507  0.0398  0.4137 -0.0997
 9661TIP3    H150398   4.789   5.276   0.595 -1.3795  2.1273 -0.9255
 9661TIP3    H250399   4.751   5.158   0.509 -2.0470  1.5812  0.0934
 9662TIP3   OH250400   5.674   3.103   4.713  0.4815 -0.7287 -0.4526
 9662TIP3    H150401   5.665   3.176   4.775  3.2486  0.4636 -1.3010
 9662TIP3    H250402   5.623   3.129   4.637 -0.4525 -0.8004  0.1310
 9663TIP3   OH250403   5.170   3.129   4.791 -0.1960  0.4775 -0.5071
 9663TIP3    H150404   5.133   3.216   4.810  0.6352  1.3928 -2.8090
 9663TIP3    H250405   5.190   3.131   4.698  1.1015 -1.7360 -0.3405
 9664TIP3   OH250406   0.938   5.846   1.378  0.2938  0.0084 -0.1645
 9664TIP3    H150407   0.847   5.874   1.363  0.4357  0.3380 -0.4043
 9664TIP3    H250408   0.986   5.880   1.303  0.5503 -0.4882 -0.2262
 9665TIP3   OH250409   2.220   5.610  10.503  0.0082  0.5879  0.5420
 9665TIP3    H150410   2.240   5.551  10.576  0.5307 -1.3826 -1.1120
 9665TIP3    H250411   2.230   5.556  10.425 -0.4268  2.6544 -1.0249
 9666TIP3   OH250412   4.336   6.104   3.944  0.6234  0.4840  0.0848
 9666TIP3    H150413   4.243   6.082   3.939  0.3376  1.3190  1.3842
 9666TIP3    H250414   4.360   6.127   3.854 -0.0728 -1.0257 -0.5158
 9667TIP3   OH250415   6.457   2.974   2.781 -0.0114 -0.3327  0.2441
 9667TIP3    H150416   6.552   2.967   2.788  0.2208  2.4450  1.4542
 9667TIP3    H250417   6.424   2.935   2.862 -0.1201 -3.0034 -0.9953
 9668TIP3   OH250418   4.331   1.436   1.642 -0.0720 -0.0939  0.6522
 9668TIP3    H150419   4.392   1.492   1.594  1.0703  0.3024  2.4603
 9668TIP3    H250420   4.258   1.493   1.665 -1.2702 -0.5992 -1.6284
 9669TIP3   OH250421   2.250   1.187  15.248  0.0558 -0.3050 -0.2822
 9669TIP3    H150422   2.296   1.108  15.275  2.3754  0.5007 -1.6170
 9669TIP3    H250423   2.299   1.219  15.173 -0.9093  2.2933  0.0888
 9670TIP3   OH250424   5.189   4.696   1.334  0.3234 -0.1194 -0.3262
 9670TIP3    H150425   5.237   4.673   1.414 -0.1365 -0.7053 -0.2130
 9670TIP3    H250426   5.124   4.627   1.324 -0.3081  0.5117 -0.6411
 9671TIP3   OH250427   2.087   0.397  15.788  0.3300 -0.2724 -0.5288
 9671TIP3    H150428   2.098   0.468  15.724 -3.9145  0.3955 -0.7816
 9671TIP3    H250429   1.994   0.396  15.807  0.8755 -2.8723  2.9887
 9672TIP3   OH250430   6.571   5.310  16.113  0.0967  0.1739  0.2132
 9672TIP3    H150431   6.555   5.220  16.141  3.5546 -0.2294  1.2545
 9672TIP3    H250432   6.578   5.304  16.018 -2.0253 -0.1382  0.0037
 9673TIP3   OH250433   2.127   4.220   0.821  0.2209  0.0665  0.4608
 9673TIP3    H150434   2.137   4.161   0.896  2.8602 -0.4390 -0.1653
 9673TIP3    H250435   2.098   4.163   0.750  0.8703 -0.1316  0.3417
 9674TIP3   OH250436   2.562   3.903  13.729  0.4220 -0.5133  0.0782
 9674TIP3    H150437   2.522   3.855  13.801  0.9228 -0.2330  0.5542
 9674TIP3    H250438   2.605   3.836  13.676 -0.3932 -0.7804 -0.2616
 9675TIP3   OH250439   0.415   5.267   5.773 -0.0733  0.3992 -0.1719
 9675TIP3    H150440   0.361   5.325   5.720 -1.0879 -0.2940  0.0838
 9675TIP3    H250441   0.357   5.196   5.798  1.0736 -0.6190 -0.2850
 9676TIP3   OH250442   2.923   2.192  11.985 -0.1348 -0.5039 -0.4284
 9676TIP3    H150443   2.917   2.108  11.939  2.8521 -0.8777 -0.3427
 9676TIP3    H250444   2.917   2.258  11.916 -0.0058 -0.8939 -0.8198
 9677TIP3   OH250445   1.629   0.380   1.805 -0.0414 -0.3091 -0.5403
 9677TIP3    H150446   1.690   0.454   1.798 -0.3138 -0.2029 -2.2812
 9677TIP3    H250447   1.648   0.326   1.728 -1.2664 -0.9503 -0.4097
 9678TIP3   OH250448   4.960   2.736  11.695  0.6288 -0.7898  0.0516
 9678TIP3    H150449   4.905   2.797  11.645 -1.3346 -1.1373  1.6409
 9678TIP3    H250450   5.027   2.792  11.735 -1.0628  0.4021  1.3851
 9679TIP3   OH250451   3.081   5.309   5.660 -0.5015  0.1208 -0.3360
 9679TIP3    H150452   3.153   5.316   5.724 -1.6410  0.1754  0.9805
 9679TIP3    H250453   3.048   5.398   5.651 -1.0201 -0.0592 -0.2055
 9680TIP3   OH250454   2.805   3.327  11.773  0.0707 -0.0333  0.0882
 9680TIP3    H150455   2.885   3.301  11.818  0.9814  1.9225 -0.2747
 9680TIP3    H250456   2.735   3.288  11.824  1.1837 -0.3581  1.4477
 9681TIP3   OH250457   1.037   2.855   3.592 -0.0454  0.4354  0.0340
 9681TIP3    H150458   1.059   2.862   3.499  0.6409  1.1480  0.2335
 9681TIP3    H250459   0.944   2.833   3.594  0.2890 -1.1896 -0.8352
 9682TIP3   OH250460   0.666   3.009   1.499 -0.2834 -0.3404 -0.9019
 9682TIP3    H150461   0.742   2.955   1.522  1.4147  0.8796 -3.2885
 9682TIP3    H250462   0.694   3.099   1.516 -2.0822  0.0245  0.3877
 9683TIP3   OH250463   5.981   6.363   6.246  0.5174 -0.0876 -0.0482
 9683TIP3    H150464   5.929   6.382   6.325 -0.8055  0.2244 -0.9611
 9683TIP3    H250465   6.036   6.289   6.271 -1.4366 -1.4174  0.5323
 9684TIP3   OH250466   0.450   0.926   0.084  0.2421 -0.3284 -0.0827
 9684TIP3    H150467   0.401   0.844   0.081  0.4963 -0.4984  0.2716
 9684TIP3    H250468   0.389   0.993   0.053 -0.5863 -0.3540  1.4255
 9685TIP3   OH250469   1.254   1.557   1.429  0.1581  0.1429  0.5383
 9685TIP3    H150470   1.315   1.484   1.430  0.1478  0.1200  0.0742
 9685TIP3    H250471   1.309   1.635   1.427  0.1793  0.1250  0.2548
 9686TIP3   OH250472   2.994   6.229   4.387 -0.3970  0.7512 -0.2741
 9686TIP3    H150473   3.029   6.203   4.472 -2.4927 -0.6812  0.2179
 9686TIP3    H250474   3.070   6.259   4.338  1.4940 -2.0485  0.7438
 9687TIP3   OH250475   4.170   2.922  12.957  0.7249  0.1907 -0.0536
 9687TIP3    H150476   4.084   2.889  12.928  0.0398  1.2776  0.6492
 9687TIP3    H250477   4.230   2.848  12.943 -0.1194 -0.2740 -1.4851
 9688TIP3   OH250478   6.005   3.552   1.613  0.1863 -0.1350  0.0112
 9688TIP3    H150479   6.047   3.471   1.582  1.0097  0.5899 -0.8226
 9688TIP3    H250480   6.043   3.621   1.559 -3.2036  0.4323 -1.9871
 9689TIP3   OH250481   4.021   5.050   2.246  0.4433 -0.0197 -0.3671
 9689TIP3    H150482   4.030   5.005   2.162  1.2065 -0.3181 -0.1312
 9689TIP3    H250483   4.054   5.138   2.229  0.1011  0.0833 -0.5112
 9690TIP3   OH250484   0.328   1.793   1.286  0.8498  0.3228 -0.5066
 9690TIP3    H150485   0.335   1.886   1.264 -2.4465  0.8237  0.1760
 9690TIP3    H250486   0.243   1.784   1.328  1.7991 -2.7384  1.0439
 9691TIP3   OH250487   6.711   3.011   5.448 -0.0759  0.1543 -0.1226
 9691TIP3    H150488   6.710   2.916   5.436  0.6324  0.2854 -1.4205
 9691TIP3    H250489   6.804   3.034   5.441 -0.3942  1.1189 -1.4856
 9692TIP3   OH250490   6.209   5.636  12.475  0.0601  0.8789 -0.7908
 9692TIP3    H150491   6.292   5.678  12.456 -0.6271  2.5775 -0.2371
 9692TIP3    H250492   6.196   5.650  12.569 -0.3294 -0.3642 -0.6406
 9693TIP3   OH250493   2.121   0.233  11.705 -0.6342  0.1791  0.4972
 9693TIP3    H150494   2.172   0.314  11.710 -2.9158  1.7218  0.6178
 9693TIP3    H250495   2.145   0.185  11.785  0.8355  0.6737  0.3766
 9694TIP3   OH250496   4.233   0.204   2.013 -0.0249 -0.0839  0.1412
 9694TIP3    H150497   4.263   0.244   1.931  0.3961  0.6792  0.6557
 9694TIP3    H250498   4.226   0.111   1.993  0.7717 -0.0054 -0.5634
 9695TIP3   OH250499   2.166   2.562  15.682 -0.4637  0.1317 -0.1763
 9695TIP3    H150500   2.227   2.492  15.706 -0.2661  0.5537  0.6125
 9695TIP3    H250501   2.207   2.605  15.607  1.1241  1.4992  1.3941
 9696TIP3   OH250502   4.989   4.436  17.218  0.1134 -0.7564 -0.3475
 9696TIP3    H150503   5.083   4.418  17.207  0.4518  0.1080  0.8248
 9696TIP3    H250504   4.948   4.400  17.140  1.6770  0.6126 -1.8993
 9697TIP3   OH250505   5.239   4.372   0.166  0.3243  0.4696 -0.3485
 9697TIP3    H150506   5.176   4.439   0.193 -0.6013 -1.0347  1.4831
 9697TIP3    H250507   5.216   4.352   0.075 -0.8570  1.0297 -0.1917
 9698TIP3   OH250508   6.693   5.357   1.208  0.3150 -0.1254 -0.1138
 9698TIP3    H150509   6.599   5.342   1.200  0.4922 -0.7041 -1.3024
 9698TIP3    H250510   6.732   5.301   1.142  1.6541 -1.3802  1.6430
 9699TIP3   OH250511   6.467   3.087   2.105 -0.7858 -0.2878 -0.4573
 9699TIP3    H150512   6.503   3.153   2.047 -1.1192 -0.8636 -1.3504
 9699TIP3    H250513   6.380   3.068   2.069 -1.9936  1.0056  1.5909
 9700TIP3   OH250514   4.313   1.676  14.718 -0.4923  0.3324  0.0626
 9700TIP3    H150515   4.267   1.759  14.713 -1.3195 -0.1296 -0.2235
 9700TIP3    H250516   4.298   1.634  14.633  0.6585  0.2619 -0.1264
 9701TIP3   OH250517   2.271   2.445   2.619 -0.6904  0.0914 -0.2544
 9701TIP3    H150518   2.196   2.462   2.676 -1.5461 -0.2864 -1.2350
 9701TIP3    H250519   2.335   2.401   2.675 -1.1821  0.4367  0.5987
 9702TIP3   OH250520   3.202   2.579   2.079  0.0970  0.1125 -0.2957
 9702TIP3    H150521   3.162   2.568   1.992  0.4311 -2.4786 -0.1884
 9702TIP3    H250522   3.234   2.669   2.078 -1.3120  0.6859 -2.2494
 9703TIP3   OH250523   4.765   1.475  12.810  0.3190 -0.1876 -0.1206
 9703TIP3    H150524   4.711   1.536  12.759  0.6873 -0.5514 -0.9582
 9703TIP3    H250525   4.838   1.454  12.752 -0.4090 -2.3608 -0.3181
 9704TIP3   OH250526   3.612   4.769  14.351  0.0258  0.1498  0.1287
 9704TIP3    H150527   3.675   4.746  14.419  0.7486  0.6260 -0.3626
 9704TIP3    H250528   3.588   4.685  14.312  1.1299  0.0236 -0.3366
 9705TIP3   OH250529   1.509   4.510   1.848 -0.1494  0.2553 -0.2600
 9705TIP3    H150530   1.538   4.564   1.921  0.4380 -0.2867 -0.0798
 9705TIP3    H250531   1.550   4.425   1.863 -0.4698 -0.0268 -0.9242
 9706TIP3   OH250532   5.111   2.145   0.041  0.6082  0.1034 -0.1719
 9706TIP3    H150533   5.125   2.131   0.134 -0.7808  1.9815  0.3843
 9706TIP3    H250534   5.070   2.064   0.010 -0.5644  0.1088  1.2510
 9707TIP3   OH250535   6.385   3.044  11.077  0.9643  0.2805 -0.4392
 9707TIP3    H150536   6.353   2.960  11.045  0.3581  0.2167  0.2942
 9707TIP3    H250537   6.317   3.107  11.053  1.5869  0.6314 -1.3076
 9708TIP3   OH250538   3.164   3.808  12.567  0.8331 -0.3309 -0.2249
 9708TIP3    H150539   3.145   3.867  12.640  1.0826 -0.8466  0.2675
 9708TIP3    H250540   3.125   3.725  12.594  0.4711 -0.3885 -0.9174
 9709TIP3   OH250541   2.718   3.919   4.251  0.8203 -0.3542  0.1109
 9709TIP3    H150542   2.720   3.823   4.254  0.2355 -0.3549  0.8429
 9709TIP3    H250543   2.774   3.945   4.324 -2.5130 -0.2100  2.8754
 9710TIP3   OH250544   3.194   1.877  11.013  0.2490 -0.1628 -0.3351
 9710TIP3    H150545   3.184   1.859  10.919 -0.5156 -0.4741 -0.2060
 9710TIP3    H250546   3.269   1.825  11.039  0.9419  0.5179 -0.9245
 9711TIP3   OH250547   5.085   5.358   5.063 -0.0125  0.3844  0.1034
 9711TIP3    H150548   5.135   5.435   5.039 -1.5998  0.7400 -2.5914
 9711TIP3    H250549   5.139   5.311   5.126  1.7406  2.8162  0.5024
 9712TIP3   OH250550   1.743   1.254  17.091  0.2506  0.4367  0.0176
 9712TIP3    H150551   1.782   1.341  17.095  1.2940  0.0028 -0.2206
 9712TIP3    H250552   1.649   1.269  17.098  0.3413  1.6484 -0.9460
 9713TIP3   OH250553   0.765   3.382   3.172 -0.1390  0.0578 -0.3498
 9713TIP3    H150554   0.727   3.392   3.084  1.3153 -1.9644 -1.3077
 9713TIP3    H250555   0.859   3.394   3.158  0.2278 -1.3748  0.6950
 9714TIP3   OH250556   4.206   4.859   4.742  0.2944 -0.3029  0.2696
 9714TIP3    H150557   4.130   4.851   4.799  1.3591  1.9331  2.1661
 9714TIP3    H250558   4.244   4.771   4.741 -2.5144 -1.6108 -1.1793
 9715TIP3   OH250559   6.426   2.257  13.097 -0.6824  0.2162 -0.6548
 9715TIP3    H150560   6.360   2.191  13.116 -0.5022 -0.9181 -3.4200
 9715TIP3    H250561   6.491   2.211  13.043  0.4220  2.2070 -1.1213
 9716TIP3   OH250562   3.026   0.435   3.728 -0.2446  0.1595 -0.3545
 9716TIP3    H150563   2.945   0.411   3.682 -1.0465 -0.3962  1.2990
 9716TIP3    H250564   3.028   0.379   3.805  1.3321  0.7286  0.0540
 9717TIP3   OH250565   5.303   0.974  16.910 -0.1209  0.3665  0.1425
 9717TIP3    H150566   5.275   0.927  16.988  3.8792  0.2752  1.7607
 9717TIP3    H250567   5.310   1.066  16.938  1.2595  0.3486 -0.0651
 9718TIP3   OH250568   0.444   2.731  13.723  0.1996  0.0042 -0.0494
 9718TIP3    H150569   0.361   2.752  13.765  1.1542  0.5980  1.6558
 9718TIP3    H250570   0.503   2.802  13.750  1.1891 -0.2586 -1.4309
 9719TIP3   OH250571   6.708   3.397  12.376 -0.3443  0.3253  0.1149
 9719TIP3    H150572   6.749   3.450  12.308 -2.2994  0.6597 -0.8612
 9719TIP3    H250573   6.673   3.460  12.438 -1.9021  0.2052 -0.5927
 9720TIP3   OH250574   3.288   2.359   4.652 -0.6191  0.1702 -0.4676
 9720TIP3    H150575   3.282   2.406   4.569  1.7128  1.1532 -0.1669
 9720TIP3    H250576   3.322   2.273   4.629  1.1862  0.8450 -0.4867
 9721TIP3   OH250577   0.417   2.715  16.936  0.6536 -0.2498 -0.2134
 9721TIP3    H150578   0.339   2.666  16.906 -0.0680  1.0085 -0.4484
 9721TIP3    H250579   0.467   2.651  16.986 -1.3396 -0.6972  1.3276
 9722TIP3   OH250580   3.901   5.131   5.645  0.3757  0.1127  0.7273
 9722TIP3    H150581   3.832   5.184   5.685 -2.2441 -1.9611 -0.6992
 9722TIP3    H250582   3.927   5.070   5.715 -1.8765 -1.3923  0.3677
 9723TIP3   OH250583   6.664   2.421   4.891 -0.4778  0.2080 -0.5077
 9723TIP3    H150584   6.666   2.514   4.866 -2.6612  0.5580  0.4352
 9723TIP3    H250585   6.595   2.383   4.837 -0.3066 -0.6503 -0.1417
 9724TIP3   OH250586   0.507   2.815   3.228  0.0908 -0.1127 -0.4107
 9724TIP3    H150587   0.518   2.879   3.298 -0.7699 -0.4928  0.0821
 9724TIP3    H250588   0.421   2.835   3.190 -0.1460 -0.9193 -0.3078
 9725TIP3   OH250589   1.978   6.659   6.194 -0.6143 -0.8917  0.3066
 9725TIP3    H150590   2.010   6.711   6.120 -1.5840 -0.7183  0.0052
 9725TIP3    H250591   1.963   6.723   6.264  0.1105 -1.0306  0.5978
 9726TIP3   OH250592   3.911   0.571  13.939 -0.2716 -0.4412 -0.1344
 9726TIP3    H150593   3.889   0.631  14.011 -0.4153 -2.1893  1.3588
 9726TIP3    H250594   4.006   0.560  13.946 -0.1090  0.2883 -0.9953
 9727TIP3   OH250595   3.626   1.188   0.823 -0.6480  0.3805  0.2874
 9727TIP3    H150596   3.582   1.177   0.907 -2.5137  0.7071 -0.5897
 9727TIP3    H250597   3.711   1.145   0.834 -0.9112  0.3008  2.2707
 9728TIP3   OH250598   1.723   2.518   3.824  0.6406 -0.2219 -0.1680
 9728TIP3    H150599   1.658   2.566   3.772 -0.0411 -1.4774 -0.5148
 9728TIP3    H250600   1.761   2.584   3.882 -0.0892  0.7819 -0.7994
 9729TIP3   OH250601   4.798   5.500  13.316 -0.4649 -0.2552  0.0146
 9729TIP3    H150602   4.843   5.416  13.320  0.0903  0.0340 -0.0589
 9729TIP3    H250603   4.775   5.510  13.223  0.1302  0.0145 -0.1062
 9730TIP3   OH250604   4.789   4.334  11.270  0.0908  0.3599  0.6639
 9730TIP3    H150605   4.742   4.385  11.204 -0.1762 -1.5868 -0.7408
 9730TIP3    H250606   4.881   4.359  11.259 -0.0246  0.4687 -0.0615
 9731TIP3   OH250607   3.149   6.098  13.363 -0.1230 -0.4060 -0.3920
 9731TIP3    H150608   3.068   6.106  13.313 -0.6593  0.8003  0.6242
 9731TIP3    H250609   3.211   6.153  13.316 -0.6969  0.9315  0.3567
 9732TIP3   OH250610   2.161   2.832   2.295  0.6610  0.1713  0.3644
 9732TIP3    H150611   2.159   2.849   2.200 -2.5770 -0.5593  0.1654
 9732TIP3    H250612   2.122   2.910   2.334  2.2586  0.5997  1.1907
 9733TIP3   OH250613   0.363   1.423  12.955  0.1907  0.3102  0.2464
 9733TIP3    H150614   0.456   1.434  12.936  0.5877 -1.8612  0.6579
 9733TIP3    H250615   0.330   1.370  12.882 -0.6245  0.6565  0.3532
 9734TIP3   OH250616   5.064   1.789  11.813  0.6263  0.5064  0.5931
 9734TIP3    H150617   5.044   1.879  11.787 -1.7899 -0.3239 -0.7307
 9734TIP3    H250618   5.011   1.773  11.891 -0.1971 -0.2228 -0.0938
 9735TIP3   OH250619   5.792   5.957   2.434  0.1865 -0.0189 -0.6080
 9735TIP3    H150620   5.732   5.883   2.444 -0.9177  0.9229  0.0072
 9735TIP3    H250621   5.879   5.918   2.443 -0.2520 -1.5683 -2.4929
 9736TIP3   OH250622   0.324   5.095   3.321 -0.0423 -0.0866  0.2791
 9736TIP3    H150623   0.383   5.170   3.330 -0.5523  0.3518  0.0264
 9736TIP3    H250624   0.282   5.087   3.406  0.7498 -0.7194  0.6198
 9737TIP3   OH250625   1.322   1.047   1.562 -0.2757 -0.0675  0.4172
 9737TIP3    H150626   1.394   1.110   1.573  0.5643 -0.1545 -3.3093
 9737TIP3    H250627   1.358   0.964   1.593  0.8578  0.1214 -0.3277
 9738TIP3   OH250628   3.010   2.326  15.552  0.3611 -0.0214 -0.0182
 9738TIP3    H150629   2.956   2.248  15.539 -2.0042  0.9334  3.0499
 9738TIP3    H250630   3.010   2.369  15.466 -0.9379 -1.7760 -0.9648
 9739TIP3   OH250631   5.117   1.641  15.081 -0.1527 -0.1656 -0.2434
 9739TIP3    H150632   5.078   1.614  14.998 -1.4097 -1.2364  0.6327
 9739TIP3    H250633   5.074   1.724  15.102  1.5921  1.1308 -1.5514
 9740TIP3   OH250634   4.203   3.721   3.132 -0.0461 -0.1142 -0.6875
 9740TIP3    H150635   4.257   3.709   3.209  0.2710  1.4256 -0.6288
 9740TIP3    H250636   4.229   3.651   3.072 -1.1242 -2.0762  0.9965
 9741TIP3   OH250637   0.107   4.921  12.796 -0.0209  0.2937  0.5004
 9741TIP3    H150638   0.085   4.974  12.720  0.4659  0.5701  0.5527
 9741TIP3    H250639   0.153   4.980  12.855 -0.2007  0.0272  0.9212
 9742TIP3   OH250640   0.819   1.281  16.932  0.4091  0.8953 -0.1271
 9742TIP3    H150641   0.838   1.349  16.996 -1.9166  0.2863  1.3458
 9742TIP3    H250642   0.725   1.288  16.917 -0.0686 -2.3347  0.5663
 9743TIP3   OH250643   3.843   2.596   3.857  0.3363  0.4789  0.5246
 9743TIP3    H150644   3.818   2.630   3.771  1.0613  0.0714  0.1435
 9743TIP3    H250645   3.811   2.505   3.857  2.7753 -0.4647 -0.4542
 9744TIP3   OH250646   2.149   2.292  12.839 -0.2434  0.4899  0.4745
 9744TIP3    H150647   2.111   2.205  12.834  1.3250 -0.2149  0.0113
 9744TIP3    H250648   2.099   2.344  12.777 -0.4112 -0.4178 -0.1648
 9745TIP3   OH250649   5.839   4.213  12.485  0.4627  0.0134 -0.5130
 9745TIP3    H150650   5.788   4.287  12.519  1.1610  0.0128  0.5875
 9745TIP3    H250651   5.826   4.143  12.549  1.5136 -0.1151 -0.4256
 9746TIP3   OH250652   3.997   2.923   1.310 -0.1896  0.2099 -1.0385
 9746TIP3    H150653   4.007   2.853   1.245  0.5567 -2.5594  1.7772
 9746TIP3    H250654   4.067   2.906   1.374 -3.1480  0.1517  2.5480
 9747TIP3   OH250655   5.013   6.752  15.428  0.2412  0.0268 -0.0481
 9747TIP3    H150656   4.972   6.822  15.377  1.0663  0.5995  0.0602
 9747TIP3    H250657   5.013   6.676  15.369 -1.2869 -0.1004  0.0798
 9748TIP3   OH250658   6.403   3.123   4.014 -0.0997 -0.2685 -0.4382
 9748TIP3    H150659   6.341   3.051   4.004  0.1037 -0.3698 -1.0176
 9748TIP3    H250660   6.416   3.131   4.109 -0.8170 -0.3950 -0.3196
 9749TIP3   OH250661   1.556   5.853   5.425 -0.8052  0.3249 -0.0678
 9749TIP3    H150662   1.535   5.933   5.376 -1.5249 -0.4411 -1.0417
 9749TIP3    H250663   1.497   5.787   5.390 -0.7710 -0.4608  1.2828
 9750TIP3   OH250664   1.795   3.879  16.380 -0.2543  0.5608  0.6180
 9750TIP3    H150665   1.791   3.788  16.407 -0.9794  0.5985  0.6493
 9750TIP3    H250666   1.721   3.921  16.424 -0.7511  0.8766 -0.4628
 9751TIP3   OH250667   0.324   2.053   1.156  0.3830 -0.1158 -0.1753
 9751TIP3    H150668   0.396   2.096   1.111  0.4582  0.5673  0.5934
 9751TIP3    H250669   0.248   2.110   1.141 -0.2112 -1.2094 -1.6342
 9752TIP3   OH250670   6.383   1.290  11.008  0.2888  0.4352  0.9508
 9752TIP3    H150671   6.466   1.302  11.055  0.3919  0.7000  0.7046
 9752TIP3    H250672   6.403   1.316  10.918  0.3932 -1.1542  0.4934
 9753TIP3   OH250673   4.514   6.491   2.715  0.3077  0.7313 -0.7017
 9753TIP3    H150674   4.459   6.475   2.792  0.1267 -0.9490 -1.1359
 9753TIP3    H250675   4.591   6.535   2.749 -0.7985  2.1722  0.0720
 9754TIP3   OH250676   2.928   0.715   1.943 -0.1651 -0.5469  0.7517
 9754TIP3    H150677   2.951   0.772   2.017 -1.7833  1.7936 -0.4345
 9754TIP3    H250678   3.002   0.722   1.884  0.3293 -0.9521  1.3120
 9755TIP3   OH250679   0.415   6.526  12.570  0.8431  0.4434  0.0457
 9755TIP3    H150680   0.332   6.487  12.597 -0.2828  1.0592 -2.2209
 9755TIP3    H250681   0.429   6.599  12.631 -0.3217  0.3707  0.4221
 9756TIP3   OH250682   5.767   2.535   4.865 -0.2180 -0.3520  0.2077
 9756TIP3    H150683   5.821   2.600   4.910  0.5112  0.0343 -1.1786
 9756TIP3    H250684   5.791   2.451   4.906  0.6668 -0.0522  0.3249
 9757TIP3   OH250685   0.104   2.056  11.718  0.0717  0.6475 -0.1574
 9757TIP3    H150686   0.068   2.054  11.629  1.7826 -1.1346 -0.8877
 9757TIP3    H250687   0.185   2.107  11.710  1.0266 -0.7753 -0.0199
 9758TIP3   OH250688   4.212   0.121   5.746  0.1435 -0.3459  0.1272
 9758TIP3    H150689   4.225   0.038   5.700  2.0564  1.8465 -3.7936
 9758TIP3    H250690   4.126   0.151   5.718  0.1485 -0.2498  0.2166
 9759TIP3   OH250691   5.151   0.707  12.850 -0.4474 -0.2453  0.6275
 9759TIP3    H150692   5.065   0.742  12.825 -1.0247 -0.7223  1.8207
 9759TIP3    H250693   5.130   0.628  12.900  0.7594 -1.3773 -0.5655
 9760TIP3   OH250694   6.530   5.886   5.855 -0.3688  0.2975 -0.1600
 9760TIP3    H150695   6.502   5.862   5.767  2.0563  1.4461 -1.3363
 9760TIP3    H250696   6.552   5.802   5.897 -1.5598 -0.2562 -0.6101
 9761TIP3   OH250697   2.034   4.609   1.167 -0.4484  0.4312  0.2881
 9761TIP3    H150698   2.114   4.569   1.202 -0.6551 -0.1918  0.0595
 9761TIP3    H250699   1.963   4.555   1.203 -0.6664 -0.2440 -1.0838
 9762TIP3   OH250700   4.426   0.628   3.417 -0.0358  0.6582  0.1024
 9762TIP3    H150701   4.494   0.571   3.452  0.5153 -0.2090 -2.2060
 9762TIP3    H250702   4.345   0.597   3.458  0.3432 -1.4038 -0.5779
 9763TIP3   OH250703   0.928   5.070   3.437  0.2004 -0.0973 -0.0220
 9763TIP3    H150704   0.911   4.999   3.499  0.9738  1.4613  2.0906
 9763TIP3    H250705   0.875   5.048   3.360 -2.8218 -0.8707  2.1093
 9764TIP3   OH250706   6.249   4.103   0.810 -0.2671  0.1873 -0.3582
 9764TIP3    H150707   6.254   4.199   0.806  2.0278  0.4120  3.2149
 9764TIP3    H250708   6.305   4.074   0.738 -0.5868  1.5147 -1.1913
 9765TIP3   OH250709   4.668   2.902  14.758  0.4322 -0.1530 -0.0787
 9765TIP3    H150710   4.629   2.829  14.710  0.5890 -0.6387  0.5198
 9765TIP3    H250711   4.693   2.865  14.842 -1.0701  0.9985  0.9359
 9766TIP3   OH250712   5.206   4.420  15.146  0.3218 -0.0104  0.1835
 9766TIP3    H150713   5.225   4.344  15.091 -0.4915  0.0927 -0.2512
 9766TIP3    H250714   5.148   4.475  15.093  2.8947  2.2074 -0.5821
 9767TIP3   OH250715   3.220   1.873  12.724  0.3909 -0.7051 -0.3398
 9767TIP3    H150716   3.312   1.895  12.744 -1.0196  3.7627  3.1502
 9767TIP3    H250717   3.197   1.808  12.790  0.2890  0.8556  1.2523
 9768TIP3   OH250718   3.806   3.600   0.905 -0.6208 -0.4946  0.1085
 9768TIP3    H150719   3.765   3.517   0.930  0.2031 -0.8377  0.3303
 9768TIP3    H250720   3.735   3.649   0.862 -1.0834 -1.3600 -0.1438
 9769TIP3   OH250721   1.720   4.863  16.808 -0.3823 -0.6194  0.0397
 9769TIP3    H150722   1.811   4.874  16.833 -0.3680  1.7198 -0.7709
 9769TIP3    H250723   1.672   4.858  16.890  0.2744  0.3021  0.4881
 9770TIP3   OH250724   4.514   6.685  15.700  0.2074  0.2413 -0.1352
 9770TIP3    H150725   4.574   6.614  15.676 -1.5768 -1.8876  1.2239
 9770TIP3    H250726   4.427   6.651  15.678 -0.7485  1.8235  0.9725
 9771TIP3   OH250727   4.336   1.081  12.813 -0.2742 -0.0637  0.4485
 9771TIP3    H150728   4.396   1.098  12.885  1.1493  0.0659 -0.7187
 9771TIP3    H250729   4.347   0.988  12.793 -1.3520 -0.3264  0.9634
 9772TIP3   OH250730   3.200   3.514  16.782 -0.1451 -0.4956 -0.2576
 9772TIP3    H150731   3.149   3.584  16.823 -0.2793 -0.6152 -0.2174
 9772TIP3    H250732   3.274   3.500  16.842  0.4752  0.3434 -0.7985
 9773TIP3   OH250733   1.485   5.236   3.686  0.2152 -0.1982 -0.1198
 9773TIP3    H150734   1.498   5.330   3.683  1.1245 -0.3222 -0.3146
 9773TIP3    H250735   1.422   5.222   3.757 -0.5649  0.6118 -0.6256
 9774TIP3   OH250736   5.545   5.348  15.695 -0.5482  0.1348 -0.0495
 9774TIP3    H150737   5.478   5.336  15.628  0.6440  0.9665 -1.4344
 9774TIP3    H250738   5.521   5.285  15.763 -2.0197 -0.4621 -1.0535
 9775TIP3   OH250739   5.555   5.332  14.373  0.4563 -0.0584  0.0113
 9775TIP3    H150740   5.496   5.267  14.411  1.3198 -1.0926 -0.3728
 9775TIP3    H250741   5.496   5.400  14.338 -0.4856 -0.8727 -0.0348
 9776TIP3   OH250742   6.641   1.881   4.116 -0.1981  0.2984 -0.4425
 9776TIP3    H150743   6.647   1.863   4.022  0.3695  0.1014 -0.3739
 9776TIP3    H250744   6.677   1.970   4.124 -0.0029  0.2126 -0.3769
 9777TIP3   OH250745   6.033   0.676  11.122 -0.0648 -0.1450  0.6225
 9777TIP3    H150746   6.086   0.687  11.201  0.0971  0.3512  0.4467
 9777TIP3    H250747   5.971   0.607  11.144  0.5968 -0.6792  0.8615
 9778TIP3   OH250748   4.778   1.388   1.486  0.4618 -0.3026 -0.0946
 9778TIP3    H150749   4.683   1.384   1.488  0.4865 -0.7083  0.2969
 9778TIP3    H250750   4.807   1.302   1.516  0.9490 -1.1711 -2.7960
 9779TIP3   OH250751   5.240   3.828   0.436 -0.0984  0.5971  0.0239
 9779TIP3    H150752   5.331   3.843   0.461 -0.2180 -0.7436  1.4218
 9779TIP3    H250753   5.241   3.826   0.341  1.2834  0.8569  0.0180
 9780TIP3   OH250754   3.355   4.886  15.749 -0.0716  0.0853 -0.3498
 9780TIP3    H150755   3.324   4.834  15.823  1.5676 -1.6653 -0.8093
 9780TIP3    H250756   3.319   4.842  15.672  0.1924  0.4558 -0.6870
 9781TIP3   OH250757   5.309   3.690   3.904 -0.1358  0.0397  0.4218
 9781TIP3    H150758   5.395   3.728   3.887 -0.4684  0.4971 -0.3123
 9781TIP3    H250759   5.313   3.659   3.994  0.3363  1.3008  0.8485
 9782TIP3   OH250760   0.350   4.859   6.308 -0.2239  0.1577  0.8166
 9782TIP3    H150761   0.396   4.800   6.368 -1.2963 -0.0617  1.4413
 9782TIP3    H250762   0.312   4.926   6.364  1.0588  1.5397  0.1042
 9783TIP3   OH250763   1.841   2.550   1.470  0.4480  0.6203 -0.2743
 9783TIP3    H150764   1.778   2.606   1.515  0.5213  1.5412 -1.2883
 9783TIP3    H250765   1.890   2.507   1.540  0.0426  1.4279  0.5161
 9784TIP3   OH250766   2.384   1.273  13.821 -0.4893  0.0012 -0.2413
 9784TIP3    H150767   2.329   1.324  13.762  0.1369 -1.1085 -1.8348
 9784TIP3    H250768   2.334   1.193  13.838 -0.7709  0.4094  0.9688
 9785TIP3   OH250769   6.671   5.340  12.113  0.4156  0.1980  0.1747
 9785TIP3    H150770   6.709   5.409  12.058  0.0065 -0.8582 -1.4958
 9785TIP3    H250771   6.745   5.298  12.154  0.8052  0.3861 -0.3245
 9786TIP3   OH250772   0.758   2.915  17.169 -0.0516  0.2083  0.5602
 9786TIP3    H150773   0.770   2.980  17.238  0.5022 -0.3147  0.9610
 9786TIP3    H250774   0.845   2.882  17.151 -0.2258  0.1474 -0.2139
 9787TIP3   OH250775   0.900   1.521   5.434 -0.3672  0.7331 -0.2858
 9787TIP3    H150776   0.865   1.485   5.515  1.5413 -0.9768 -0.1317
 9787TIP3    H250777   0.993   1.535   5.452 -0.0116  0.8576 -1.9994
 9788TIP3   OH250778   3.353   3.066  11.300 -0.1533  0.4908 -0.0590
 9788TIP3    H150779   3.425   3.029  11.351  0.5603  1.0276 -0.6568
 9788TIP3    H250780   3.276   3.052  11.354  0.2075 -1.1658  0.0693
 9789TIP3   OH250781   2.253   1.923  11.081  0.0443  0.0176 -0.4772
 9789TIP3    H150782   2.307   2.000  11.061  2.3729 -1.4195 -0.1475
 9789TIP3    H250783   2.210   1.901  10.998  0.5021  0.8347 -0.9365
 9790TIP3   OH250784   4.509   5.674   5.890 -0.0819 -0.1411 -0.0518
 9790TIP3    H150785   4.577   5.715   5.836  0.0764 -1.1808 -0.6589
 9790TIP3    H250786   4.472   5.605   5.835 -1.8599  0.5911  0.1562
 9791TIP3   OH250787   3.536   4.324  12.741 -0.1311  0.9515  0.2951
 9791TIP3    H150788   3.566   4.298  12.828  0.4141 -1.7189 -0.5925
 9791TIP3    H250789   3.449   4.285  12.733 -0.1661  1.1585 -0.3673
 9792TIP3   OH250790   3.859   4.540  17.346  0.3610 -0.0492  0.2822
 9792TIP3    H150791   3.891   4.502  17.264  2.1767  0.1504  0.8541
 9792TIP3    H250792   3.815   4.621  17.320  1.5654  0.3947 -0.4500
 9793TIP3   OH250793   6.266   3.764  14.195  0.9603 -0.0831 -0.3675
 9793TIP3    H150794   6.209   3.837  14.219 -0.2901 -0.3468 -2.3395
 9793TIP3    H250795   6.310   3.793  14.115  0.7486 -1.3257 -0.9531
 9794TIP3   OH250796   3.271   3.112   2.227  0.3576 -0.0850  0.0512
 9794TIP3    H150797   3.321   3.126   2.146 -0.2053  1.2091 -0.1003
 9794TIP3    H250798   3.324   3.153   2.295 -0.6854  1.8135 -0.1943
 9795TIP3   OH250799   0.120   6.251  11.752  0.5032 -0.3508  0.4457
 9795TIP3    H150800   0.130   6.337  11.795  0.4116  0.0004 -0.2209
 9795TIP3    H250801   0.167   6.261  11.669 -1.3588 -0.2091 -0.6368
 9796TIP3   OH250802   0.877   4.724  12.259  0.5522  0.3747  0.3781
 9796TIP3    H150803   0.908   4.771  12.181  3.0036 -2.8434 -0.8180
 9796TIP3    H250804   0.954   4.716  12.314 -0.1253 -0.9369  1.1791
 9797TIP3   OH250805   5.743   1.620  11.548  0.4937 -0.1631  0.2947
 9797TIP3    H150806   5.788   1.659  11.472  0.6484 -2.1232 -0.7045
 9797TIP3    H250807   5.655   1.600  11.516 -0.1562  0.9299  1.3283
 9798TIP3   OH250808   0.907   1.728  12.716  0.6797  0.0521 -0.1286
 9798TIP3    H150809   0.931   1.764  12.801  3.2064 -2.7057  0.4910
 9798TIP3    H250810   0.985   1.740  12.661 -0.5137  0.7903 -1.7577
 9799TIP3   OH250811   1.143   1.544   5.529  0.0946 -0.5467  0.2406
 9799TIP3    H150812   1.170   1.506   5.613  0.1650 -1.4858 -0.1947
 9799TIP3    H250813   1.220   1.591   5.498 -0.0342  0.0843  0.8501
 9800TIP3   OH250814   4.441   5.698  12.386 -0.0959 -0.1891  0.5533
 9800TIP3    H150815   4.379   5.767  12.410 -0.2995  0.2163 -0.9920
 9800TIP3    H250816   4.394   5.616  12.401 -0.1133  0.0264  1.7225
 9801TIP3   OH250817   5.881   3.387   1.999  0.0313  0.3628  0.3174
 9801TIP3    H150818   5.881   3.383   2.095 -1.3645 -2.1232  0.2774
 9801TIP3    H250819   5.890   3.296   1.971  1.7579  1.1540 -1.9744
 9802TIP3   OH250820   0.130   0.259   4.618  0.2212 -0.8845  0.1540
 9802TIP3    H150821   0.093   0.220   4.539 -0.2912 -1.1506  0.5177
 9802TIP3    H250822   0.082   0.341   4.629  2.3844  0.7139 -1.5045
 9803TIP3   OH250823   6.230   2.567  11.233 -0.1281 -0.5592 -0.4478
 9803TIP3    H150824   6.319   2.602  11.236 -0.1606 -0.2293 -2.1467
 9803TIP3    H250825   6.201   2.566  11.324  0.6993  1.7586 -0.0862
 9804TIP3   OH250826   0.087   4.379  15.025  0.1900  0.5072 -0.6332
 9804TIP3    H150827  -0.001   4.399  14.994 -0.7152 -1.0692  0.7244
 9804TIP3    H250828   0.134   4.350  14.947 -0.8098  0.4227 -1.2159
 9805TIP3   OH250829   3.784   6.754   1.333  0.0158  0.0006 -0.6187
 9805TIP3    H150830   3.701   6.707   1.343  0.8852 -1.6353 -0.8834
 9805TIP3    H250831   3.851   6.693   1.364  0.9246  2.4614  3.0059
 9806TIP3   OH250832   0.753   6.620   1.454 -0.0170 -0.4445  0.4572
 9806TIP3    H150833   0.761   6.556   1.383  0.1001  0.5910 -0.4923
 9806TIP3    H250834   0.841   6.653   1.468  0.5386 -2.7024  3.1411
 9807TIP3   OH250835   4.770   1.376  15.101  0.0203  0.6751 -0.4873
 9807TIP3    H150836   4.853   1.348  15.139 -0.7693  1.3741  1.9984
 9807TIP3    H250837   4.790   1.459  15.057  0.6841  0.7191 -0.1106
 9808TIP3   OH250838   1.374   5.549  14.237  0.0864  0.2136  0.7115
 9808TIP3    H150839   1.328   5.478  14.282  1.0286 -0.4904  0.5839
 9808TIP3    H250840   1.464   5.545  14.270  0.2693  1.0502  0.3506
 9809TIP3   OH250841   1.941   5.163   3.414 -0.0965  0.0127 -0.3572
 9809TIP3    H150842   2.027   5.157   3.456 -0.2056  1.5055  0.1545
 9809TIP3    H250843   1.881   5.125   3.478  0.0936 -0.3527 -0.3951
 9810TIP3   OH250844   5.357   0.957   3.324  0.0094 -0.0613 -0.0694
 9810TIP3    H150845   5.307   0.920   3.397  0.3257 -1.6861 -0.6364
 9810TIP3    H250846   5.448   0.943   3.348  0.1896  1.7171  0.3638
 9811TIP3   OH250847   4.069   5.576   0.894 -0.0841 -0.7380 -0.2558
 9811TIP3    H150848   4.059   5.605   0.984  1.4650  0.7855 -0.5138
 9811TIP3    H250849   4.036   5.648   0.841 -2.6065 -2.2970 -0.9839
 9812TIP3   OH250850   4.997   0.618  16.497  0.1471 -0.1032  0.0847
 9812TIP3    H150851   4.920   0.586  16.544  0.3713  0.0308  0.5570
 9812TIP3    H250852   4.966   0.639  16.409 -0.2427 -0.5419  0.1139
 9813TIP3   OH250853   5.588   6.698   1.949 -0.0474  0.0201 -0.4856
 9813TIP3    H150854   5.619   6.739   2.030 -2.6260  0.5721  0.3274
 9813TIP3    H250855   5.557   6.771   1.896 -0.3245 -0.5122 -1.0726
 9814TIP3   OH250856   1.415   2.786   2.051  0.0271 -0.1611  0.1465
 9814TIP3    H150857   1.491   2.729   2.036 -1.2927 -1.8752 -0.3200
 9814TIP3    H250858   1.397   2.825   1.965 -0.5915 -1.0374 -0.1332
 9815TIP3   OH250859   2.744   2.042  13.275  0.2830  0.4861  0.2489
 9815TIP3    H150860   2.712   2.035  13.185 -0.6632 -1.2830  0.6907
 9815TIP3    H250861   2.672   2.082  13.323  0.2539  0.1548  0.4838
 9816TIP3   OH250862   3.283   5.970  11.728  0.3994  0.2213 -0.4036
 9816TIP3    H150863   3.335   6.015  11.795 -0.0022 -0.0673  0.1004
 9816TIP3    H250864   3.307   6.015  11.646 -1.0649  2.3404  0.2550
 9817TIP3   OH250865   2.879   0.371  17.308 -0.4842 -0.3276  0.0210
 9817TIP3    H150866   2.869   0.294  17.252  0.9140 -0.3299 -0.2567
 9817TIP3    H250867   2.839   0.345  17.391 -2.5316 -0.3436 -0.9187
 9818TIP3   OH250868   3.095   2.151   1.231 -0.3655  0.0963  0.2827
 9818TIP3    H150869   3.084   2.056   1.219 -1.9777  0.3894 -0.8708
 9818TIP3    H250870   3.156   2.177   1.162  2.7965 -0.5231  2.6207
 9819TIP3   OH250871   4.930   0.563  13.206 -1.0030 -0.0650 -0.0298
 9819TIP3    H150872   4.983   0.488  13.177 -0.4769  0.6095 -0.8506
 9819TIP3    H250873   4.840   0.532  13.201 -0.9252 -0.0557 -2.2084
 9820TIP3   OH250874   1.693   0.003  15.798 -0.2902  0.2205  0.4688
 9820TIP3    H150875   1.787   0.001  15.818  0.2016  0.3943 -1.6116
 9820TIP3    H250876   1.671  -0.087  15.775 -0.1824  0.5069 -0.8276
 9821TIP3   OH250877   1.273   0.354  15.341 -0.2198 -0.0605 -0.1959
 9821TIP3    H150878   1.198   0.306  15.377 -0.1402 -0.2236 -0.2448
 9821TIP3    H250879   1.341   0.346  15.408  0.4439 -1.6636 -1.0144
 9822TIP3   OH250880   5.448   5.962   0.525  0.5575  0.1633 -0.0537
 9822TIP3    H150881   5.487   5.905   0.592  0.9299 -0.5900 -0.8972
 9822TIP3    H250882   5.487   6.048   0.543  0.9107 -0.0987  0.4917
 9823TIP3   OH250883   4.770   3.846   5.831  0.2668 -0.4794 -0.6451
 9823TIP3    H150884   4.847   3.790   5.837  1.3189  0.7848 -1.6659
 9823TIP3    H250885   4.699   3.787   5.807  0.9645 -1.6362  0.0695
 9824TIP3   OH250886   0.395   2.229  14.338 -1.3697 -0.1006 -0.1065
 9824TIP3    H150887   0.456   2.303  14.334 -1.6469  0.0797 -2.1829
 9824TIP3    H250888   0.343   2.245  14.416  0.8799 -0.0172  1.4894
 9825TIP3   OH250889   6.642   3.765   4.978 -0.1132  0.6002  0.2422
 9825TIP3    H150890   6.551   3.768   4.949 -0.3821 -2.6901  0.3827
 9825TIP3    H250891   6.693   3.769   4.897 -0.5774 -1.0877 -0.1738
 9826TIP3   OH250892   5.565   1.089   2.524  0.0509 -0.5593  0.0862
 9826TIP3    H150893   5.496   1.023   2.535 -0.5586 -0.2217 -1.4230
 9826TIP3    H250894   5.600   1.071   2.436 -0.4370  1.3826 -0.5414
 9827TIP3   OH250895   6.498   4.626   4.416  0.0308  0.1255 -0.2137
 9827TIP3    H150896   6.577   4.656   4.461  0.6509 -1.8385  0.1236
 9827TIP3    H250897   6.441   4.595   4.485 -0.1561 -0.3819 -0.5878
 9828TIP3   OH250898   3.305   2.586   2.363  0.0373  0.4177 -0.3857
 9828TIP3    H150899   3.271   2.599   2.274  0.3626 -0.2508 -0.6127
 9828TIP3    H250900   3.324   2.675   2.394 -1.7531  0.8067 -0.2947
 9829TIP3   OH250901   4.787   5.877  13.384 -0.4638  0.4550  0.2226
 9829TIP3    H150902   4.878   5.857  13.363 -0.5791 -1.4546  1.3041
 9829TIP3    H250903   4.749   5.909  13.302  0.8419 -0.0246 -0.5916
 9830TIP3   OH250904   6.056   0.842   2.543  0.3701  0.2939  0.1569
 9830TIP3    H150905   6.114   0.914   2.567 -0.6465  0.4933  2.1932
 9830TIP3    H250906   5.974   0.860   2.589 -0.7881 -0.8273 -1.3567
 9831TIP3   OH250907   6.186   0.271  17.327 -0.2026  0.0793 -0.2572
 9831TIP3    H150908   6.160   0.199  17.269  0.8993 -0.0920 -0.5616
 9831TIP3    H250909   6.131   0.345  17.299  1.3957  0.4811 -2.6724
 9832TIP3   OH250910   6.429   3.377  14.692  0.1902 -0.2126  0.3059
 9832TIP3    H150911   6.525   3.377  14.700  0.2690  0.6839 -0.5245
 9832TIP3    H250912   6.412   3.352  14.601 -0.3310  0.6555  0.1559
 9833TIP3   OH250913   0.887   1.318   4.043 -0.2428  0.2187 -0.3599
 9833TIP3    H150914   0.810   1.272   4.077  1.0294 -2.2011 -0.5646
 9833TIP3    H250915   0.853   1.373   3.972 -2.1862  1.5692  1.4749
 9834TIP3   OH250916   1.929   5.729  12.830 -0.2804 -0.2886  0.2471
 9834TIP3    H150917   1.907   5.650  12.780 -0.7712  0.2717 -0.4452
 9834TIP3    H250918   2.025   5.731  12.830 -0.2702 -0.7639  0.0638
 9835TIP3   OH250919   4.232   4.962  14.076 -0.3526 -0.4392 -0.3342
 9835TIP3    H150920   4.283   4.953  13.996  0.4011 -0.7207  0.1565
 9835TIP3    H250921   4.225   4.873  14.110  1.4320 -0.0978  1.1371
 9836TIP3   OH250922   6.329   2.842  10.441 -0.2129  0.3160 -0.4028
 9836TIP3    H150923   6.392   2.892  10.390  0.8997 -0.5745  0.0409
 9836TIP3    H250924   6.313   2.763  10.390 -0.7955  0.4330 -0.4052
 9837TIP3   OH250925   1.172   1.127   5.331  0.1265  0.3638  0.1317
 9837TIP3    H150926   1.214   1.045   5.304  1.9821  1.4391 -0.4680
 9837TIP3    H250927   1.080   1.104   5.343  0.8587 -2.1531  1.6135
 9838TIP3   OH250928   3.297   4.464  13.339 -0.8771 -0.2016  0.2064
 9838TIP3    H150929   3.306   4.369  13.329  0.4810  0.0743 -1.9146
 9838TIP3    H250930   3.388   4.495  13.346 -1.3002  0.9474  0.7773
 9839TIP3   OH250931   4.274   4.489  14.873 -0.4817 -0.2745 -0.0756
 9839TIP3    H150932   4.330   4.550  14.824  0.3492  0.5262  1.7738
 9839TIP3    H250933   4.194   4.482  14.820 -0.3067  1.8610 -0.7132
 9840TIP3   OH250934   3.478   2.958   5.397  0.1308 -0.5201 -0.0771
 9840TIP3    H150935   3.493   3.047   5.430 -0.3745  0.4314 -2.2031
 9840TIP3    H250936   3.561   2.933   5.356 -0.2396 -0.3013 -0.9880
 9841TIP3   OH250937   6.029   0.528  15.868 -0.1709 -0.2734 -0.0403
 9841TIP3    H150938   6.114   0.541  15.909 -0.7834 -1.3141  1.6651
 9841TIP3    H250939   6.030   0.437  15.838 -0.4825 -0.1318 -0.4916
 9842TIP3   OH250940   5.383   0.771   1.969  0.3333 -0.1546 -0.0436
 9842TIP3    H150941   5.413   0.743   2.056  0.5311 -0.2732 -0.1496
 9842TIP3    H250942   5.382   0.867   1.975 -2.1297 -0.1724  0.9207
 9843TIP3   OH250943   3.323   6.323   5.568 -0.1065  0.1009 -0.2636
 9843TIP3    H150944   3.267   6.366   5.633  0.4049 -2.1373  1.8209
 9843TIP3    H250945   3.292   6.232   5.566  0.3430 -0.0819 -2.7266
 9844TIP3   OH250946   2.488   0.988   1.069 -0.2347 -0.2338 -0.1067
 9844TIP3    H150947   2.444   0.960   1.149 -0.8300 -1.8911 -0.9684
 9844TIP3    H250948   2.507   1.081   1.083 -1.2492 -0.2375  1.5215
 9845TIP3   OH250949   0.434   4.818   6.065 -0.2122 -0.1950  0.0977
 9845TIP3    H150950   0.376   4.873   6.012 -1.7190 -0.9626  0.8856
 9845TIP3    H250951   0.399   4.825   6.154 -0.2283 -2.1048  0.2821
 9846TIP3   OH250952   5.748   5.112  16.955 -0.0775  0.4346 -0.5383
 9846TIP3    H150953   5.697   5.091  16.877  0.2928  0.5644 -0.8159
 9846TIP3    H250954   5.683   5.120  17.025 -0.1820 -2.5531 -0.2000
 9847TIP3   OH250955   2.918   3.146  13.891  0.1768 -0.7169 -0.2223
 9847TIP3    H150956   2.862   3.083  13.936  0.7496 -1.7876 -0.9786
 9847TIP3    H250957   2.971   3.094  13.832  0.8340  0.4563 -0.7087
 9848TIP3   OH250958   4.396   5.765  11.605  0.0346 -0.4218 -0.3966
 9848TIP3    H150959   4.338   5.790  11.677  1.3638  1.4402  0.1064
 9848TIP3    H250960   4.437   5.848  11.578  0.5894 -1.2959 -2.3975
 9849TIP3   OH250961   2.925   4.629  15.711 -0.1124 -0.1896 -0.0994
 9849TIP3    H150962   2.863   4.561  15.684 -1.3442 -0.1625  2.3655
 9849TIP3    H250963   2.985   4.583  15.770 -0.3983  0.6447  0.8594
 9850TIP3   OH250964   5.382   3.314  15.767 -0.2529  0.1606  0.7168
 9850TIP3    H150965   5.451   3.330  15.703 -0.8194 -1.6250 -0.4160
 9850TIP3    H250966   5.321   3.387  15.755  0.0156  0.2367 -0.2952
 9851TIP3   OH250967   2.395   5.472  13.146 -0.3099 -0.2222 -0.2172
 9851TIP3    H150968   2.348   5.549  13.114 -0.0433 -1.1303 -3.0867
 9851TIP3    H250969   2.326   5.413  13.177 -0.6867  0.2180 -0.2155
 9852TIP3   OH250970   1.478   0.109  14.368 -0.0373  0.3012  0.3749
 9852TIP3    H150971   1.445   0.129  14.281 -2.7092  2.6591  1.7725
 9852TIP3    H250972   1.438   0.025  14.391 -1.8225  1.1140  0.4058
 9853TIP3   OH250973   5.980   6.736  17.024  0.8400  0.1121  1.1556
 9853TIP3    H150974   6.057   6.703  16.979  0.4101  1.6402 -0.8441
 9853TIP3    H250975   6.013   6.807  17.079  0.7641  1.6663 -0.7154
 9854TIP3   OH250976   5.856   1.138   0.020  0.5957  0.1966  0.2996
 9854TIP3    H150977   5.778   1.188   0.045 -1.7402 -2.5858 -0.9722
 9854TIP3    H250978   5.883   1.093   0.101 -0.8958 -1.0337  0.1458
 9855TIP3   OH250979   4.910   0.466   3.734 -0.0616  0.0507 -0.2440
 9855TIP3    H150980   4.936   0.420   3.654 -1.0576 -1.3004  0.1799
 9855TIP3    H250981   4.931   0.406   3.805 -0.2217  0.7733  0.4252
 9856TIP3   OH250982   1.720   3.968   1.166  0.0841  0.2461  0.4971
 9856TIP3    H150983   1.803   3.925   1.186  1.2288  2.2465  0.2658
 9856TIP3    H250984   1.722   4.051   1.214 -1.4086  0.7251 -0.1779
 9857TIP3   OH250985   6.134   2.740  10.597 -0.3918 -0.3522  0.2692
 9857TIP3    H150986   6.064   2.724  10.534  0.5080  0.6667 -1.0718
 9857TIP3    H250987   6.203   2.783  10.545  0.3668  0.5895  1.9771
 9858TIP3   OH250988   5.989   6.158   1.337 -0.2240  0.7852 -0.0886
 9858TIP3    H150989   6.082   6.177   1.336 -0.0648  0.1181 -1.6637
 9858TIP3    H250990   5.974   6.114   1.421  1.2618 -0.7476 -0.5803
 9859TIP3   OH250991   4.763   2.981  14.443 -0.6462 -0.3601  0.7597
 9859TIP3    H150992   4.784   2.983  14.537 -0.1409  0.0985  0.6432
 9859TIP3    H250993   4.681   2.931  14.438  0.1292 -1.7348  1.2828
 9860TIP3   OH250994   5.652   0.310   1.221 -0.4171 -0.1648  0.5616
 9860TIP3    H150995   5.682   0.287   1.133  0.9733 -1.7295  1.3838
 9860TIP3    H250996   5.726   0.354   1.261 -0.0715 -1.7480  1.7589
 9861TIP3   OH250997   6.439   4.740   1.316 -0.5969  0.2205  0.7107
 9861TIP3    H150998   6.465   4.742   1.408 -1.0443 -1.7049  0.9132
 9861TIP3    H250999   6.350   4.707   1.316 -1.1775  1.6749 -0.3459
 9862TIP3   OH251000   2.127   6.395  13.918  0.0667  0.1431 -0.1521
 9862TIP3    H151001   2.074   6.359  13.988  0.1954 -1.5608 -0.8838
 9862TIP3    H251002   2.176   6.466  13.959 -0.7423 -0.0305  1.1789
 9863TIP3   OH251003   6.716   3.184  17.172 -0.2396 -0.2547  0.1565
 9863TIP3    H151004   6.672   3.132  17.239  1.3887  0.7296  2.1127
 9863TIP3    H251005   6.760   3.121  17.117  1.1564 -1.0554  2.0783
 9864TIP3   OH251006   4.404   3.291   4.339 -0.1372 -0.2711 -0.0932
 9864TIP3    H151007   4.431   3.382   4.327 -0.5864 -0.2299 -0.8624
 9864TIP3    H251008   4.311   3.291   4.319  0.1462 -1.1566 -1.5451
 9865TIP3   OH251009   6.315   1.834  13.387 -0.4066  0.5836 -0.4815
 9865TIP3    H151010   6.247   1.810  13.324  1.4277 -0.9879 -2.0231
 9865TIP3    H251011   6.393   1.849  13.333  0.7296  1.2676  1.2754
 9866TIP3   OH251012   2.975   5.409  16.918  0.6612  0.5466 -0.5503
 9866TIP3    H151013   2.952   5.424  17.010 -0.4797  0.3647 -0.8035
 9866TIP3    H251014   3.068   5.387  16.921  1.2295  2.7318  0.3478
 9867TIP3   OH251015   4.128   0.797   3.357 -0.3304 -0.1509  0.2990
 9867TIP3    H151016   4.178   0.736   3.302  0.1497  0.4693  0.0247
 9867TIP3    H251017   4.065   0.837   3.297 -0.7866 -0.5322  0.5246
 9868TIP3   OH251018   4.304   1.936   1.131  0.3092  0.2198  0.3570
 9868TIP3    H151019   4.257   1.862   1.092  1.6908 -0.9784  0.8842
 9868TIP3    H251020   4.317   1.997   1.057 -2.3039  0.7949  0.2644
 9869TIP3   OH251021   5.897   3.123   2.080 -0.1133 -0.4070  0.0936
 9869TIP3    H151022   5.929   3.170   2.156 -1.4151 -0.3560  0.6408
 9869TIP3    H251023   5.819   3.077   2.111  0.7008 -2.3531 -0.6008
 9870TIP3   OH251024   3.597   3.122   4.625  0.7000  0.4419 -0.1216
 9870TIP3    H151025   3.552   3.201   4.594  1.0533  0.2754 -1.1160
 9870TIP3    H251026   3.646   3.092   4.548  2.1285  0.3602  0.7824
 9871TIP3   OH251027   0.517   5.382   0.225 -0.9727  0.0956 -0.0224
 9871TIP3    H151028   0.454   5.383   0.297  0.2572  1.2900  1.0968
 9871TIP3    H251029   0.463   5.385   0.146 -2.3309 -0.3562  0.8623
 9872TIP3   OH251030   5.656   1.041   2.947  0.5627  0.3691  0.3924
 9872TIP3    H151031   5.671   1.076   3.034  2.4896  0.0690  0.2272
 9872TIP3    H251032   5.718   0.968   2.940 -1.6464 -1.5910 -0.1342
 9873TIP3   OH251033   4.582   5.970   1.131 -0.7017 -0.1258  0.3514
 9873TIP3    H151034   4.662   5.958   1.079 -0.3430 -0.8641  1.0559
 9873TIP3    H251035   4.570   6.065   1.134 -0.3195 -0.0420 -0.4592
 9874TIP3   OH251036   5.119   4.507  13.764  0.0876 -0.2901  0.2680
 9874TIP3    H151037   5.130   4.429  13.710  0.7380  0.0621 -0.1199
 9874TIP3    H251038   5.070   4.568  13.707  0.5899  0.0047  0.1475
 9875TIP3   OH251039   5.530   3.807   5.123 -0.3824 -0.3241  0.2312
 9875TIP3    H151040   5.571   3.892   5.135 -1.4821  0.2769 -0.0538
 9875TIP3    H251041   5.568   3.751   5.191 -3.4270  1.7932  4.1231
 9876TIP3   OH251042   3.188   4.118  12.709  0.4911  0.7001  0.0558
 9876TIP3    H151043   3.274   4.081  12.733 -0.9424 -2.5385  0.7926
 9876TIP3    H251044   3.144   4.133  12.792 -0.7264 -0.6631 -0.2948
 9877TIP3   OH251045   4.131   3.551  11.080 -0.1354  0.7663 -0.1345
 9877TIP3    H151046   4.163   3.637  11.106 -0.1518  0.4346  1.0301
 9877TIP3    H251047   4.043   3.545  11.118 -0.5440  0.6394 -1.0831
 9878TIP3   OH251048   5.981   2.455  14.712 -0.2640 -0.3783  0.3648
 9878TIP3    H151049   5.921   2.381  14.726  0.7116 -0.9322  1.8040
 9878TIP3    H251050   6.037   2.426  14.639 -0.6876 -0.5221  0.0879
 9879TIP3   OH251051   3.524   1.015   1.321  0.8313  0.4033 -0.6104
 9879TIP3    H151052   3.616   0.988   1.315  0.6183 -1.1686  2.1224
 9879TIP3    H251053   3.475   0.934   1.332 -0.4934  1.4027  1.5021
 9880TIP3   OH251054   6.375   0.202   0.340 -0.4149  0.1838  0.3069
 9880TIP3    H151055   6.352   0.140   0.272  0.5424 -0.2093  0.3280
 9880TIP3    H251056   6.374   0.151   0.421  0.5074  0.1449  0.3080
 9881TIP3   OH251057   0.945   3.360  16.879 -0.5296 -0.0369  0.2287
 9881TIP3    H151058   0.980   3.328  16.796 -0.8377 -1.0878  0.4843
 9881TIP3    H251059   0.994   3.441  16.897 -0.1784 -0.0174 -0.7639
 9882TIP3   OH251060   2.048   5.331   1.893  0.0633  0.3315  0.4078
 9882TIP3    H151061   2.141   5.335   1.914  0.1646 -0.5839  0.1820
 9882TIP3    H251062   2.044   5.352   1.799 -0.1490  2.0690  0.7692
 9883TIP3   OH251063   2.181   3.432   5.137 -0.0916  0.0405  0.0647
 9883TIP3    H151064   2.224   3.351   5.106  0.0791  0.7887 -1.7773
 9883TIP3    H251065   2.167   3.417   5.231 -0.1500 -2.1634 -0.2418
 9884TIP3   OH251066   5.389   6.346  15.848  0.2675  0.6249 -0.2924
 9884TIP3    H151067   5.476   6.316  15.875 -0.0876 -0.2078 -0.0237
 9884TIP3    H251068   5.337   6.346  15.929 -0.2011  0.2969 -0.5856
 9885TIP3   OH251069   0.578   3.627   1.920 -0.3685 -0.2917 -0.6046
 9885TIP3    H151070   0.633   3.550   1.934  1.4080  1.0376  0.1575
 9885TIP3    H251071   0.636   3.689   1.875 -1.7085  0.6618 -1.0726
 9886TIP3   OH251072   3.255   4.096  13.814 -0.2589  0.1219 -0.3525
 9886TIP3    H151073   3.278   4.179  13.772  0.1122  0.8424  1.2123
 9886TIP3    H251074   3.209   4.121  13.894  2.3011 -1.0468  1.6061
 9887TIP3   OH251075   4.400   1.107   2.899  0.1692  0.0533  0.0917
 9887TIP3    H151076   4.409   1.013   2.885 -1.5017 -0.0760 -0.2573
 9887TIP3    H251077   4.435   1.121   2.987  0.5478 -0.8659  0.0968
 9888TIP3   OH251078   3.030   3.790   6.622 -0.3436 -0.1181  0.3689
 9888TIP3    H151079   3.070   3.797   6.535 -1.2020  1.8304  0.0803
 9888TIP3    H251080   3.045   3.876   6.661 -0.5395 -0.7639  1.9049
 9889TIP3   OH251081   4.142   4.297   3.212 -0.3270  0.5060 -0.1290
 9889TIP3    H151082   4.107   4.344   3.136  0.4907  0.7568 -0.3615
 9889TIP3    H251083   4.071   4.238   3.238 -1.4267  1.9552  0.2638
 9890TIP3   OH251084   5.692   0.626   5.293 -0.2232  0.4722  0.8902
 9890TIP3    H151085   5.737   0.600   5.374 -1.3015  0.0028  1.3569
 9890TIP3    H251086   5.617   0.678   5.323  1.2173  3.2255  0.0290
 9891TIP3   OH251087   6.628   1.836  15.312  0.4161 -0.4752  0.6386
 9891TIP3    H151088   6.718   1.838  15.344  0.2737 -2.6190  1.3631
 9891TIP3    H251089   6.591   1.757  15.351 -0.4733 -2.0793 -3.0258
 9892TIP3   OH251090   6.337   5.289   3.447  0.0814 -0.1734 -0.2758
 9892TIP3    H151091   6.259   5.339   3.425 -0.8152 -1.3795  0.0505
 9892TIP3    H251092   6.363   5.320   3.534  0.4386  0.7646 -0.7005
 9893TIP3   OH251093   3.097   3.541  13.804 -0.0043 -0.6033  0.3164
 9893TIP3    H151094   3.084   3.464  13.750  0.5958  0.0713 -0.8441
 9893TIP3    H251095   3.029   3.602  13.775  0.1108 -0.3610  0.5564
 9894TIP3   OH251096   0.850   6.253   3.797 -0.3317 -0.5722  0.1315
 9894TIP3    H151097   0.872   6.337   3.835 -0.2671 -0.9257  0.8955
 9894TIP3    H251098   0.756   6.258   3.780 -0.3636 -0.4146  0.3520
 9895TIP3   OH251099   5.175   3.628  10.664  0.6562 -0.1605  0.6103
 9895TIP3    H151100   5.219   3.654  10.746 -1.3901 -0.9805  2.0336
 9895TIP3    H251101   5.111   3.698  10.649  0.9677 -0.0587 -0.2762
 9896TIP3   OH251102   6.516   4.115   1.266 -0.2197 -1.0342 -0.0149
 9896TIP3    H151103   6.437   4.164   1.245 -0.0661 -1.2912 -1.3094
 9896TIP3    H251104   6.527   4.055   1.192  0.9341 -1.3123  0.3591
 9897TIP3   OH251105   1.764   4.834  13.112  0.2890 -0.0377  0.6251
 9897TIP3    H151106   1.752   4.928  13.095  0.4384 -0.2108 -0.4799
 9897TIP3    H251107   1.824   4.832  13.186  2.0523  0.7564 -0.6944
 9898TIP3   OH251108   5.942   4.987  12.885 -0.6832 -0.4453 -0.0299
 9898TIP3    H151109   5.866   5.026  12.841 -0.5304 -2.0381 -1.8677
 9898TIP3    H251110   5.979   4.929  12.819  2.1979  0.3197  0.7888
 9899TIP3   OH251111   6.145   1.950   0.689  0.1447  0.2884 -0.0531
 9899TIP3    H151112   6.171   2.020   0.629 -0.0788  0.4947  0.0864
 9899TIP3    H251113   6.055   1.972   0.713 -0.8327 -1.3223 -1.8739
 9900TIP3   OH251114   3.059   5.000  16.516  0.0641  0.0441 -0.1490
 9900TIP3    H151115   2.972   5.021  16.485 -1.0161 -1.7291  1.4731
 9900TIP3    H251116   3.116   5.065  16.474 -2.3025  2.8970  0.6842
 9901TIP3   OH251117   5.539   3.744   0.407 -0.7006 -0.2605 -1.0014
 9901TIP3    H151118   5.614   3.715   0.355 -0.2696  0.1481 -0.6294
 9901TIP3    H251119   5.507   3.823   0.363  1.2488  1.6236  0.6410
 9902TIP3   OH251120   2.227   1.517  15.162  0.0512  0.3529  0.2704
 9902TIP3    H151121   2.273   1.455  15.106 -1.8137 -1.6366  0.8193
 9902TIP3    H251122   2.209   1.468  15.242 -0.2027  2.0908  1.3208
 9903TIP3   OH251123   1.551   0.540   6.492 -0.0147  0.3330  0.2887
 9903TIP3    H151124   1.633   0.519   6.448  0.6606  0.8367  1.2732
 9903TIP3    H251125   1.577   0.590   6.569 -1.4022  3.3352 -1.0115
 9904TIP3   OH251126   5.533   6.235   5.919  0.0743 -0.2235  0.2642
 9904TIP3    H151127   5.466   6.204   5.980 -0.6241  1.4962  0.4190
 9904TIP3    H251128   5.610   6.251   5.973  0.2771 -1.1456  0.2629
 9905TIP3   OH251129   6.191   2.426  16.621  0.2863 -0.3310 -0.4836
 9905TIP3    H151130   6.109   2.383  16.595 -0.9415  0.1024  2.2818
 9905TIP3    H251131   6.242   2.356  16.661 -0.4476  0.0999  1.3066
 9906TIP3   OH251132   3.014   4.503  13.426  0.2081  0.2591  0.4391
 9906TIP3    H151133   2.991   4.583  13.378 -1.9585 -0.5645 -0.0260
 9906TIP3    H251134   3.105   4.485  13.402  0.1674  1.5938 -0.8583
 9907TIP3   OH251135   5.859   3.823  11.965 -0.5454 -0.4039  0.1458
 9907TIP3    H151136   5.830   3.735  11.991  0.7867 -0.7315  0.6414
 9907TIP3    H251137   5.780   3.867  11.934 -1.6622 -1.0607  1.8882
 9908TIP3   OH251138   1.646   1.459   1.754  0.5120 -0.0215 -0.1119
 9908TIP3    H151139   1.565   1.509   1.754  1.0183  0.8900  1.3800
 9908TIP3    H251140   1.676   1.460   1.663 -0.4559  0.7954 -0.4368
 9909TIP3   OH251141   4.288   1.932   6.534  0.1281  0.3371 -0.2075
 9909TIP3    H151142   4.308   2.010   6.482  1.5728  1.1459  1.4587
 9909TIP3    H251143   4.372   1.908   6.575 -0.7762 -0.6988  1.1330
 9910TIP3   OH251144   5.105   4.806  12.105 -0.1322 -0.2874  0.0830
 9910TIP3    H151145   5.184   4.772  12.063 -0.5002 -0.6103 -0.3579
 9910TIP3    H251146   5.039   4.739  12.089 -0.3534 -0.2894  0.9458
 9911TIP3   OH251147   2.987   6.149   0.775 -0.2107  0.0633 -0.9025
 9911TIP3    H151148   3.068   6.191   0.806  0.2166  0.1587 -2.0923
 9911TIP3    H251149   3.009   6.117   0.687 -1.6094  0.5036 -1.4353
 9912TIP3   OH251150   4.916   1.657  13.870 -0.1393  0.2188  0.5808
 9912TIP3    H151151   4.907   1.646  13.964 -0.3973 -1.3994  0.3894
 9912TIP3    H251152   5.010   1.661  13.855 -0.0927  0.2258  0.8773
 9913TIP3   OH251153   1.741   0.452   3.253  0.1425 -0.1769  0.1138
 9913TIP3    H151154   1.752   0.393   3.328  0.2522 -0.6900 -0.2997
 9913TIP3    H251155   1.652   0.434   3.222 -0.4891  1.1543  1.0607
 9914TIP3   OH251156   4.359   6.225   0.046 -0.1412 -0.1568  0.2099
 9914TIP3    H151157   4.297   6.298   0.051  0.5798  0.4037  1.6163
 9914TIP3    H251158   4.442   6.267   0.024 -0.0658 -0.7995 -0.7928
 9915TIP3   OH251159   4.361   0.355   5.721  0.4807 -0.2263  0.5565
 9915TIP3    H151160   4.305   0.401   5.659  1.7126  0.6453  0.0585
 9915TIP3    H251161   4.321   0.269   5.731 -1.0450  0.4461  0.3806
 9916TIP3   OH251162   0.053   1.720   6.196  0.2100 -0.5828  0.0397
 9916TIP3    H151163   0.091   1.785   6.255  0.1333 -0.1029 -0.4282
 9916TIP3    H251164  -0.042   1.734   6.204  0.2236  1.1362 -1.9677
 9917TIP3   OH251165   5.871   2.695   1.862  0.4420 -0.0343  0.0142
 9917TIP3    H151166   5.807   2.753   1.821  0.6271  0.6379  0.6572
 9917TIP3    H251167   5.823   2.653   1.934  0.5286 -0.0534  0.0608
 9918TIP3   OH251168   2.600   1.523   3.219 -0.4457 -0.4546 -0.1242
 9918TIP3    H151169   2.670   1.503   3.282 -0.4966 -0.8619 -0.1911
 9918TIP3    H251170   2.645   1.561   3.144 -0.5426  1.5683  0.7872
 9919TIP3   OH251171   1.249   3.472   0.802  0.5991  0.3306  0.1507
 9919TIP3    H151172   1.180   3.538   0.791  1.5128  1.1945 -0.5154
 9919TIP3    H251173   1.325   3.508   0.757  1.1366 -1.1736 -0.2197
 9920TIP3   OH251174   2.098   0.525   1.998  0.5930  0.4234 -0.0428
 9920TIP3    H151175   2.105   0.620   1.991 -1.9499  0.7957  1.4060
 9920TIP3    H251176   2.007   0.509   2.023  0.0292 -2.5926 -3.1707
 9921TIP3   OH251177   2.210   4.907   3.274  0.4545 -0.3571 -0.7287
 9921TIP3    H151178   2.209   4.958   3.355  0.5265 -1.0631 -0.2851
 9921TIP3    H251179   2.156   4.959   3.213 -1.1653 -0.7272  0.3165
 9922TIP3   OH251180   3.263   0.764   1.829 -0.1400 -0.1866 -0.1586
 9922TIP3    H151181   3.249   0.691   1.769  0.6640  0.2745 -0.9373
 9922TIP3    H251182   3.253   0.842   1.773 -2.3674  0.3847  0.9158
 9923TIP3   OH251183   2.120   4.103   3.011  0.0345 -0.1268  0.2158
 9923TIP3    H151184   2.151   4.181   2.964 -0.7370  1.2851  1.9528
 9923TIP3    H251185   2.199   4.064   3.047  0.6586 -1.2735 -2.1673
 9924TIP3   OH251186   4.266   0.810  12.333  0.0783  0.2840 -0.6961
 9924TIP3    H151187   4.298   0.819  12.423 -0.6499 -2.0989 -0.1140
 9924TIP3    H251188   4.185   0.861  12.330 -0.1238  0.0262  0.1574
 9925TIP3   OH251189   1.452   1.847   5.667 -0.3484  0.5101  0.6586
 9925TIP3    H151190   1.493   1.803   5.741  0.0692 -2.2110 -1.0327
 9925TIP3    H251191   1.372   1.884   5.702  0.2650  0.0652  2.6380
 9926TIP3   OH251192   2.294   1.643   4.590  0.2592 -0.1363  0.1408
 9926TIP3    H151193   2.358   1.697   4.636  1.5547 -1.7681  0.3529
 9926TIP3    H251194   2.298   1.558   4.635 -0.5003 -0.9098 -1.1905
 9927TIP3   OH251195   2.820   0.770  15.249 -0.1844 -0.6827 -0.4019
 9927TIP3    H151196   2.852   0.735  15.166  0.4204 -0.0060 -0.4711
 9927TIP3    H251197   2.819   0.865  15.235 -0.6039 -0.5979  0.1864
 9928TIP3   OH251198   2.351   4.172   5.534 -0.4334  0.6424  0.2487
 9928TIP3    H151199   2.395   4.087   5.532 -0.6617  0.4831  1.2620
 9928TIP3    H251200   2.258   4.151   5.528 -0.5196  0.7734  0.9921
 9929TIP3   OH251201   5.969   3.478  14.693 -0.5885 -0.4280 -0.0427
 9929TIP3    H151202   5.967   3.424  14.772  2.8828 -0.7841 -0.0371
 9929TIP3    H251203   6.023   3.553  14.717 -0.3408 -0.0082 -1.7793
 9930TIP3   OH251204   4.810   1.448  11.100  0.0528  0.3743  0.6525
 9930TIP3    H151205   4.826   1.355  11.116  0.1802  0.5391  1.5391
 9930TIP3    H251206   4.898   1.488  11.096  0.1048  0.1784 -1.7131
 9931TIP3   OH251207   6.556   5.750  11.741 -0.1670  0.4117 -0.0599
 9931TIP3    H151208   6.477   5.696  11.740 -0.1322  0.3638 -0.2407
 9931TIP3    H251209   6.530   5.829  11.788  0.0024 -0.0959  0.9308
 9932TIP3   OH251210   0.478   3.299   0.480 -0.4922  0.4869 -0.3013
 9932TIP3    H151211   0.528   3.272   0.557  1.1802 -0.0311 -1.5037
 9932TIP3    H251212   0.528   3.265   0.406 -0.6011  3.1589 -1.7384
 9933TIP3   OH251213   2.522   0.142  16.562 -0.1733 -0.5811 -0.4000
 9933TIP3    H151214   2.581   0.217  16.556 -0.3709 -0.5093 -1.9475
 9933TIP3    H251215   2.573   0.069  16.524 -0.0369 -1.2034  0.9364
 9934TIP3   OH251216   2.432   0.883  11.997  0.5447 -0.2552  0.1211
 9934TIP3    H151217   2.513   0.919  12.034 -0.7634  2.3225  0.7168
 9934TIP3    H251218   2.418   0.933  11.916 -0.6249 -0.3909  0.2244
 9935TIP3   OH251219   0.960   3.483  12.931  0.0480  0.1889  0.0285
 9935TIP3    H151220   1.017   3.549  12.892  0.3794 -0.5811 -0.8222
 9935TIP3    H251221   1.019   3.426  12.979 -0.1185 -0.0604 -0.0625
 9936TIP3   OH251222   0.050   2.674   3.396  0.2269 -0.3144  0.1441
 9936TIP3    H151223   0.135   2.670   3.353 -0.2378 -0.5755 -0.7642
 9936TIP3    H251224   0.063   2.733   3.470  1.2816 -0.6191  0.2105
 9937TIP3   OH251225   5.783   0.543   4.883  0.0667  0.1314  0.5839
 9937TIP3    H151226   5.858   0.501   4.841  0.5958  1.5348  0.0282
 9937TIP3    H251227   5.708   0.489   4.858  0.9230 -1.5801  1.5542
 9938TIP3   OH251228   6.343   1.141   1.351 -0.0272 -0.7998  0.0895
 9938TIP3    H151229   6.281   1.124   1.280 -1.3287 -2.1363  1.4857
 9938TIP3    H251230   6.289   1.171   1.424  1.2766  0.4718  0.5845
 9939TIP3   OH251231   1.054   6.604   1.451 -0.3981 -0.7015 -0.1508
 9939TIP3    H151232   1.138   6.596   1.497 -0.5069 -2.2375 -0.1779
 9939TIP3    H251233   1.076   6.648   1.369 -0.1144  1.6146  1.0823
 9940TIP3   OH251234   0.544   3.110   4.226 -0.0771  0.6317 -0.2122
 9940TIP3    H151235   0.583   3.026   4.251 -1.1728 -0.0527 -0.7310
 9940TIP3    H251236   0.547   3.163   4.306 -0.8682 -0.4888  0.5940
 9941TIP3   OH251237   6.205   3.362   5.544  0.3563 -0.2586 -0.2131
 9941TIP3    H151238   6.295   3.380   5.518 -0.0305 -1.0954 -2.3567
 9941TIP3    H251239   6.162   3.332   5.464 -1.5503 -0.9747  0.9923
 9942TIP3   OH251240   3.207   4.910   1.907 -0.6121  0.1585  0.1301
 9942TIP3    H151241   3.225   4.816   1.913  1.8791  0.5281 -0.6548
 9942TIP3    H251242   3.197   4.938   1.998  1.1727 -0.4591  0.5582
 9943TIP3   OH251243   3.282   1.910  13.766 -0.4424 -0.5780 -0.0255
 9943TIP3    H151244   3.349   1.953  13.713 -1.0863  0.1314 -0.2842
 9943TIP3    H251245   3.321   1.826  13.791  1.3110  0.5852  1.4368
 9944TIP3   OH251246   1.262   2.037   6.123 -0.5587  0.0846  0.5891
 9944TIP3    H151247   1.171   2.008   6.122 -0.8866  1.0853  0.1430
 9944TIP3    H251248   1.285   2.040   6.216 -1.3715  0.9906  0.7716
 9945TIP3   OH251249   3.422   2.263  13.257 -0.0514 -0.0267 -0.7330
 9945TIP3    H151250   3.448   2.350  13.290  0.5670 -0.3617 -0.3241
 9945TIP3    H251251   3.328   2.259  13.275 -0.1297  0.6371 -0.9394
 9946TIP3   OH251252   6.119   6.702  11.103 -0.4288 -0.4991  0.0899
 9946TIP3    H151253   6.054   6.632  11.095 -0.1219 -0.6822 -0.8617
 9946TIP3    H251254   6.136   6.730  11.013  1.5280 -1.1153  0.2156
 9947TIP3   OH251255   5.376   3.694  15.018 -0.6294 -0.0801 -0.1061
 9947TIP3    H151256   5.428   3.646  14.954 -0.3152  0.5334 -0.3161
 9947TIP3    H251257   5.329   3.760  14.967 -0.3071  0.4747  0.3060
 9948TIP3   OH251258   4.902   3.658   2.648  0.2533 -0.1119  0.3887
 9948TIP3    H151259   4.874   3.621   2.564 -2.8354 -0.3921  1.3963
 9948TIP3    H251260   4.959   3.731   2.625  0.8787 -1.2105 -1.8624
 9949TIP3   OH251261   4.062   1.362  14.357 -0.6323  0.3116  0.4565
 9949TIP3    H151262   4.051   1.273  14.392 -1.7091 -0.3064 -1.3214
 9949TIP3    H251263   4.146   1.359  14.311 -0.8741  0.0657  0.0227
 9950TIP3   OH251264   5.621   5.286   5.744  0.3108 -0.2065  0.3463
 9950TIP3    H151265   5.603   5.218   5.679 -0.4567  0.1713  0.1381
 9950TIP3    H251266   5.636   5.365   5.692  3.4747 -0.6286  0.4714
 9951TIP3   OH251267   6.339   2.381   3.213  0.6455 -0.1952 -0.5004
 9951TIP3    H151268   6.265   2.353   3.267  0.7825 -0.2016 -0.3139
 9951TIP3    H251269   6.402   2.417   3.276  0.8969 -0.3997 -0.6354
 9952TIP3   OH251270   1.089   1.803   2.263 -0.1276 -0.0141 -0.1261
 9952TIP3    H151271   1.055   1.885   2.299  0.1131 -0.1524  0.4231
 9952TIP3    H251272   1.018   1.739   2.278  0.7118 -0.5453  1.9420
 9953TIP3   OH251273   5.379   3.853  14.779 -0.0420 -0.2963  0.2290
 9953TIP3    H151274   5.301   3.819  14.736 -0.2118  0.5465 -0.1304
 9953TIP3    H251275   5.441   3.779  14.776 -0.6185 -0.7785  0.0094
 9954TIP3   OH251276   2.909   0.150   6.826  0.0069 -0.0379 -0.1872
 9954TIP3    H151277   2.945   0.061   6.821 -1.1941 -0.4829 -1.3350
 9954TIP3    H251278   2.848   0.156   6.753  0.7765  2.0778 -0.7449
 9955TIP3   OH251279   3.439   5.197   6.060 -0.0952 -0.4222 -0.0420
 9955TIP3    H151280   3.513   5.251   6.032 -0.8330 -0.2716 -1.8185
 9955TIP3    H251281   3.427   5.221   6.152  0.8955  0.9124 -0.2088
 9956TIP3   OH251282   3.573   3.881   3.861 -0.0930  0.1924 -0.3136
 9956TIP3    H151283   3.618   3.818   3.917 -0.9640 -0.5736 -0.4557
 9956TIP3    H251284   3.633   3.956   3.856  0.1106  0.1863  1.4491
 9957TIP3   OH251285   4.947   3.162  14.942  0.2640  0.0055  0.0955
 9957TIP3    H151286   5.026   3.210  14.967 -0.5674  0.2879  2.3538
 9957TIP3    H251287   4.942   3.090  15.005 -1.4472  0.1593  0.1695
 9958TIP3   OH251288   0.014   5.000   5.019 -0.1862 -0.2403  0.4114
 9958TIP3    H151289   0.078   5.067   4.996 -1.5831  1.7596  1.9082
 9958TIP3    H251290  -0.036   4.986   4.938 -0.4649  1.2649  0.2943
 9959TIP3   OH251291   4.613   0.686   6.264  0.4663  0.0135  0.1464
 9959TIP3    H151292   4.653   0.763   6.304  1.1577 -0.6664  0.7903
 9959TIP3    H251293   4.667   0.612   6.294 -0.1365 -0.7147 -0.5155
 9960TIP3   OH251294   1.709   4.583   2.552 -1.0818  0.2724  0.6186
 9960TIP3    H151295   1.629   4.581   2.604 -1.3328  0.7677  0.2582
 9960TIP3    H251296   1.777   4.614   2.612 -0.9283 -1.1585  1.2202
 9961TIP3   OH251297   6.533   4.871   0.931  0.1558  0.5450  1.0005
 9961TIP3    H151298   6.517   4.957   0.891  0.4497  0.9366  1.6951
 9961TIP3    H251299   6.628   4.860   0.925  0.3350  1.0476  2.4009
 9962TIP3   OH251300   5.815   2.551   3.386  0.4652 -0.0320 -0.7250
 9962TIP3    H151301   5.811   2.643   3.360 -1.2258 -0.2779 -1.4883
 9962TIP3    H251302   5.731   2.514   3.357 -0.3056 -1.0890  2.4380
 9963TIP3   OH251303   6.355   2.623  16.969  0.2314 -1.3469 -0.0060
 9963TIP3    H151304   6.350   2.716  16.990 -0.2753 -1.5616  0.8750
 9963TIP3    H251305   6.446   2.600  16.985  0.2808 -1.0737  0.1120
 9964TIP3   OH251306   3.203   0.095   4.667 -0.2060 -0.2833  0.3232
 9964TIP3    H151307   3.254   0.033   4.615 -0.9392 -1.5898  1.1136
 9964TIP3    H251308   3.230   0.078   4.758 -1.5283 -0.5285  0.6943
 9965TIP3   OH251309   2.713   0.336  16.549  0.1308 -0.1586  0.4726
 9965TIP3    H151310   2.752   0.317  16.464  0.5890 -1.4110  0.9473
 9965TIP3    H251311   2.721   0.431  16.558  0.5436 -0.0725 -0.6492
 9966TIP3   OH251312   3.894   4.016   4.075  0.8589 -0.2471  0.2151
 9966TIP3    H151313   3.848   3.934   4.097  0.4324 -0.4711 -1.3360
 9966TIP3    H251314   3.864   4.036   3.986 -0.4751  2.6034  1.1716
 9967TIP3   OH251315   0.042   5.037   4.321 -0.3570  0.0452  0.0308
 9967TIP3    H151316  -0.046   5.028   4.284  0.1497 -0.4826 -1.0950
 9967TIP3    H251317   0.099   5.051   4.245  0.5945 -0.0529  0.7061
 9968TIP3   OH251318   3.877   5.565  11.044 -0.0840 -0.3304 -0.3096
 9968TIP3    H151319   3.802   5.536  10.992  0.6495 -1.3947 -0.8059
 9968TIP3    H251320   3.841   5.580  11.132 -0.9366 -0.4816 -0.6207
 9969TIP3   OH251321   4.390   6.514  15.946  0.1070  0.3720 -0.2874
 9969TIP3    H151322   4.461   6.451  15.938 -0.2620 -0.0832 -0.0430
 9969TIP3    H251323   4.389   6.560  15.862  0.7119  0.4151 -0.2779
 9970TIP3   OH251324   2.349   5.811   4.334  0.1317 -0.5109  0.1983
 9970TIP3    H151325   2.378   5.864   4.408  0.5404 -0.7021  0.1744
 9970TIP3    H251326   2.370   5.721   4.359  0.8974 -0.5178 -0.4405
 9971TIP3   OH251327   0.903   2.113  15.308 -0.1452 -0.0156 -0.2099
 9971TIP3    H151328   0.837   2.044  15.307 -1.1099  0.8527  0.3666
 9971TIP3    H251329   0.891   2.158  15.224  2.0303 -1.8849 -1.6256
 9972TIP3   OH251330   0.257   2.057   0.840 -0.2450 -0.0441 -0.3271
 9972TIP3    H151331   0.208   2.107   0.774 -0.4715 -0.6040 -0.5932
 9972TIP3    H251332   0.344   2.095   0.840 -0.6996  1.0280  0.2113
 9973TIP3   OH251333   3.032   6.332   5.252  0.4170  0.1697  0.4315
 9973TIP3    H151334   3.113   6.321   5.302  0.0607 -0.3298  0.9134
 9973TIP3    H251335   2.964   6.342   5.319  0.2016  1.5990  0.0384
 9974TIP3   OH251336   2.475   2.859   0.734  0.0310  0.6034  0.3742
 9974TIP3    H151337   2.503   2.797   0.801  0.5422 -2.0442 -2.0929
 9974TIP3    H251338   2.381   2.844   0.724  0.0651  0.5654  0.1014
 9975TIP3   OH251339   1.975   0.216   1.986  0.2623 -0.1890  0.4853
 9975TIP3    H151340   1.886   0.250   1.983  0.3940  0.4512  2.6258
 9975TIP3    H251341   1.985   0.180   2.074  2.1659 -0.0851  0.3618
 9976TIP3   OH251342   6.120   1.819   2.151  0.3144 -0.2445  0.0590
 9976TIP3    H151343   6.204   1.810   2.106  0.6470 -0.3732  0.6995
 9976TIP3    H251344   6.055   1.789   2.087  0.8999 -1.7611  0.1376
 9977TIP3   OH251345   0.813   1.154  16.277 -0.3983  0.0376 -0.2407
 9977TIP3    H151346   0.878   1.141  16.346 -1.1133 -0.1709  0.4052
 9977TIP3    H251347   0.733   1.177  16.323 -0.9906 -0.4985 -0.9707
 9978TIP3   OH251348   0.691   4.299   5.987  0.1432  0.2935  0.2765
 9978TIP3    H151349   0.607   4.345   5.991  0.1133  0.4891 -1.4833
 9978TIP3    H251350   0.752   4.354   6.035 -0.3834  1.0428  0.0944
 9979TIP3   OH251351   0.050   6.663  13.411 -0.1028 -0.1123  0.1898
 9979TIP3    H151352   0.023   6.575  13.439  1.1768 -0.1507  1.4454
 9979TIP3    H251353   0.122   6.647  13.350 -0.4780  0.0515 -0.2960
 9980TIP3   OH251354   3.113   1.816  17.077  0.4633 -0.0925 -0.6317
 9980TIP3    H151355   3.162   1.752  17.127 -0.2559 -1.6292 -1.8112
 9980TIP3    H251356   3.128   1.899  17.122  0.0506 -1.3337  1.9319
 9981TIP3   OH251357   3.631   6.194   4.246  0.7199  0.2432 -0.5077
 9981TIP3    H151358   3.587   6.206   4.330 -0.9736 -0.2969 -1.2579
 9981TIP3    H251359   3.709   6.248   4.251 -0.6078  2.1824  0.4999
 9982TIP3   OH251360   5.981   1.198  14.713 -0.2020 -0.6498  0.4975
 9982TIP3    H151361   5.995   1.292  14.719  1.6343 -0.9389  1.0970
 9982TIP3    H251362   5.921   1.188  14.639  1.8251  0.8122 -1.4846
 9983TIP3   OH251363   2.197   1.716  12.274  0.0771  0.4140  0.1102
 9983TIP3    H151364   2.237   1.722  12.361  2.0703 -0.8924 -0.6584
 9983TIP3    H251365   2.156   1.629  12.273 -3.2872  1.7934  0.9760
 9984TIP3   OH251366   3.782   6.415   0.741 -0.0278 -0.6358 -0.2341
 9984TIP3    H151367   3.877   6.405   0.751 -0.0646 -0.1860  0.7083
 9984TIP3    H251368   3.772   6.470   0.663  0.5255  0.0933  0.2018
 9985TIP3   OH251369   5.044   3.277  12.067 -0.2320  0.4321  0.0291
 9985TIP3    H151370   4.962   3.270  12.116 -0.8525  1.2846 -0.8438
 9985TIP3    H251371   5.033   3.216  11.994  0.2159  0.0294  0.2881
 9986TIP3   OH251372   1.363   5.242  16.835  0.3342  0.0962 -0.1375
 9986TIP3    H151373   1.314   5.211  16.912  1.3203 -1.4465 -0.1006
 9986TIP3    H251374   1.435   5.179  16.825  1.6551  1.6591 -0.8720
 9987TIP3   OH251375   4.965   2.028  15.633  0.1543 -0.6164 -0.6289
 9987TIP3    H151376   4.944   2.116  15.603  0.9040  0.0232  0.6642
 9987TIP3    H251377   5.058   2.016  15.613  0.2686 -0.7799 -0.0274
 9988TIP3   OH251378   6.560   2.567   4.635  0.2234 -0.4054  0.2497
 9988TIP3    H151379   6.650   2.574   4.605 -0.3430 -1.1405 -1.7204
 9988TIP3    H251380   6.530   2.481   4.605 -1.4600  0.2493 -0.0576
 9989TIP3   OH251381   6.295   0.556  11.349 -0.1787  0.6546  0.7399
 9989TIP3    H151382   6.320   0.616  11.279  1.3535  0.0118  0.7056
 9989TIP3    H251383   6.297   0.469  11.309 -1.1470  0.4401  1.1160
 9990TIP3   OH251384   6.050   4.427   1.348 -0.0168  0.0335  0.0107
 9990TIP3    H151385   5.969   4.473   1.370  0.9727  2.3894 -0.9810
 9990TIP3    H251386   6.021   4.352   1.295 -1.5949  0.2050  0.5764
 9991TIP3   OH251387   6.588   1.214   1.676  0.2840 -0.1417  0.4856
 9991TIP3    H151388   6.587   1.118   1.683  2.4393 -0.2287  0.3443
 9991TIP3    H251389   6.676   1.239   1.706  1.3733  1.4008 -3.3693
 9992TIP3   OH251390   1.568   4.834   0.003 -0.7410  0.4507 -0.2891
 9992TIP3    H151391   1.548   4.760  -0.054  1.3359  0.5156 -1.1759
 9992TIP3    H251392   1.662   4.845  -0.004 -0.6445  1.5504  1.8736
 9993TIP3   OH251393   0.198   5.946  15.779  0.1882  0.1368 -0.0581
 9993TIP3    H151394   0.261   5.912  15.842  0.1374  0.0699 -0.0435
 9993TIP3    H251395   0.133   5.876  15.769  0.8052 -0.3171 -1.0361
 9994TIP3   OH251396   1.118   1.166  14.345  0.4837  0.3691  0.0686
 9994TIP3    H151397   1.057   1.209  14.405 -1.2423 -1.9622  0.1199
 9994TIP3    H251398   1.176   1.116  14.402  1.0894  0.8600 -0.0981
 9995TIP3   OH251399   5.158   0.759   1.620  0.5206 -0.0310 -0.2471
 9995TIP3    H151400   5.125   0.828   1.677 -1.0947 -1.8777  1.1993
 9995TIP3    H251401   5.251   0.752   1.642  0.6435  1.4370 -0.1982
 9996TIP3   OH251402   4.000   3.823   2.303  0.2336 -0.0158 -0.5726
 9996TIP3    H151403   3.972   3.912   2.285 -0.0678 -0.0174 -0.1411
 9996TIP3    H251404   3.951   3.769   2.241 -0.7110 -0.0154  0.1532
 9997TIP3   OH251405   1.175   1.848   2.919 -0.0054  0.2437  0.0860
 9997TIP3    H151406   1.149   1.884   3.004  0.6036  0.0176  0.3712
 9997TIP3    H251407   1.263   1.883   2.904 -0.5428  1.2190 -0.9921
 9998TIP3   OH251408   0.104   2.327   2.799 -0.0446 -0.2670  0.0302
 9998TIP3    H151409   0.046   2.260   2.764 -1.5026  0.3873  1.0759
 9998TIP3    H251410   0.166   2.279   2.854 -0.4655 -0.8462  0.0060
 9999TIP3   OH251411   0.248   4.525  13.163  0.1522  0.8801 -0.3472
 9999TIP3    H151412   0.158   4.497  13.178  0.2206  0.9564  0.2385
 9999TIP3    H251413   0.294   4.446  13.135  0.2270  0.5142  0.7809
10000TIP3   OH251414   0.265   0.802   4.962 -0.0906  0.1508  0.0330
10000TIP3    H151415   0.266   0.898   4.962  0.1937  0.1501 -0.7793
10000TIP3    H251416   0.357   0.777   4.967 -0.0614 -0.0660 -1.2944
10001TIP3   OH251417   1.877   2.255   1.888  0.0612 -0.0609  0.0756
10001TIP3    H151418   1.885   2.330   1.828 -0.2371 -0.5878 -0.6424
10001TIP3    H251419   1.836   2.187   1.834 -1.7259 -0.0419  1.3226
10002TIP3   OH251420   5.242   6.315   4.856  0.3302 -0.1887 -0.4106
10002TIP3    H151421   5.281   6.327   4.769  1.2153  3.4569  0.3095
10002TIP3    H251422   5.175   6.383   4.861  0.0363 -0.5779  1.6200
10003TIP3   OH251423   5.394   0.317  16.685  0.1863 -0.6776 -0.4940
10003TIP3    H151424   5.335   0.392  16.673 -1.3561 -1.5516  1.0351
10003TIP3    H251425   5.341   0.253  16.734  2.3307 -1.6299  0.7285
10004TIP3   OH251426   2.202   1.153  13.493  0.0069  0.2258 -0.5392
10004TIP3    H151427   2.107   1.155  13.490  0.0139  0.4246 -0.6369
10004TIP3    H251428   2.225   1.228  13.549  0.1236  0.4442 -0.8803
10005TIP3   OH251429   1.776   2.060   0.862  0.7542 -0.7378  0.3638
10005TIP3    H151430   1.764   2.021   0.776 -0.2110  0.0240  0.1359
10005TIP3    H251431   1.850   2.120   0.852 -1.0668  1.4634 -0.7231
10006TIP3   OH251432   0.698   1.427   4.679  0.7391 -0.1451  0.3632
10006TIP3    H151433   0.778   1.442   4.729  0.4265  2.2314  0.2596
10006TIP3    H251434   0.627   1.444   4.741  0.3059 -0.9639  0.1086
10007TIP3   OH251435   2.131   3.450  13.203 -0.1643 -0.0297 -0.5507
10007TIP3    H151436   2.128   3.481  13.294  0.1383 -0.4042 -0.4093
10007TIP3    H251437   2.053   3.487  13.163  0.5080  1.4481 -0.5691
10008TIP3   OH251438   1.213   5.934  14.122 -0.2292  0.0964  0.0789
10008TIP3    H151439   1.213   6.016  14.072  0.3083  1.6043  2.4316
10008TIP3    H251440   1.174   5.957  14.206  1.4065 -1.6773  1.4073
10009TIP3   OH251441   0.270   0.369   3.053 -0.2049 -0.3202  0.0905
10009TIP3    H151442   0.239   0.299   3.112  2.1768 -0.8252  0.8769
10009TIP3    H251443   0.283   0.325   2.969  0.4394 -0.6387  0.3478
10010TIP3   OH251444   1.975   5.388   3.192  0.0057  0.1496  0.4240
10010TIP3    H151445   1.935   5.333   3.259  0.6135  0.7745  1.3394
10010TIP3    H251446   1.970   5.337   3.111 -0.9494 -0.5300  0.8997
10011TIP3   OH251447   5.871   5.839   0.570 -0.0659  0.0155  0.3458
10011TIP3    H151448   5.777   5.857   0.569 -0.3593 -1.3118  1.1662
10011TIP3    H251449   5.909   5.912   0.619 -0.7161  0.3734  0.3198
10012TIP3   OH251450   4.050   2.298   2.773 -0.0407 -0.0203 -0.0109
10012TIP3    H151451   4.001   2.272   2.695  1.8848 -0.6425 -1.0712
10012TIP3    H251452   3.994   2.270   2.846 -2.3764  1.5265 -1.0854
10013TIP3   OH251453   0.050   5.281   5.674  0.6065  0.6899  0.2336
10013TIP3    H151454   0.108   5.356   5.679  1.8535 -0.2583  0.6595
10013TIP3    H251455   0.102   5.213   5.632  0.2077 -0.5258  1.5943
10014TIP3   OH251456   5.029   5.100  14.080 -0.3106  0.5936 -0.0905
10014TIP3    H151457   5.115   5.071  14.112 -0.6171 -0.8705 -0.5227
10014TIP3    H251458   5.015   5.049  14.000 -1.5633  0.8635 -0.0548
10015TIP3   OH251459   3.544   4.416   2.652 -0.5373  0.6307 -0.0366
10015TIP3    H151460   3.568   4.507   2.640 -2.8949  1.7637  2.7149
10015TIP3    H251461   3.481   4.417   2.724 -3.1779 -2.7830 -1.9986
10016TIP3   OH251462   3.292   6.146  13.920 -0.2694 -0.6245 -0.7894
10016TIP3    H151463   3.305   6.079  13.987 -2.9479 -0.0817  0.4306
10016TIP3    H251464   3.209   6.188  13.944  0.1637  1.6081 -2.8030
10017TIP3   OH251465   5.962   4.397  11.583  0.0115  0.5823 -0.5973
10017TIP3    H151466   6.017   4.433  11.514  1.4861  0.8557  0.6515
10017TIP3    H251467   5.921   4.474  11.623 -0.5962  0.4532 -0.9715
10018TIP3   OH251468   6.489   0.334  13.107 -0.3207  0.8446 -0.3324
10018TIP3    H151469   6.581   0.318  13.127 -0.4405  2.5792  2.0607
10018TIP3    H251470   6.444   0.324  13.191 -1.5905  4.4725 -0.4272
10019TIP3   OH251471   0.713   1.755   5.332  0.1361  0.2737  0.4740
10019TIP3    H151472   0.681   1.780   5.246 -0.3798 -1.1687  0.2185
10019TIP3    H251473   0.799   1.716   5.315 -1.0455 -2.4665  0.1917
10020TIP3   OH251474   2.902   4.609  11.060 -0.4020 -0.1843 -0.1784
10020TIP3    H151475   2.968   4.663  11.016 -0.6931 -0.4156 -0.9043
10020TIP3    H251476   2.912   4.630  11.153 -1.7580  2.5382 -0.5588
10021TIP3   OH251477   5.772   1.612   4.529 -0.6733 -0.0325 -0.5913
10021TIP3    H151478   5.738   1.671   4.462 -0.7701 -0.2276 -0.7160
10021TIP3    H251479   5.850   1.656   4.563 -0.1324 -0.3243 -1.4307
10022TIP3   OH251480   6.575   0.462   4.893  0.1431  0.1166 -0.6769
10022TIP3    H151481   6.651   0.423   4.850 -0.3597  0.1727 -1.6574
10022TIP3    H251482   6.515   0.388   4.905 -0.3297  0.3568 -1.4646
10023TIP3   OH251483   5.993   3.824  13.024 -0.1207 -0.5783 -0.0246
10023TIP3    H151484   6.083   3.825  13.058 -0.4790  2.7671  1.1364
10023TIP3    H251485   5.947   3.762  13.081  1.2405 -1.8937 -0.2624
10024TIP3   OH251486   5.596   1.394   2.615  0.0720 -0.0714  0.1034
10024TIP3    H151487   5.508   1.358   2.629  0.4148 -0.9975 -0.0756
10024TIP3    H251488   5.653   1.340   2.669  0.5534  0.4882  0.1691
10025TIP3   OH251489   2.162   4.348  16.744 -0.2576  0.1100 -0.2674
10025TIP3    H151490   2.077   4.309  16.726  0.2994 -1.6928  0.7487
10025TIP3    H251491   2.219   4.316  16.674 -0.2983  0.9866 -0.7181
10026TIP3   OH251492   6.498   2.884  17.033 -0.5408 -0.0115 -0.9104
10026TIP3    H151493   6.485   2.884  17.128 -0.7284  0.1908 -0.9355
10026TIP3    H251494   6.440   2.952  17.001 -0.2890  0.0936 -1.1471
10027TIP3   OH251495   3.619   0.567  13.735 -0.2875 -0.1257  0.2839
10027TIP3    H151496   3.711   0.580  13.760 -0.4598  1.1781  0.2689
10027TIP3    H251497   3.610   0.610  13.651 -0.2368 -2.7465 -1.1752
10028TIP3   OH251498   5.704   5.159  12.826  0.1785  0.4275  0.1374
10028TIP3    H151499   5.748   5.185  12.907 -0.8328  1.3236  0.4357
10028TIP3    H251500   5.647   5.234  12.805 -1.0047 -0.5669 -0.3345
10029TIP3   OH251501   4.642   2.395   5.081 -0.1781 -0.0343 -0.6646
10029TIP3    H151502   4.579   2.420   5.149  0.5959  0.0595  0.0414
10029TIP3    H251503   4.710   2.348   5.129  0.5407  0.3119 -1.3329
10030TIP3   OH251504   5.576   5.597  11.624 -0.3095  0.2436  0.2848
10030TIP3    H151505   5.494   5.556  11.650 -1.4058  1.9815 -0.2698
10030TIP3    H251506   5.644   5.536  11.652 -1.8144 -1.5418  0.1718
10031TIP3   OH251507   1.160   4.542   4.421  0.4238  0.3363  0.0510
10031TIP3    H151508   1.155   4.597   4.498 -1.1868 -0.0695  0.2745
10031TIP3    H251509   1.202   4.461   4.451 -2.6460 -0.9746  1.3163
10032TIP3   OH251510   1.442   1.689   3.830 -1.0626  0.0306 -0.2169
10032TIP3    H151511   1.514   1.697   3.893 -0.5217  0.2619 -0.8558
10032TIP3    H251512   1.376   1.750   3.862 -0.4216  0.8187 -0.3620
10033TIP3   OH251513   2.880   0.310  16.333 -0.2991  0.7030  0.3461
10033TIP3    H151514   2.900   0.264  16.251  1.0903 -0.4342  1.2678
10033TIP3    H251515   2.912   0.399  16.320  0.0782  0.4772 -0.2787
10034TIP3   OH251516   5.044   4.545   4.261 -0.3608 -0.1013  0.7549
10034TIP3    H151517   5.074   4.520   4.173 -0.7253  0.3763  0.4922
10034TIP3    H251518   4.954   4.514   4.265 -1.3177  2.3247 -0.0975
10035TIP3   OH251519   5.161   4.795   2.962 -0.1101  0.2706  0.1089
10035TIP3    H151520   5.159   4.890   2.974  2.9358  0.4111  0.1585
10035TIP3    H251521   5.232   4.765   3.018 -0.3920 -1.9287 -0.6256
10036TIP3   OH251522   2.566   0.346  13.529 -0.0595  0.2456  0.3006
10036TIP3    H151523   2.589   0.405  13.457 -1.3018  1.6492  0.9939
10036TIP3    H251524   2.629   0.275  13.523  0.3585  0.7322 -1.6782
10037TIP3   OH251525   3.879   2.227  14.573  0.8438  0.3157  0.1785
10037TIP3    H151526   3.953   2.180  14.532  2.4234  2.2120  0.6826
10037TIP3    H251527   3.861   2.299  14.512 -1.7344 -0.9940 -0.7362
10038TIP3   OH251528   3.650   5.029   6.309  0.0975  0.3078  0.1022
10038TIP3    H151529   3.576   5.000   6.362 -1.0368  2.8859  0.0636
10038TIP3    H251530   3.702   5.084   6.368  1.5016 -0.6912 -0.1463
10039TIP3   OH251531   3.737   6.679  11.594  0.0129 -0.0297 -0.1127
10039TIP3    H151532   3.658   6.727  11.617 -0.1844  0.4890 -1.7323
10039TIP3    H251533   3.783   6.737  11.533  0.3046 -1.4261 -1.2763
10040TIP3   OH251534   1.697   3.451  15.772 -0.6642 -0.2721 -0.1704
10040TIP3    H151535   1.614   3.491  15.746 -0.3559 -0.9915 -2.5450
10040TIP3    H251536   1.756   3.469  15.699 -0.1753 -3.9014 -0.8425
10041TIP3   OH251537   4.652   1.074   4.897  0.1684  0.0903  0.5369
10041TIP3    H151538   4.602   1.155   4.909  0.7297  0.5266 -0.0098
10041TIP3    H251539   4.611   1.032   4.821 -0.6331 -0.5452  1.3020
10042TIP3   OH251540   1.902   0.455  16.132 -0.0949 -0.2433  0.8214
10042TIP3    H151541   1.931   0.379  16.081 -1.4106 -0.9406  1.0736
10042TIP3    H251542   1.937   0.440  16.219  0.7239  0.0936  0.5577
10043TIP3   OH251543   5.110   3.318   3.273  0.1569  0.1825 -0.4571
10043TIP3    H151544   5.089   3.411   3.279 -0.0725  0.2042 -1.4921
10043TIP3    H251545   5.184   3.313   3.213  2.0679 -0.0765  1.7524
10044TIP3   OH251546   2.167   2.654   1.428 -0.7410 -0.0891  0.5854
10044TIP3    H151547   2.114   2.612   1.360  1.1906 -0.0810 -1.0296
10044TIP3    H251548   2.155   2.748   1.414  1.8447  0.0379 -1.8031
10045TIP3   OH251549   1.306   6.367   2.145  0.6146  0.1417 -0.0903
10045TIP3    H151550   1.353   6.407   2.072  1.3593 -0.0269  0.2885
10045TIP3    H251551   1.322   6.426   2.219 -3.8007  2.8799 -0.9166
10046TIP3   OH251552   4.497   3.745   6.062  0.0761  0.4179 -0.3955
10046TIP3    H151553   4.457   3.658   6.056 -0.2169  0.3245  1.9032
10046TIP3    H251554   4.456   3.785   6.139  1.2565  2.0302 -0.5474
10047TIP3   OH251555   4.916   3.477  17.331 -0.1613 -0.6509 -0.0964
10047TIP3    H151556   4.889   3.386  17.320 -0.9617 -0.8297  2.4980
10047TIP3    H251557   5.006   3.471  17.364  0.4373 -0.3909 -1.6347
10048TIP3   OH251558   5.180   5.612   5.065  0.2549  0.1610  0.2649
10048TIP3    H151559   5.263   5.568   5.085  0.6601  1.0336  0.5759
10048TIP3    H251560   5.201   5.706   5.073 -0.8595  0.3777  0.7339
10049TIP3   OH251561   2.063   4.803  13.088  0.3974  0.0280 -0.4554
10049TIP3    H151562   2.054   4.764  13.174  1.6238  0.5826 -0.0508
10049TIP3    H251563   2.157   4.802  13.070  0.2937  1.0974 -1.2152
10050TIP3   OH251564   3.631   5.406   5.298  0.2187  0.2054 -0.7518
10050TIP3    H151565   3.550   5.355   5.308  0.3296  0.0418 -0.6744
10050TIP3    H251566   3.653   5.399   5.205  1.5956 -2.0136 -0.3440
10051TIP3   OH251567   0.906   6.330   3.254 -0.0893 -0.3751  0.0270
10051TIP3    H151568   0.819   6.322   3.293 -0.0702 -1.8419 -0.1912
10051TIP3    H251569   0.912   6.258   3.191  2.2921 -2.1425  2.0615
10052TIP3   OH251570   4.596   1.888  12.776  0.2233  0.3146 -0.0303
10052TIP3    H151571   4.604   1.981  12.799 -0.0488  0.2517  0.3311
10052TIP3    H251572   4.505   1.866  12.796  0.2297  0.0226 -0.3174
10053TIP3   OH251573   6.012   1.289  15.130 -0.2830 -0.1940  0.7850
10053TIP3    H151574   5.930   1.245  15.112 -1.1360  1.7985 -0.5202
10053TIP3    H251575   6.080   1.229  15.099 -1.4536  0.0799 -2.7034
10054TIP3   OH251576   5.010   5.995  13.531 -0.4818 -0.3840 -0.6236
10054TIP3    H151577   4.920   6.015  13.507 -0.8908 -2.6056 -1.1027
10054TIP3    H251578   5.014   5.900  13.536  1.8853 -0.3609 -0.7605
10055TIP3   OH251579   4.833   2.201   5.843 -0.0880  0.5685 -0.2808
10055TIP3    H151580   4.915   2.243   5.816 -0.5856  1.9328  0.2402
10055TIP3    H251581   4.794   2.170   5.761  0.2236  1.2572 -0.6960
10056TIP3   OH251582   3.598   4.559  13.665 -0.5053  0.1547  0.3451
10056TIP3    H151583   3.519   4.604  13.695 -0.7151 -1.6846  2.8876
10056TIP3    H251584   3.669   4.622  13.680 -1.0277  0.4090  1.9965
10057TIP3   OH251585   4.793   0.922   1.337 -0.5308  0.0776  0.2028
10057TIP3    H151586   4.728   0.967   1.283 -1.0057  1.3907  1.7852
10057TIP3    H251587   4.813   0.842   1.289 -1.4460  0.8436 -1.5446
10058TIP3   OH251588   4.792   1.406   4.023  0.0763 -0.2519  0.4992
10058TIP3    H151589   4.885   1.428   4.013  0.3983 -2.0136 -0.8327
10058TIP3    H251590   4.746   1.469   3.968  0.5874 -0.1926  0.1373
10059TIP3   OH251591   6.281   3.763   0.215  0.1683  0.2308  0.3419
10059TIP3    H151592   6.333   3.843   0.213  0.9252 -0.2400 -1.8900
10059TIP3    H251593   6.337   3.699   0.257  0.2198  0.4502  0.6104
10060TIP3   OH251594   0.413   3.752   6.188  0.5281 -0.3731  0.1797
10060TIP3    H151595   0.345   3.706   6.139  1.0866 -0.9314 -0.0809
10060TIP3    H251596   0.370   3.779   6.269 -0.3620  0.4073 -0.5240
10061TIP3   OH251597   0.075   1.000   5.463  0.2582  0.9275 -0.3209
10061TIP3    H151598   0.101   0.936   5.396  0.3698  1.1135 -0.4543
10061TIP3    H251599  -0.021   0.998   5.461  0.2556  0.4746 -0.0488
10062TIP3   OH251600   3.255   0.789  10.654 -0.2437  0.2068  0.2111
10062TIP3    H151601   3.239   0.849  10.581 -0.2500 -0.9300 -0.7634
10062TIP3    H251602   3.215   0.707  10.626 -0.1172 -0.2959  1.4514
10063TIP3   OH251603   2.587   1.808  17.323  0.3780  0.0029  0.3426
10063TIP3    H151604   2.507   1.808  17.376  0.0830  0.5804 -0.0862
10063TIP3    H251605   2.603   1.901  17.306  1.2977 -0.0943  0.6546
10064TIP3   OH251606   3.395   5.055   5.188 -0.1980 -0.4569  0.3744
10064TIP3    H151607   3.403   5.050   5.093 -0.1259 -1.3142  0.4153
10064TIP3    H251608   3.421   5.145   5.210 -1.7426  0.2614 -0.5582
10065TIP3   OH251609   1.210   6.018  13.328 -0.3101  0.0217 -0.0316
10065TIP3    H151610   1.214   6.046  13.236 -0.4997  0.4080  0.0764
10065TIP3    H251611   1.212   6.100  13.378  2.0201 -0.2380  0.3954
10066TIP3   OH251612   0.622   6.334  12.478 -0.1539 -0.4770  0.5563
10066TIP3    H151613   0.596   6.424  12.497  0.4173 -0.5346  1.7131
10066TIP3    H251614   0.600   6.286  12.558  0.5295 -1.1543  0.3492
10067TIP3   OH251615   5.828   1.856  14.163  0.1042 -0.3633  0.3318
10067TIP3    H151616   5.742   1.861  14.205 -1.1079  1.3299 -2.0724
10067TIP3    H251617   5.864   1.772  14.192 -1.1987  0.0027  3.4143
10068TIP3   OH251618   1.482   0.921  13.807  0.8493 -0.2223  0.1671
10068TIP3    H151619   1.435   0.942  13.727  1.2034  2.0442  0.4997
10068TIP3    H251620   1.523   0.837  13.789 -1.3930 -1.1727 -0.9576
10069TIP3   OH251621   2.254   3.645  12.855  0.2194 -0.1835 -0.1821
10069TIP3    H151622   2.159   3.656  12.855  0.1531 -0.7496 -0.1836
10069TIP3    H251623   2.277   3.633  12.948  0.1399 -1.2750 -0.2935
10070TIP3   OH251624   3.196   3.510   0.177  0.2585 -0.1650 -0.1690
10070TIP3    H151625   3.248   3.518   0.097  0.2505 -0.8124 -0.2385
10070TIP3    H251626   3.219   3.588   0.228  1.0377 -0.2687 -0.3480
10071TIP3   OH251627   1.705   3.008   6.287 -0.1713 -0.2922 -0.7283
10071TIP3    H151628   1.768   3.072   6.320 -0.7855  0.2484 -0.6017
10071TIP3    H251629   1.639   3.060   6.242 -1.7605 -0.6547  1.0841
10072TIP3   OH251630   0.835   1.123   5.651  0.2170 -0.3848 -0.1008
10072TIP3    H151631   0.849   1.030   5.631  2.3709 -0.0234 -0.4300
10072TIP3    H251632   0.895   1.141   5.724 -1.3047  0.4074  1.0199
10073TIP3   OH251633   4.836   6.655   0.932  0.6888 -0.2184 -0.1591
10073TIP3    H151634   4.835   6.745   0.963  1.6900 -0.0096 -0.6795
10073TIP3    H251635   4.850   6.662   0.838  0.1731 -0.9065 -0.3001
10074TIP3   OH251636   5.697   5.201   2.440  0.3906 -0.1544 -0.0757
10074TIP3    H151637   5.626   5.159   2.488 -1.4484  1.1529 -1.5320
10074TIP3    H251638   5.738   5.130   2.391 -0.3420 -0.8232  0.2502
10075TIP3   OH251639   3.012   0.764   5.794  0.3973  0.3357 -0.2538
10075TIP3    H151640   3.062   0.770   5.875 -2.0583  1.5447  1.3169
10075TIP3    H251641   2.953   0.840   5.798 -0.3195 -0.0069 -2.8260
10076TIP3   OH251642   4.233   6.093   0.594  0.4140  0.1703  0.0834
10076TIP3    H151643   4.190   6.057   0.516  2.4096  1.0381 -1.4908
10076TIP3    H251644   4.173   6.071   0.665 -0.4166 -2.6701 -1.3323
10077TIP3   OH251645   1.039   4.366   1.296 -0.3445 -0.4702  0.4661
10077TIP3    H151646   0.988   4.335   1.222  0.7037  0.7933 -0.8412
10077TIP3    H251647   1.114   4.307   1.300 -0.0821 -0.1633  0.1171
10078TIP3   OH251648   2.080   2.168   4.366  0.0381  0.2594  0.7047
10078TIP3    H151649   2.046   2.142   4.280  0.1418 -0.6640  0.9323
10078TIP3    H251650   2.105   2.260   4.355  1.2829 -0.1996 -0.6351
10079TIP3   OH251651   2.989   4.394  10.802  0.0089 -0.2727  0.1535
10079TIP3    H151652   2.991   4.473  10.856  1.5302  0.4308 -0.8490
10079TIP3    H251653   3.006   4.426  10.713  2.1630 -1.8222 -0.0902
10080TIP3   OH251654   2.590   4.870   5.122 -0.0524  0.2020  0.1789
10080TIP3    H151655   2.504   4.909   5.136 -0.2550 -0.4070  0.7100
10080TIP3    H251656   2.651   4.942   5.134 -0.5182  0.8112 -0.9723
10081TIP3   OH251657   5.175   4.153  16.277  0.5129  0.2332 -0.0625
10081TIP3    H151658   5.159   4.090  16.207  0.6286 -3.6817  3.1031
10081TIP3    H251659   5.091   4.199  16.287 -0.8311 -2.0687 -0.1552
10082TIP3   OH251660   6.366   5.311   0.187 -0.2386  0.0260 -0.2383
10082TIP3    H151661   6.437   5.316   0.124  0.2390 -1.4562  0.1469
10082TIP3    H251662   6.406   5.333   0.271  0.3045 -2.6796  0.3166
10083TIP3   OH251663   6.477   1.163  12.948  0.3978  0.3589 -0.0101
10083TIP3    H151664   6.419   1.178  12.873 -1.6652 -1.1366  1.2171
10083TIP3    H251665   6.514   1.076  12.933 -0.2808 -0.0889  0.8505
10084TIP3   OH251666   4.906   6.426  15.948  0.2645 -0.8402  0.4120
10084TIP3    H151667   4.919   6.454  16.039  1.3271  0.1798 -0.0334
10084TIP3    H251668   4.868   6.502  15.905  1.7098 -0.5770 -0.4623
10085TIP3   OH251669   4.139   6.667   1.203 -0.4450 -0.3133 -0.0718
10085TIP3    H151670   4.188   6.705   1.130 -0.8275  0.1305 -0.1013
10085TIP3    H251671   4.057   6.636   1.164 -0.8865  0.4207  0.2633
10086TIP3   OH251672   3.584   1.735  16.191 -0.0550 -0.8964 -0.0370
10086TIP3    H151673   3.490   1.745  16.177  0.0451 -0.0195 -0.1553
10086TIP3    H251674   3.596   1.642  16.213 -0.9095 -1.0676 -0.2710
10087TIP3   OH251675   1.140   0.790   4.198  0.1811  0.0068 -0.4244
10087TIP3    H151676   1.228   0.823   4.180  0.2049  0.3753  0.3193
10087TIP3    H251677   1.098   0.861   4.247 -0.1393 -0.6342  0.2343
10088TIP3   OH251678   3.055   5.730   3.824  0.8646  0.5400 -0.6966
10088TIP3    H151679   3.034   5.716   3.916  0.9919 -0.1121 -0.7611
10088TIP3    H251680   3.019   5.816   3.804 -0.1366  0.2112 -0.3352
10089TIP3   OH251681   6.335   2.657  16.148  0.6432  0.4116 -0.1768
10089TIP3    H151682   6.260   2.598  16.147  1.9043 -1.2446 -0.8301
10089TIP3    H251683   6.366   2.654  16.239  1.1900 -0.6253 -0.3788
10090TIP3   OH251684   1.694   2.488   2.148 -0.5938  0.0097 -0.6857
10090TIP3    H151685   1.649   2.403   2.150 -0.6021 -0.0491 -2.2922
10090TIP3    H251686   1.672   2.525   2.063 -0.4479  1.5661 -0.0794
10091TIP3   OH251687   0.044   1.682   1.699  0.1358 -0.1904 -0.7934
10091TIP3    H151688   0.093   1.699   1.779  0.2042  0.7097 -1.0214
10091TIP3    H251689  -0.045   1.662   1.729 -0.1189  1.2542 -0.5485
10092TIP3   OH251690   5.345   2.058  16.829 -0.4318  0.6639 -0.0519
10092TIP3    H151691   5.421   2.046  16.772 -1.2124  1.8818 -1.4348
10092TIP3    H251692   5.270   2.036  16.774 -1.2446  2.3100  0.3236
10093TIP3   OH251693   5.988   4.514  15.269 -0.1554  0.2244 -0.2138
10093TIP3    H151694   6.063   4.553  15.313 -1.5980  0.3440  2.3063
10093TIP3    H251695   5.989   4.422  15.296 -0.0275 -0.1583 -1.4691
10094TIP3   OH251696   1.147   2.696   1.838 -0.2921  0.7864  0.0701
10094TIP3    H151697   1.119   2.650   1.759  0.4099  2.6654 -1.3517
10094TIP3    H251698   1.163   2.627   1.902 -1.5138 -0.7520 -1.2185
10095TIP3   OH251699   3.213   5.831   0.517 -0.4322 -0.1603  0.7009
10095TIP3    H151700   3.208   5.829   0.421 -1.6768  2.2313  0.6378
10095TIP3    H251701   3.289   5.777   0.538  0.7564  0.4279 -1.7272
10096TIP3   OH251702   5.563   6.517  11.602  0.5245  0.0010  0.0255
10096TIP3    H151703   5.536   6.429  11.579  0.6192  0.1598 -0.7249
10096TIP3    H251704   5.658   6.513  11.606  0.5750  0.2382 -0.7687
10097TIP3   OH251705   6.688   1.872  11.532  0.2357  0.5544  0.3145
10097TIP3    H151706   6.635   1.941  11.573  0.9906  2.0692 -1.1717
10097TIP3    H251707   6.660   1.870  11.441  0.7120 -0.6578  0.1710
10098TIP3   OH251708   4.528   0.419  15.298 -0.0195  0.0135  0.2078
10098TIP3    H151709   4.463   0.352  15.320 -0.1558  1.0544  3.4199
10098TIP3    H251710   4.479   0.501  15.294  0.7490  0.5084  0.5744
10099TIP3   OH251711   4.920   4.706   3.113  0.0177  0.2425 -0.0511
10099TIP3    H151712   4.846   4.764   3.098 -0.1545 -0.3812 -1.8420
10099TIP3    H251713   4.980   4.723   3.041  0.9042 -0.3705  0.5113
10100TIP3   OH251714   5.173   4.313  14.517 -0.7394  0.2374  0.1337
10100TIP3    H151715   5.146   4.383  14.577 -1.6063 -0.1613  0.2329
10100TIP3    H251716   5.157   4.232  14.567 -0.9671 -0.0745 -0.4346
10101TIP3   OH251717   4.677   6.009   5.086  0.3962 -0.1567 -0.1771
10101TIP3    H151718   4.702   6.101   5.088 -0.5361  0.1044  1.2364
10101TIP3    H251719   4.745   5.965   5.136  0.8605 -0.2630 -0.8824
10102TIP3   OH251720   2.988   3.819   3.685  0.5656  0.3828  0.0150
10102TIP3    H151721   2.994   3.736   3.732  1.2639  0.6773  0.4683
10102TIP3    H251722   2.948   3.879   3.749 -1.4684  0.0219 -0.8447
10103TIP3   OH251723   5.930   2.706  16.401  0.0113 -0.5041 -0.2079
10103TIP3    H151724   5.919   2.713  16.496 -2.8547  1.3489 -0.5486
10103TIP3    H251725   5.931   2.612  16.384  1.0762 -0.8882  1.6353
10104TIP3   OH251726   2.290   6.100   4.134  0.0933  0.3258  0.1295
10104TIP3    H151727   2.361   6.036   4.132 -0.4849 -0.3277  0.3344
10104TIP3    H251728   2.220   6.060   4.083 -0.4275  0.6203  0.6107
10105TIP3   OH251729   6.532   0.011   1.432  0.0820 -0.3311 -0.2750
10105TIP3    H151730   6.469   0.075   1.399 -1.4248  0.6311  3.8890
10105TIP3    H251731   6.580   0.058   1.501  1.4511 -2.7026  0.4980
10106TIP3   OH251732   3.428   0.913  16.302 -0.1170 -0.2821  0.0939
10106TIP3    H151733   3.489   0.940  16.234 -0.3281  0.4595  0.1905
10106TIP3    H251734   3.481   0.863  16.364  0.8134  1.8432  1.1213
10107TIP3   OH251735   2.103   6.616   1.914  0.1762 -0.6005 -0.1082
10107TIP3    H151736   2.084   6.709   1.928 -0.0340 -0.7859  0.8760
10107TIP3    H251737   2.038   6.588   1.849 -0.5293 -0.3397  0.4773
10108TIP3   OH251738   6.440   0.964   2.773  0.0246  0.0050  0.6038
10108TIP3    H151739   6.496   0.925   2.705 -1.4204 -0.1398 -0.5508
10108TIP3    H251740   6.500   0.981   2.846  0.9652 -3.2191  0.7347
10109TIP3   OH251741   6.023   1.516  15.608 -0.3836  0.3050 -0.2662
10109TIP3    H151742   6.058   1.430  15.583 -0.5023  0.3970 -0.7532
10109TIP3    H251743   6.026   1.515  15.703  0.5027  0.1233 -0.2794
10110TIP3   OH251744   2.656   2.703  16.667 -0.4263 -0.4398 -0.3246
10110TIP3    H151745   2.662   2.796  16.692  0.8414 -0.1899 -1.4247
10110TIP3    H251746   2.568   2.693  16.632 -0.0938  0.7341 -1.5733
10111TIP3   OH251747   2.420   0.819   1.900 -0.2408  0.2064  0.1843
10111TIP3    H151748   2.493   0.763   1.876 -1.6106 -2.2850  1.4144
10111TIP3    H251749   2.461   0.896   1.939  1.7171 -0.0189 -1.2741
10112TIP3   OH251750   2.427   4.770  11.257  0.2676 -0.0305 -0.1319
10112TIP3    H151751   2.369   4.741  11.186 -0.8403 -0.9641  1.0994
10112TIP3    H251752   2.370   4.821  11.315  1.6860  2.9367 -1.1073
10113TIP3   OH251753   6.653   0.448   1.731 -0.1883 -0.1751 -0.0583
10113TIP3    H151754   6.623   0.510   1.664 -1.3701 -0.5618  0.0788
10113TIP3    H251755   6.747   0.442   1.718 -0.2123  0.8062 -0.7891
10114TIP3   OH251756   1.980   1.424  16.739  0.1859 -0.2352  0.3134
10114TIP3    H151757   2.000   1.405  16.647  0.1919  0.3691  0.1840
10114TIP3    H251758   2.004   1.344  16.786  0.4501 -0.4487 -0.1736
10115TIP3   OH251759   3.262   4.811   1.597  0.1569 -0.0590  0.4170
10115TIP3    H151760   3.194   4.875   1.619 -1.7366 -2.0066  0.5643
10115TIP3    H251761   3.282   4.767   1.680  1.0756 -0.0051  0.2369
10116TIP3   OH251762   3.008   4.168   3.434  0.2209 -0.1644  0.1850
10116TIP3    H151763   2.964   4.203   3.357  0.8375  0.0575 -0.0737
10116TIP3    H251764   3.101   4.175   3.414  0.4066  0.4174  1.1718
10117TIP3   OH251765   1.509   6.479   3.022 -0.4035 -0.0557  0.4001
10117TIP3    H151766   1.479   6.395   2.989 -0.4612  0.1145  0.0129
10117TIP3    H251767   1.460   6.492   3.103 -2.0060  0.5789 -0.6111
10118TIP3   OH251768   1.403   5.880   0.687 -0.2833 -0.0138  0.4526
10118TIP3    H151769   1.340   5.952   0.696 -1.3652 -0.8440 -0.2491
10118TIP3    H251770   1.366   5.810   0.742  0.6977 -0.0823  1.0393
10119TIP3   OH251771   0.046   3.578   3.665 -0.2117  0.0278 -0.0200
10119TIP3    H151772  -0.032   3.628   3.642 -0.6521 -1.2594 -1.4155
10119TIP3    H251773   0.111   3.603   3.600  0.6038  1.1314  1.1628
10120TIP3   OH251774   2.531   2.450   1.545 -0.0628 -0.3740  0.1337
10120TIP3    H151775   2.552   2.408   1.628 -1.3304  0.6087  1.0020
10120TIP3    H251776   2.481   2.529   1.570  1.5443  1.2360 -1.4237
10121TIP3   OH251777   6.421   5.940   1.559 -0.2906  0.1311 -0.8502
10121TIP3    H151778   6.415   6.035   1.572 -0.9617 -0.1579  1.2895
10121TIP3    H251779   6.366   5.922   1.483  1.2682  1.6225 -2.4383
10122TIP3   OH251780   6.051   6.044   2.917  0.2898  0.1856  0.0364
10122TIP3    H151781   6.143   6.050   2.893  0.7243  1.5794  1.8068
10122TIP3    H251782   6.015   6.130   2.893 -0.4189 -0.1476 -0.1237
10123TIP3   OH251783   6.586   0.941  10.484 -0.2423 -0.1428 -0.5915
10123TIP3    H151784   6.573   0.876  10.554  1.0010  2.6061  2.4468
10123TIP3    H251785   6.522   1.009  10.502  0.1600  0.6862 -2.1279
10124TIP3   OH251786   4.160   5.053  12.095  0.3781  0.4936  0.4752
10124TIP3    H151787   4.078   5.092  12.124 -0.5589  0.0143 -1.3463
10124TIP3    H251788   4.177   5.093  12.010  1.9533  0.4441  0.7329
10125TIP3   OH251789   1.814   0.923  12.680  0.1257  0.0892  0.3976
10125TIP3    H151790   1.841   0.834  12.703  0.1415 -0.4616 -1.5461
10125TIP3    H251791   1.896   0.968  12.657  0.0357  0.3775  0.6319
10126TIP3   OH251792   3.891   2.105   2.911  0.8519 -0.6538  0.2114
10126TIP3    H151793   3.938   2.034   2.868  0.1523 -0.8004 -0.3330
10126TIP3    H251794   3.811   2.064   2.944 -0.4199  0.1679 -1.6210
10127TIP3   OH251795   6.631   4.768   0.173 -0.0393 -0.4706 -1.1727
10127TIP3    H151796   6.633   4.722   0.089 -1.2414 -1.4829 -0.6743
10127TIP3    H251797   6.701   4.727   0.224 -1.2374 -1.9622 -0.6570
10128TIP3   OH251798   6.022   6.472   3.968 -0.3407 -0.5965 -0.4546
10128TIP3    H151799   5.967   6.489   3.892  0.0363  0.5716 -0.4950
10128TIP3    H251800   6.111   6.475   3.935 -0.1939 -0.5670 -0.0618
10129TIP3   OH251801   5.777   2.049   5.467 -0.2891  0.0080 -0.1034
10129TIP3    H151802   5.852   2.076   5.521  0.2709 -2.3308  0.4144
10129TIP3    H251803   5.807   1.969   5.424 -2.4782 -0.9608  0.0715
10130TIP3   OH251804   4.349   6.348  11.404 -0.1564 -0.0476 -0.2309
10130TIP3    H151805   4.440   6.375  11.417 -0.5691  2.6793 -2.0848
10130TIP3    H251806   4.344   6.324  11.311 -1.1593 -0.9975  0.0513
10131TIP3   OH251807   2.279   2.969   4.088 -0.1028  0.2722 -0.1228
10131TIP3    H151808   2.248   2.887   4.049  0.3451  0.4974 -1.0010
10131TIP3    H251809   2.347   3.000   4.027 -0.6467  1.5723 -0.1159
10132TIP3   OH251810   0.749   5.472   4.555  0.2064 -0.6832  0.4653
10132TIP3    H151811   0.713   5.514   4.477 -1.3423 -0.7938  1.0796
10132TIP3    H251812   0.718   5.526   4.628 -0.8745 -2.2053  1.1861
10133TIP3   OH251813   4.865   6.323  13.410 -0.3777  0.0511 -0.6808
10133TIP3    H151814   4.841   6.320  13.502  0.7984 -0.2286 -0.3707
10133TIP3    H251815   4.959   6.340  13.409 -0.1752 -0.9408 -1.7950
10134TIP3   OH251816   2.893   3.528  15.848  0.4553 -0.2645  0.2329
10134TIP3    H151817   2.952   3.580  15.902 -0.0395 -0.3194  0.8467
10134TIP3    H251818   2.949   3.461  15.809  0.6549 -0.9413  1.6051
10135TIP3   OH251819   3.332   5.953   6.803  0.0119  0.2860  0.3337
10135TIP3    H151820   3.410   5.930   6.752  0.5888  2.7625 -0.0640
10135TIP3    H251821   3.363   5.957   6.894 -0.2006 -0.8644  0.4626
10136TIP3   OH251822   3.262   5.941   0.790 -0.1647 -0.8121  0.1175
10136TIP3    H151823   3.209   5.950   0.711  0.5929 -0.4244 -0.3620
10136TIP3    H251824   3.198   5.932   0.861 -0.8583 -0.8822 -0.5028
10137TIP3   OH251825   3.006   3.109   2.302 -0.1480 -0.5684 -0.0863
10137TIP3    H151826   3.100   3.118   2.288 -0.3373  0.1323 -1.0307
10137TIP3    H251827   2.968   3.183   2.254 -1.0936 -0.0638  1.3799
10138TIP3   OH251828   0.884   5.495  13.672  0.4477 -0.0015  0.1663
10138TIP3    H151829   0.920   5.566  13.726  1.5991  0.1433 -0.7569
10138TIP3    H251830   0.831   5.539  13.606  1.2812  0.0356 -0.4978
10139TIP3   OH251831   2.863   0.079   0.976 -0.1395  0.4716 -0.0293
10139TIP3    H151832   2.847   0.137   0.902 -0.5856 -0.0012 -0.3057
10139TIP3    H251833   2.958   0.064   0.975 -0.0424  1.0584 -0.0526
10140TIP3   OH251834   2.292   5.652  14.246  0.0303 -0.4632 -0.8012
10140TIP3    H151835   2.346   5.582  14.209  0.3540 -0.4456 -0.3730
10140TIP3    H251836   2.231   5.607  14.304 -0.1515 -0.4453 -0.9777
10141TIP3   OH251837   6.574   0.391   0.689 -0.2761  0.2193 -0.1567
10141TIP3    H151838   6.501   0.361   0.743  0.5321 -0.5654  0.5188
10141TIP3    H251839   6.592   0.317   0.631  1.8214 -0.7226  1.6052
10142TIP3   OH251840   4.835   1.729  13.313 -0.1725  0.3105 -0.3621
10142TIP3    H151841   4.778   1.806  13.315  0.2451  0.6170 -0.1042
10142TIP3    H251842   4.800   1.676  13.242  0.2095  1.2629 -1.2792
10143TIP3   OH251843   1.351   4.825  12.958  0.3977 -0.1575 -0.4500
10143TIP3    H151844   1.313   4.771  13.027  1.3180  1.3353  1.3039
10143TIP3    H251845   1.278   4.879  12.927  0.0432 -0.6287 -0.4469
10144TIP3   OH251846   0.681   0.217  14.278 -0.1510 -0.2182  0.0250
10144TIP3    H151847   0.721   0.281  14.337  0.4052 -0.0334 -0.5394
10144TIP3    H251848   0.627   0.162  14.335  0.1875  0.1035  0.6668
10145TIP3   OH251849   0.108   6.092   2.731 -0.1825 -0.2389  0.5532
10145TIP3    H151850   0.164   6.078   2.654 -0.5691  2.6339 -0.3652
10145TIP3    H251851   0.019   6.075   2.699 -0.4089  1.5671  0.1012
10146TIP3   OH251852   2.166   3.950   0.064 -0.1526 -0.2206  0.3144
10146TIP3    H151853   2.120   3.866   0.062 -1.3166  0.3753  1.1729
10146TIP3    H251854   2.170   3.972   0.157  2.6892 -0.6628  0.3737
10147TIP3   OH251855   3.792   1.040  17.233  0.2565 -0.6892 -0.5353
10147TIP3    H151856   3.794   0.945  17.249 -2.5925 -0.6290  0.9882
10147TIP3    H251857   3.791   1.078  17.321 -0.6195  0.6253 -1.0846
10148TIP3   OH251858   3.700   6.705  16.898  0.6581 -0.3575 -0.4526
10148TIP3    H151859   3.759   6.726  16.971 -0.4205 -0.1649  0.4049
10148TIP3    H251860   3.725   6.766  16.829  1.0289  0.1794  0.1369
10149TIP3   OH251861   4.035   3.899  11.465  0.1875  0.1344  0.4489
10149TIP3    H151862   3.991   3.884  11.549  0.2815 -0.0466  0.4654
10149TIP3    H251863   3.965   3.892  11.400  0.2098 -0.2459  0.4672
10150TIP3   OH251864   4.460   3.117   4.768 -0.1820  0.2627 -0.1873
10150TIP3    H151865   4.385   3.068   4.803 -0.2097  0.3818 -0.0769
10150TIP3    H251866   4.494   3.063   4.697  0.2960 -0.3136  0.4642
10151TIP3   OH251867   4.387   3.845   2.652  0.6965  0.3546  0.2674
10151TIP3    H151868   4.294   3.839   2.675  0.6588 -1.4385 -0.1809
10151TIP3    H251869   4.420   3.919   2.703 -0.8305  0.6060  0.9439
10152TIP3   OH251870   6.297   0.418   3.957  0.0984 -0.5344  0.4698
10152TIP3    H151871   6.321   0.460   3.875 -0.8374  1.5774  1.2220
10152TIP3    H251872   6.250   0.339   3.930 -1.6591  0.9582 -1.0982
10153TIP3   OH251873   5.710   3.470   5.736 -0.4141  0.0383 -0.2084
10153TIP3    H151874   5.697   3.513   5.652  0.4122  0.0586 -0.3324
10153TIP3    H251875   5.724   3.378   5.714 -0.1372  0.0537 -0.0992
10154TIP3   OH251876   5.676   1.698   0.864  0.3296 -0.2300  0.4997
10154TIP3    H151877   5.742   1.696   0.795 -0.2441 -1.4913 -0.0320
10154TIP3    H251878   5.723   1.729   0.941  1.0593  0.8573 -0.3450
10155TIP3   OH251879   0.626   4.698   1.649 -0.0776 -0.1391 -0.1076
10155TIP3    H151880   0.564   4.769   1.662 -2.4048 -1.9158 -0.7214
10155TIP3    H251881   0.691   4.733   1.588 -1.7856  1.1221 -1.3038
10156TIP3   OH251882   1.562   6.424  16.709 -0.3359  0.3356  0.4177
10156TIP3    H151883   1.622   6.377  16.652 -0.9875  0.4287 -0.3593
10156TIP3    H251884   1.500   6.467  16.649 -0.2408  1.5230  1.1307
10157TIP3   OH251885   2.965   4.458  16.299  0.7003 -0.1781 -0.1310
10157TIP3    H151886   2.890   4.513  16.320  1.3800  0.9111 -0.4716
10157TIP3    H251887   2.966   4.392  16.369 -0.5212 -0.1860 -0.0919
10158TIP3   OH251888   6.543   3.328   1.434  0.0005 -0.2828  0.1228
10158TIP3    H151889   6.590   3.384   1.496 -1.8415  0.3913  0.9614
10158TIP3    H251890   6.560   3.239   1.464  0.2087 -0.0204  0.7993
10159TIP3   OH251891   1.184   4.029  16.963  0.1019  0.0164  0.0709
10159TIP3    H151892   1.130   3.956  16.992 -1.2660  0.5507 -1.0104
10159TIP3    H251893   1.129   4.106  16.978  1.0083  0.6944 -0.0225
10160TIP3   OH251894   4.052   0.005  15.211 -0.0473 -0.1753  0.1950
10160TIP3    H151895   4.143  -0.024  15.216  0.0995  0.1064 -0.7981
10160TIP3    H251896   4.055   0.097  15.238 -0.2922 -0.5940  1.7838
10161TIP3   OH251897   4.773   4.683   2.392 -0.3167  0.2878 -0.4863
10161TIP3    H151898   4.842   4.728   2.344  2.9687 -0.7087  2.8463
10161TIP3    H251899   4.777   4.593   2.361  0.5751  0.0373  0.3046
10162TIP3   OH251900   4.877   0.818   0.374  0.1204 -0.3211  0.0460
10162TIP3    H151901   4.927   0.820   0.455  2.7931  1.1835 -1.5022
10162TIP3    H251902   4.940   0.790   0.307 -1.8009 -0.8423 -1.6444
10163TIP3   OH251903   2.208   0.145  17.103 -0.2679  0.0694  0.2030
10163TIP3    H151904   2.163   0.205  17.044 -1.3332 -1.5675 -0.7439
10163TIP3    H251905   2.145   0.130  17.173 -0.4370 -0.7321 -0.1134
10164TIP3   OH251906   5.654   3.943  11.806  0.4158  0.1897  0.0770
10164TIP3    H151907   5.607   3.962  11.887  0.8738 -0.0903  0.4132
10164TIP3    H251908   5.586   3.916  11.744  0.1875 -0.6685  0.6921
10165TIP3   OH251909   2.679   3.146  16.295 -0.3080 -0.1890 -0.7358
10165TIP3    H151910   2.686   3.101  16.380 -1.1580 -0.5771 -0.8660
10165TIP3    H251911   2.763   3.129  16.252  0.1100 -0.0349  0.0010
10166TIP3   OH251912   6.031   5.968   4.770 -0.3284 -0.3754 -0.3124
10166TIP3    H151913   6.063   6.055   4.792  1.0781 -0.6446 -1.1983
10166TIP3    H251914   6.012   5.972   4.676 -1.1084 -0.7723 -0.1828
10167TIP3   OH251915   5.039   1.095   0.301 -0.2823 -0.3508 -0.8439
10167TIP3    H151916   5.110   1.092   0.365 -2.1463  1.8614  1.5561
10167TIP3    H251917   5.014   1.004   0.289  0.5687 -0.8980  1.1050
10168TIP3   OH251918   0.879   4.795   3.114  0.0320  0.4081 -0.3512
10168TIP3    H151919   0.960   4.836   3.145 -0.0726  1.5702 -1.5573
10168TIP3    H251920   0.851   4.739   3.187  1.9733 -0.1129  0.0319
10169TIP3   OH251921   1.971   5.481   2.792 -0.2061 -0.6726 -0.2627
10169TIP3    H151922   2.039   5.440   2.738 -0.2127 -0.2508 -0.5976
10169TIP3    H251923   2.008   5.567   2.815 -1.8866  1.0277 -3.2182
10170TIP3   OH251924   1.679   0.438  17.083 -0.0150 -0.4988 -0.0334
10170TIP3    H151925   1.711   0.392  17.160  2.1514 -0.1887 -0.6999
10170TIP3    H251926   1.706   0.383  17.009  1.8628  1.3341 -0.7894
10171TIP3   OH251927   5.032   3.625  11.655 -0.0768 -0.0661  0.3557
10171TIP3    H151928   5.106   3.565  11.653  1.5943  1.8382 -3.1194
10171TIP3    H251929   4.958   3.574  11.621  0.6195 -0.9054  0.0699
10172TIP3   OH251930   5.268   2.238   2.932 -0.6115  0.0443 -0.0891
10172TIP3    H151931   5.348   2.243   2.880 -0.8043  0.2358 -0.3722
10172TIP3    H251932   5.283   2.299   3.004 -1.2114  1.4931 -1.1353
10173TIP3   OH251933   4.976   4.380  12.946 -0.4757 -0.4007  0.1439
10173TIP3    H151934   4.991   4.424  12.862 -0.6024 -0.0266  0.3150
10173TIP3    H251935   5.025   4.432  13.009  0.9340 -1.5923  0.0734
10174TIP3   OH251936   2.292   3.910  12.832 -0.3086  0.1256  0.2912
10174TIP3    H151937   2.282   3.815  12.834 -0.4637  0.1489  0.8559
10174TIP3    H251938   2.360   3.929  12.896 -0.6904  0.4362  0.6161
10175TIP3   OH251939   0.635   6.017   3.463 -0.4153 -0.0500  0.2498
10175TIP3    H151940   0.723   6.054   3.474 -0.0724 -0.8719  0.3911
10175TIP3    H251941   0.587   6.084   3.415  0.5320  0.0902 -0.5452
10176TIP3   OH251942   1.445   1.529   2.670  1.2713  0.7484 -0.6126
10176TIP3    H151943   1.428   1.487   2.585 -0.3053 -1.0516  0.4973
10176TIP3    H251944   1.375   1.594   2.678  2.1514  1.7914 -1.1903
10177TIP3   OH251945   6.310   1.048  14.543  0.1314 -0.3920  0.1553
10177TIP3    H151946   6.400   1.079  14.545  0.2866 -0.8147  1.7914
10177TIP3    H251947   6.265   1.106  14.482  1.1824  0.7729  0.4449
10178TIP3   OH251948   1.892   0.855  11.527  0.3805 -0.0252 -0.4464
10178TIP3    H151949   1.861   0.906  11.601  1.4977 -0.0366  0.0355
10178TIP3    H251950   1.955   0.794  11.564  0.0371 -0.8762 -1.2217
10179TIP3   OH251951   5.487   3.612   3.002  0.0526  0.4880 -0.8201
10179TIP3    H151952   5.561   3.654   3.046 -0.4560 -0.8581  1.4507
10179TIP3    H251953   5.424   3.682   2.986  0.5832  1.1336 -0.0761
10180TIP3   OH251954   4.597   1.788  13.998  0.0395  0.3357 -0.0018
10180TIP3    H151955   4.635   1.859  13.947 -1.8264  0.3035 -1.5538
10180TIP3    H251956   4.584   1.717  13.935 -0.4429 -0.4719  0.9714
10181TIP3   OH251957   2.173   5.078   1.557  0.0383 -0.2716  0.2759
10181TIP3    H151958   2.223   5.017   1.612 -0.2617  0.4104  1.3334
10181TIP3    H251959   2.131   5.022   1.492 -0.6426 -1.2919  1.5299
10182TIP3   OH251960   1.264   6.342   5.330 -0.0109  0.4684  0.2069
10182TIP3    H151961   1.276   6.301   5.244  1.0938  2.1192 -0.4969
10182TIP3    H251962   1.208   6.282   5.378  0.8860 -1.4387 -1.0004
10183TIP3   OH251963   2.561   1.225   1.982  0.0539  0.1356  0.0475
10183TIP3    H151964   2.613   1.280   1.924 -0.0461 -0.1095 -0.2735
10183TIP3    H251965   2.470   1.241   1.955 -0.0399  0.5608  0.6022
10184TIP3   OH251966   2.965   3.299   5.361  0.2697 -0.1214 -0.3706
10184TIP3    H151967   3.010   3.332   5.283  0.8046 -0.4348 -0.1948
10184TIP3    H251968   2.957   3.205   5.346  0.3240 -0.1745 -0.0736
10185TIP3   OH251969   6.147   4.680  10.462  0.0345 -0.5804 -0.5189
10185TIP3    H151970   6.101   4.752  10.506  0.0924 -0.7500 -0.1770
10185TIP3    H251971   6.129   4.604  10.517 -2.2579 -1.4244 -2.2435
10186TIP3   OH251972   4.064   3.151  12.323 -0.0783 -0.4946  0.6404
10186TIP3    H151973   4.021   3.065  12.325 -1.4920  0.1875  0.7288
10186TIP3    H251974   3.998   3.211  12.355  0.2977  0.8778 -1.0024
10187TIP3   OH251975   0.880   0.524   4.139 -0.0396 -0.3828 -0.6144
10187TIP3    H151976   0.874   0.594   4.074  0.8193 -1.1832 -1.5820
10187TIP3    H251977   0.794   0.481   4.137 -0.6122  0.6648  0.0622
10188TIP3   OH251978   3.661   2.149  15.551  0.1153  0.0055 -0.0504
10188TIP3    H151979   3.669   2.077  15.489  0.8751  0.5825 -0.6436
10188TIP3    H251980   3.615   2.218  15.502 -3.4237 -1.0867  1.4356
10189TIP3   OH251981   4.283   0.770   2.005  0.8274  0.1760 -0.3647
10189TIP3    H151982   4.263   0.774   1.911  0.3408 -1.5022 -0.3584
10189TIP3    H251983   4.332   0.689   2.015  2.4392  1.2172  0.5894
10190TIP3   OH251984   1.138   4.037  12.555  0.9578 -0.3067  0.1205
10190TIP3    H151985   1.152   4.020  12.649  0.6021 -0.7659  0.0933
10190TIP3    H251986   1.091   4.121  12.553 -0.9996 -1.3445  0.4765
10191TIP3   OH251987   5.663   6.714  15.484  0.1414 -0.5986  0.1814
10191TIP3    H151988   5.755   6.692  15.490  0.1079 -0.4196  3.9319
10191TIP3    H251989   5.626   6.685  15.568 -2.8198  0.9093 -0.4574
10192TIP3   OH251990   0.196   5.817   6.567 -0.3034  0.0293 -0.3203
10192TIP3    H151991   0.199   5.737   6.619 -1.6780 -0.7755 -1.4380
10192TIP3    H251992   0.284   5.855   6.577 -0.0618 -0.8863  1.3175
10193TIP3   OH251993   4.881   1.529   2.524 -0.3655  0.1585 -0.1278
10193TIP3    H151994   4.820   1.456   2.532  0.7133 -0.7694 -0.1259
10193TIP3    H251995   4.965   1.488   2.504 -0.1259  1.5065 -2.3151
10194TIP3   OH251996   2.293   1.733   2.859  0.1885  0.3020  0.3711
10194TIP3    H151997   2.382   1.704   2.879 -0.4613 -0.3743  2.6733
10194TIP3    H251998   2.281   1.811   2.913 -0.6495  0.3092  0.1851
10195TIP3   OH251999   3.833   4.655  12.261 -0.7740 -0.2344 -0.0848
10195TIP3    H152000   3.860   4.586  12.322 -2.5659  0.3117  1.4064
10195TIP3    H252001   3.761   4.616  12.211 -1.4217  0.3446  0.3776
10196TIP3   OH252002   2.446   3.537  12.023 -0.2060 -0.1576  0.0960
10196TIP3    H152003   2.478   3.493  12.102  0.2984 -1.2324 -0.6665
10196TIP3    H252004   2.358   3.567  12.045 -0.7969 -2.0500  0.5083
10197TIP3   OH252005   3.909   2.390  16.774 -0.4293  0.1165  0.3115
10197TIP3    H152006   3.878   2.417  16.860 -2.2036 -1.2592  0.1723
10197TIP3    H252007   3.875   2.456  16.714  0.0772  0.6104  0.5582
10198TIP3   OH252008   6.073   1.392  12.231 -0.1827 -0.6530 -0.2603
10198TIP3    H152009   6.140   1.325  12.245  0.0330 -0.4534 -0.3291
10198TIP3    H252010   6.044   1.378  12.141  1.8313  1.0822 -1.2640
10199TIP3   OH252011   6.326   0.688   1.548  0.1323 -0.0672 -0.1403
10199TIP3    H152012   6.416   0.667   1.523 -0.2517  0.9371 -2.7551
10199TIP3    H252013   6.278   0.688   1.465 -2.3760 -0.8736  1.1983
10200TIP3   OH252014   3.653   3.383  13.592  0.1335 -0.1547  0.0637
10200TIP3    H152015   3.649   3.477  13.573  1.6047  0.3196  1.7641
10200TIP3    H252016   3.564   3.351  13.577 -0.4755  1.5621 -0.2256
10201TIP3   OH252017   6.061   5.609   1.624  0.4577  0.0926 -0.0215
10201TIP3    H152018   6.074   5.671   1.553 -3.2592 -0.2592 -1.1976
10201TIP3    H252019   6.029   5.530   1.581  1.0269 -1.1978  1.8224
10202TIP3   OH252020   3.165   3.773  15.164  0.1149 -0.0098 -0.0421
10202TIP3    H152021   3.222   3.725  15.105 -2.6901  0.4820 -3.5068
10202TIP3    H252022   3.193   3.864  15.156 -0.7865  0.1723 -1.3944
10203TIP3   OH252023   2.349   2.390  17.200  0.4890  0.2026  0.0007
10203TIP3    H152024   2.256   2.411  17.207  0.2715 -0.6690 -0.0822
10203TIP3    H252025   2.355   2.299  17.230  1.1741 -0.0529 -0.8695
10204TIP3   OH252026   2.923   4.189  14.194  0.0522  0.1581 -0.2934
10204TIP3    H152027   2.955   4.116  14.248 -0.5939 -0.3241 -0.5578
10204TIP3    H252028   2.867   4.240  14.253  1.2797  1.0292  0.1847
10205TIP3   OH252029   4.547   2.222  16.025 -0.2541  0.0463  0.5354
10205TIP3    H152030   4.508   2.268  15.951  0.7471  1.2980  0.7557
10205TIP3    H252031   4.480   2.223  16.093 -1.0195 -0.7342 -0.1892
10206TIP3   OH252032   6.586   5.791  11.182  0.8157  0.2306 -0.1959
10206TIP3    H152033   6.633   5.872  11.203  0.0109  0.7264 -0.2335
10206TIP3    H252034   6.495   5.819  11.172  0.2664 -0.9062  1.2503
10207TIP3   OH252035   5.733   2.269   0.679  0.0284 -0.2509  0.1886
10207TIP3    H152036   5.657   2.298   0.730  0.0651  0.6624 -0.2543
10207TIP3    H252037   5.727   2.174   0.680 -0.7100 -0.2155  0.7823
10208TIP3   OH252038   0.655   5.483  15.285 -0.0563  0.0951 -0.1407
10208TIP3    H152039   0.709   5.541  15.230  0.5087  0.1086  0.4111
10208TIP3    H252040   0.565   5.506  15.263  0.1648  0.7510 -0.3853
10209TIP3   OH252041   2.026   3.431   4.477 -0.0074  0.0736 -0.7227
10209TIP3    H152042   1.943   3.386   4.495 -0.3566  0.4882 -1.2818
10209TIP3    H252043   2.092   3.361   4.476 -0.2122 -0.1640  0.5601
10210TIP3   OH252044   3.970   3.142  13.355 -0.8250  0.2074  0.0734
10210TIP3    H152045   4.060   3.176  13.350 -1.2751  1.3306 -0.9874
10210TIP3    H252046   3.944   3.158  13.446 -0.0155  0.0097  0.3538
10211TIP3   OH252047   0.841   4.282   0.820 -0.1229 -0.0909  0.3055
10211TIP3    H152048   0.798   4.289   0.735  1.1388 -2.8377 -0.7016
10211TIP3    H252049   0.796   4.210   0.863  0.6710 -0.1581  1.0385
10212TIP3   OH252050   4.743   0.021   2.961  0.4626  0.0769  0.2204
10212TIP3    H152051   4.771  -0.047   2.899 -0.5041 -0.9206  0.8491
10212TIP3    H252052   4.824   0.058   2.994  1.0009  0.2559 -1.2393
10213TIP3   OH252053   3.041   2.372   4.728 -0.1810 -0.5796 -0.2584
10213TIP3    H152054   3.124   2.418   4.716 -0.3568 -0.6504 -2.0150
10213TIP3    H252055   3.064   2.293   4.775  0.1083  1.2824  3.0043
10214TIP3   OH252056   2.936   6.184  14.991 -0.3824  0.1469 -0.1205
10214TIP3    H152057   3.008   6.184  15.053 -1.4101  1.8041  1.1331
10214TIP3    H252058   2.968   6.235  14.917 -0.1089  0.4680  0.2179
10215TIP3   OH252059   3.812   5.687   0.692  0.6210 -0.1903  0.4564
10215TIP3    H152060   3.800   5.735   0.773  1.6761  0.5639  0.1930
10215TIP3    H252061   3.896   5.718   0.658  0.9350 -1.6277 -0.1401
10216TIP3   OH252062   3.345   4.545  11.657  0.6225 -0.1963  0.0956
10216TIP3    H152063   3.411   4.574  11.594  1.3931 -1.3924  0.3210
10216TIP3    H252064   3.333   4.452  11.638 -0.8822 -0.0410  0.1758
10217TIP3   OH252065   4.058   1.184   2.957 -0.3631 -0.4833 -0.6864
10217TIP3    H152066   4.090   1.273   2.940  1.6017 -0.9623  0.2449
10217TIP3    H252067   3.976   1.197   3.004  0.5032  0.8722  0.5444
10218TIP3   OH252068   1.012   3.682  14.484 -0.1609 -0.4987 -0.2057
10218TIP3    H152069   1.020   3.589  14.461  0.8669 -0.0270 -1.9237
10218TIP3    H252070   1.097   3.720  14.461 -0.9035  1.0549 -0.5420
10219TIP3   OH252071   5.679   6.088  13.626  0.2968 -0.0863 -0.1418
10219TIP3    H152072   5.590   6.052  13.636 -0.0818  0.8958  0.1383
10219TIP3    H252073   5.736   6.015  13.650 -0.4457 -0.5775  0.1950
10220TIP3   OH252074   2.873   3.607   2.493  0.2691  0.2095  0.3185
10220TIP3    H152075   2.917   3.629   2.575 -0.1459  0.2099  0.5427
10220TIP3    H252076   2.937   3.554   2.445  0.2791 -0.3367  0.9170
10221TIP3   OH252077   1.595   2.120   1.085 -0.3460 -0.0071  0.3412
10221TIP3    H152078   1.604   2.214   1.104 -1.2944  0.1503  0.0266
10221TIP3    H252079   1.670   2.100   1.028 -1.7339  1.2305 -2.0504
10222TIP3   OH252080   0.542   4.157   3.546  0.0147 -0.2006  0.3902
10222TIP3    H152081   0.569   4.151   3.454 -0.6259 -1.0090  0.2363
10222TIP3    H252082   0.520   4.067   3.570 -1.7421  0.2753  0.7181
10223TIP3   OH252083   4.361   4.008  12.092 -0.6358 -0.0493 -0.1106
10223TIP3    H152084   4.454   4.008  12.071 -0.4795  0.2214  0.5537
10223TIP3    H252085   4.351   4.075  12.160 -1.0000 -1.2837  1.1209
10224TIP3   OH252086   0.970   1.967   4.472 -0.0457  0.1897 -0.1281
10224TIP3    H152087   0.944   1.882   4.505  0.1029 -0.6078 -1.9232
10224TIP3    H252088   1.065   1.970   4.483 -0.0307  0.0464 -0.2201
10225TIP3   OH252089   1.886   4.519   1.858 -0.5061 -0.2512  0.6758
10225TIP3    H152090   1.857   4.609   1.872 -1.5869 -0.0731 -2.0331
10225TIP3    H252091   1.980   4.526   1.843 -0.9270  0.8761 -1.9988
10226TIP3   OH252092   3.776   0.661   5.693  0.2124 -0.4554 -0.4824
10226TIP3    H152093   3.846   0.651   5.757  1.5171  0.6994 -1.6571
10226TIP3    H252094   3.821   0.678   5.610 -1.3748  3.5550 -0.7540
10227TIP3   OH252095   5.523   2.096   2.216  0.1531  0.3110 -0.1081
10227TIP3    H152096   5.523   2.019   2.272 -0.2268  1.4621  1.5407
10227TIP3    H252097   5.612   2.100   2.181  0.6930  0.0862  1.1919
10228TIP3   OH252098   3.636   0.614   0.897 -0.3968  0.2683 -0.1891
10228TIP3    H152099   3.638   0.585   0.806  2.3656  0.2004 -0.1942
10228TIP3    H252100   3.695   0.689   0.899 -2.5946  2.0909  1.0611
10229TIP3   OH252101   6.179   3.021   2.215 -0.4762  0.2809  0.3310
10229TIP3    H152102   6.151   3.081   2.285  1.0506  0.9600  0.3921
10229TIP3    H252103   6.118   2.948   2.220 -0.8804  0.6941  1.8588
10230TIP3   OH252104   5.500   1.942  13.863  0.0649  0.3825 -0.1397
10230TIP3    H152105   5.476   1.972  13.950  0.8107 -1.6779  0.8200
10230TIP3    H252106   5.448   1.863  13.849  1.2512 -0.2993 -0.8286
10231TIP3   OH252107   4.107   3.114   5.936  0.0698  0.5921  0.1043
10231TIP3    H152108   4.025   3.119   5.888  0.1504  1.9286  0.0454
10231TIP3    H252109   4.084   3.138   6.026 -0.2661 -2.8880  1.0944
10232TIP3   OH252110   2.541   1.012  16.820  0.0739 -0.0678 -0.3933
10232TIP3    H152111   2.558   1.099  16.784 -0.2778  0.0175 -0.3545
10232TIP3    H252112   2.600   1.005  16.895 -1.0501  0.7850  0.6080
10233TIP3   OH252113   1.329   5.667  13.363  0.2230  0.1354  0.0035
10233TIP3    H152114   1.337   5.741  13.303  0.0664  0.7139  0.6830
10233TIP3    H252115   1.253   5.618  13.330  0.9111 -0.2747 -1.0151
10234TIP3   OH252116   1.250   3.838  10.904  0.3967 -0.1243 -0.1541
10234TIP3    H152117   1.219   3.823  10.994  0.8902  4.2084  0.9586
10234TIP3    H252118   1.199   3.777  10.851  0.2215 -3.0466  2.9809
10235TIP3   OH252119   4.795   3.293   2.804 -0.0399  0.1877 -0.3582
10235TIP3    H152120   4.840   3.302   2.888 -2.9872 -0.0992  1.3875
10235TIP3    H252121   4.769   3.382   2.782  0.4081  0.2133 -0.7922
10236TIP3   OH252122   4.528   5.599  11.205  0.0238  0.1233 -0.0340
10236TIP3    H152123   4.568   5.512  11.198 -0.8984 -0.2888 -0.3274
10236TIP3    H252124   4.504   5.621  11.115  0.7889  0.9610 -0.0537
10237TIP3   OH252125   0.917   5.915  15.887 -0.4610  0.5146 -0.6766
10237TIP3    H152126   0.980   5.980  15.858  0.0648  0.2919 -0.0481
10237TIP3    H252127   0.859   5.962  15.947 -0.3545  0.5134 -0.5720
10238TIP3   OH252128   3.218   6.071  12.315 -0.2834  0.2066 -0.3159
10238TIP3    H152129   3.168   6.017  12.253 -1.9921  2.7601 -1.3360
10238TIP3    H252130   3.291   6.104  12.263  0.3454 -0.5164  0.0983
10239TIP3   OH252131   2.484   1.748  13.920  0.0746  0.3530 -0.4484
10239TIP3    H152132   2.464   1.840  13.937 -0.3480 -0.1724  2.4720
10239TIP3    H252133   2.490   1.741  13.824  1.1436  3.5855 -0.7261
10240TIP3   OH252134   1.853   0.054  12.641 -0.6489 -0.3905 -0.4773
10240TIP3    H152135   1.785   0.096  12.587 -1.3609  1.3204  1.6052
10240TIP3    H252136   1.812  -0.027  12.671 -1.2638 -0.0417 -0.3458
10241TIP3   OH252137   3.376   6.272   2.226 -0.5143 -0.2144  0.2326
10241TIP3    H152138   3.468   6.299   2.227  0.2606 -2.6352  0.9500
10241TIP3    H252139   3.328   6.353   2.207  1.7790  0.9943 -0.9245
10242TIP3   OH252140   5.546   2.882  12.409  0.1554  0.0239 -0.0023
10242TIP3    H152141   5.541   2.834  12.326  1.1691  0.1885 -0.1762
10242TIP3    H252142   5.599   2.826  12.466 -1.8732 -0.8511  1.1089
10243TIP3   OH252143   2.117   2.003  16.688 -0.4006  0.2131 -0.2593
10243TIP3    H152144   2.103   1.913  16.718 -1.1696  0.1540 -0.7819
10243TIP3    H252145   2.129   1.996  16.593 -1.0226  0.7211 -0.3779
10244TIP3   OH252146   2.600   3.749   3.927  0.4404 -0.6449  0.0576
10244TIP3    H152147   2.587   3.707   3.842  1.3357 -0.0272 -0.4028
10244TIP3    H252148   2.613   3.677   3.988 -0.2436 -1.0945 -0.3105
10245TIP3   OH252149   6.293   4.779  16.316  0.1829  0.4490  0.0975
10245TIP3    H152150   6.212   4.774  16.366 -0.4733 -0.7734 -1.0218
10245TIP3    H252151   6.266   4.807  16.228  0.5062 -2.5833 -1.1053
10246TIP3   OH252152   1.665   4.147   3.727  0.1730 -0.3417  0.1510
10246TIP3    H152153   1.760   4.144   3.717  0.1578 -0.9921  0.1919
10246TIP3    H252154   1.631   4.144   3.637  0.2212  2.2411 -0.0436
10247TIP3   OH252155   0.179   3.396   2.005  0.5177 -0.1960 -0.4151
10247TIP3    H152156   0.245   3.341   1.964 -1.5431 -0.5448 -3.6017
10247TIP3    H252157   0.198   3.484   1.972 -0.2727 -0.2106 -0.9188
10248TIP3   OH252158   1.638   6.525  16.377  0.5967  0.2077 -0.1201
10248TIP3    H152159   1.599   6.593  16.431 -0.0757  0.4477 -0.8934
10248TIP3    H252160   1.731   6.547  16.374  0.6000  0.3597  0.6700
10249TIP3   OH252161   6.654   5.951   3.688 -0.1332 -0.0477 -0.5331
10249TIP3    H152162   6.636   5.983   3.776 -1.4041  0.1394 -0.8434
10249TIP3    H252163   6.649   6.029   3.633 -2.5263 -0.5928 -1.1970
10250TIP3   OH252164   0.524   2.510   6.377 -0.1218  0.2780  0.1138
10250TIP3    H152165   0.429   2.519   6.373 -0.3203 -1.1987  0.8789
10250TIP3    H252166   0.539   2.419   6.400  1.4995  0.4260 -0.2000
10251TIP3   OH252167   2.862   6.644  13.246  0.2990  0.0962 -0.3935
10251TIP3    H152168   2.948   6.605  13.254  0.4725  0.4727 -0.3736
10251TIP3    H252169   2.801   6.575  13.272  0.6162 -0.0475 -0.0155
10252TIP3   OH252170   5.301   6.119   4.003 -0.1346 -0.1314  0.0041
10252TIP3    H152171   5.278   6.132   4.095 -0.5064 -0.3689 -0.0546
10252TIP3    H252172   5.383   6.070   4.005 -0.0247  0.0619  0.2120
10253TIP3   OH252173   2.134   2.055  13.420  0.2283  0.2490 -0.7386
10253TIP3    H152174   2.214   2.010  13.446  1.0172  1.8200 -0.3209
10253TIP3    H252175   2.078   2.051  13.497 -0.0818 -0.7934 -1.0078
10254TIP3   OH252176   5.190   2.842   9.981  0.2221 -0.4277  0.0235
10254TIP3    H152177   5.153   2.841  10.070 -0.0585 -1.9167 -0.0706
10254TIP3    H252178   5.282   2.865   9.994 -0.4179  2.2596  0.3715
10255TIP3   OH252179   1.847   0.581  15.689  0.0231  0.3830  0.5296
10255TIP3    H152180   1.769   0.635  15.695 -0.5469 -0.4807  1.1985
10255TIP3    H252181   1.840   0.536  15.605 -1.8644 -2.0846  1.8771
10256TIP3   OH252182   3.331   0.896   5.893  0.0943  0.0606 -0.5156
10256TIP3    H152183   3.286   0.947   5.960  1.9011  0.3079  0.5654
10256TIP3    H252184   3.342   0.809   5.931 -0.5489 -0.3634 -1.2663
10257TIP3   OH252185   4.956   3.631  10.923 -0.6566  0.2593 -0.1077
10257TIP3    H152186   4.905   3.580  10.860 -1.2024  0.9420 -0.2444
10257TIP3    H252187   5.032   3.578  10.943 -0.1577  0.2867 -1.8115
10258TIP3   OH252188   6.710   5.991  15.333  0.2605  0.1924 -0.1753
10258TIP3    H152189   6.623   6.030  15.330  0.9360  1.7646 -0.5286
10258TIP3    H252190   6.696   5.903  15.369 -1.6640 -0.2290 -1.7675
10259TIP3   OH252191   5.570   3.522   5.001  0.0767 -0.1182  0.5756
10259TIP3    H152192   5.613   3.579   4.937  0.8242  0.2241  1.3558
10259TIP3    H252193   5.595   3.433   4.976  0.5236  0.0273  0.5031
10260TIP3   OH252194   5.887   4.118  11.775  0.0743 -0.2253  0.5384
10260TIP3    H152195   5.826   4.049  11.801 -2.1024  1.4354  0.1580
10260TIP3    H252196   5.895   4.109  11.680 -2.1515  1.3957  0.1105
10261TIP3   OH252197   2.636   0.161   3.561 -0.6411  0.7199  0.2772
10261TIP3    H152198   2.559   0.174   3.505  0.2275 -1.3508 -1.5202
10261TIP3    H252199   2.614   0.083   3.613 -0.1999  0.7853  0.5627
10262TIP3   OH252200   0.749   2.798  13.378 -0.0537  0.0109 -0.1339
10262TIP3    H152201   0.808   2.846  13.437  1.6940 -0.4627 -1.3928
10262TIP3    H252202   0.661   2.819  13.409  0.6568  2.9365  0.1973
10263TIP3   OH252203   3.128   6.430   4.621 -0.5008 -0.2925 -0.5746
10263TIP3    H152204   3.096   6.341   4.607 -0.0586 -0.5499  0.0215
10263TIP3    H252205   3.204   6.437   4.563 -1.0826  0.0142 -1.3134
10264TIP3   OH252206   5.798   3.693   0.307  0.4276  0.1788  0.7894
10264TIP3    H152207   5.805   3.613   0.256  0.9696 -0.1696  1.3849
10264TIP3    H252208   5.792   3.763   0.242  0.0925 -0.3304  0.2642
10265TIP3   OH252209   1.065   0.078   3.585 -0.2326 -0.3770  0.2553
10265TIP3    H152210   1.085   0.159   3.632  0.0886 -0.0297 -0.4649
10265TIP3    H252211   1.151   0.039   3.566 -0.3846 -1.9124  2.2854
10266TIP3   OH252212   0.913   3.306  11.889  0.4922 -0.1650 -0.2350
10266TIP3    H152213   0.895   3.229  11.944  1.5753 -0.3427 -0.0983
10266TIP3    H252214   0.962   3.271  11.815  0.7549  0.3534 -0.3071
10267TIP3   OH252215   0.947   5.685   0.860  0.6499  0.0435 -0.1540
10267TIP3    H152216   0.915   5.773   0.840 -0.0101 -0.0344  0.5017
10267TIP3    H252217   0.949   5.640   0.775 -0.8446  0.1081 -0.2488
10268TIP3   OH252218   0.721   1.222   0.473 -0.9408  0.0644 -0.4176
10268TIP3    H152219   0.679   1.164   0.410  0.8230  0.1660 -1.7294
10268TIP3    H252220   0.709   1.310   0.437 -0.9974  0.2502  0.0415
10269TIP3   OH252221   4.277   6.170  14.175  0.2115 -0.9258 -0.1872
10269TIP3    H152222   4.366   6.198  14.194  0.4927 -0.7910 -1.5798
10269TIP3    H252223   4.221   6.232  14.222  0.8462 -0.3250 -0.2190
10270TIP3   OH252224   3.959   2.262  15.651 -0.4099 -0.2354 -0.1825
10270TIP3    H152225   3.929   2.296  15.735  2.6154 -0.0850  0.9369
10270TIP3    H252226   4.026   2.324  15.622 -1.5804 -0.1013 -2.9390
10271TIP3   OH252227   0.397   0.451   6.637  0.5298  0.1171  0.3791
10271TIP3    H152228   0.343   0.460   6.716 -0.1274 -0.7200  0.0456
10271TIP3    H252229   0.347   0.498   6.570  0.6978  0.1656  0.2895
10272TIP3   OH252230   1.364   1.490  15.392 -0.0274  0.1917 -0.6694
10272TIP3    H152231   1.411   1.454  15.316  0.3345 -0.6853 -0.0418
10272TIP3    H252232   1.430   1.497  15.460  0.0090  2.4607 -0.8687
10273TIP3   OH252233   5.980   4.456   2.857 -0.2771  0.0945  0.0122
10273TIP3    H152234   5.970   4.511   2.935 -1.1086  0.9754 -0.6820
10273TIP3    H252235   5.899   4.404   2.855 -0.0724 -0.2236 -0.0459
10274TIP3   OH252236   0.846   4.421  10.407 -0.1968  0.0881  0.4526
10274TIP3    H152237   0.884   4.506  10.429 -1.6438  0.4918  1.5648
10274TIP3    H252238   0.921   4.365  10.390  0.7826  1.6542 -0.6344
10275TIP3   OH252239   6.202   2.602  11.993  0.0891  0.2875  0.6517
10275TIP3    H152240   6.252   2.521  11.983 -0.2651  0.1227  0.1782
10275TIP3    H252241   6.136   2.582  12.059 -0.6749 -0.1540 -0.2168
10276TIP3   OH252242   2.100   4.888   1.355 -0.3041 -0.8509  0.8201
10276TIP3    H152243   2.159   4.865   1.283 -0.0675 -1.6926  1.2752
10276TIP3    H252244   2.014   4.894   1.315  0.0222  0.0166  0.2190
10277TIP3   OH252245   6.574   6.375   2.330  0.1962 -0.1156 -0.3805
10277TIP3    H152246   6.521   6.447   2.363 -0.3949 -0.8457  0.3154
10277TIP3    H252247   6.573   6.386   2.235 -1.5394 -0.2993 -0.4270
10278TIP3   OH252248   4.041   2.713   4.399 -0.0386  0.0305 -0.2396
10278TIP3    H152249   4.027   2.800   4.363 -1.0361 -0.6490 -1.6030
10278TIP3    H252250   3.999   2.654   4.336  0.3858 -1.4165  0.7744
10279TIP3   OH252251   2.081   5.529  13.925  0.3149  0.3373  0.0049
10279TIP3    H152252   2.152   5.472  13.953  0.5518  0.8068  0.3787
10279TIP3    H252253   2.002   5.478  13.939  0.5319  0.0593  0.2224
10280TIP3   OH252254   2.002   6.036   1.173 -0.1353 -0.1085 -0.1933
10280TIP3    H152255   2.076   6.096   1.184 -0.0332 -0.4347  1.0205
10280TIP3    H252256   2.011   5.973   1.245 -0.6684 -1.1388 -0.9860
10281TIP3   OH252257   4.174   2.305  16.723 -0.3153  0.2325  0.2107
10281TIP3    H152258   4.079   2.304  16.710 -0.1594 -1.7921 -1.2588
10281TIP3    H252259   4.197   2.398  16.725 -2.1624  0.7605 -0.7560
10282TIP3   OH252260   5.475   2.531  13.090 -0.1461 -0.1336 -0.6295
10282TIP3    H152261   5.493   2.588  13.165 -1.3237 -2.0963  1.2330
10282TIP3    H252262   5.521   2.450  13.110 -2.1103 -1.3981 -1.0224
10283TIP3   OH252263   5.631   2.661   2.616  0.5024 -0.0004 -0.3404
10283TIP3    H152264   5.660   2.675   2.525  0.6350 -0.8483 -0.4378
10283TIP3    H252265   5.689   2.592   2.649 -0.5074 -0.7485 -0.0875
10284TIP3   OH252266   6.186   6.036  16.141 -0.2178  0.5781  0.3865
10284TIP3    H152267   6.247   6.029  16.068  1.6711  1.1010  1.8378
10284TIP3    H252268   6.201   5.957  16.194 -1.9252 -0.0559 -0.0019
10285TIP3   OH252269   0.946   2.058   4.920 -0.1767 -0.0880  0.6720
10285TIP3    H152270   0.869   2.060   4.865 -0.2600  0.0082  0.7921
10285TIP3    H252271   0.970   2.150   4.932 -0.8591 -0.0344  1.7682
10286TIP3   OH252272   6.695   0.889   0.927  0.3362  0.4799  0.1587
10286TIP3    H152273   6.605   0.899   0.959  0.2675 -0.9015  0.4786
10286TIP3    H252274   6.690   0.911   0.834 -0.3835  0.2008  0.1228
10287TIP3   OH252275   3.799   3.790   2.499  0.1995 -0.1026  0.1680
10287TIP3    H152276   3.848   3.856   2.547 -1.8015  2.3282 -0.8991
10287TIP3    H252277   3.857   3.764   2.428  1.8869 -1.2871  1.8828
10288TIP3   OH252278   6.746   1.700  16.293 -0.8196 -0.4840 -0.0725
10288TIP3    H152279   6.781   1.697  16.204  0.4826 -0.1210  0.4108
10288TIP3    H252280   6.725   1.608  16.313  0.4620 -0.8230 -0.1604
10289TIP3   OH252281   4.443   3.496  12.482 -0.9441 -0.4974  0.1553
10289TIP3    H152282   4.465   3.527  12.395  0.8465 -3.1458 -0.4441
10289TIP3    H252283   4.488   3.557  12.541  2.2330 -1.5518 -0.9497
10290TIP3   OH252284   2.980   0.746  13.170 -0.2235  1.3437  0.1361
10290TIP3    H152285   3.065   0.765  13.212 -0.8308  1.8920  1.1651
10290TIP3    H252286   2.949   0.832  13.141  0.0444  1.0070 -1.2119
10291TIP3   OH252287   0.553   3.958  12.742 -0.4989 -0.3428 -0.7074
10291TIP3    H152288   0.578   4.013  12.668 -2.4690  1.6788  0.0388
10291TIP3    H252289   0.635   3.921  12.774  0.7653  1.3621 -1.8736
10292TIP3   OH252290   2.782   2.566  12.415  0.2247 -0.0798  0.0316
10292TIP3    H152291   2.718   2.497  12.399  0.1957  0.3692 -2.0457
10292TIP3    H252292   2.845   2.527  12.477 -1.1255 -1.0772  0.8243
10293TIP3   OH252293   3.837   3.331   5.894  0.0752  0.1377  0.2638
10293TIP3    H152294   3.814   3.360   5.806 -1.0876 -0.7744  0.2486
10293TIP3    H252295   3.794   3.394   5.952 -1.3901 -0.7755  0.2083
10294TIP3   OH252296   5.494   4.886   5.395  0.0154 -0.3935  0.2761
10294TIP3    H152297   5.573   4.937   5.377  1.2193 -2.4721 -0.6885
10294TIP3    H252298   5.451   4.878   5.310 -0.1936 -0.8734  0.4222
10295TIP3   OH252299   0.897   5.105   6.811  0.0310  0.0293 -0.0179
10295TIP3    H152300   0.828   5.039   6.804  0.2510 -0.0605 -2.0816
10295TIP3    H252301   0.975   5.057   6.836  0.0536 -0.4161 -0.9129
10296TIP3   OH252302   5.351   5.917   4.276  0.1878 -0.6629 -0.7250
10296TIP3    H152303   5.264   5.881   4.261 -0.4796  0.4301  0.3600
10296TIP3    H252304   5.364   5.911   4.371  0.0396  1.8504 -0.4748
10297TIP3   OH252305   1.157   2.895  11.528  0.2199  0.0721 -0.8428
10297TIP3    H152306   1.210   2.826  11.488  0.9867  0.2245 -0.1254
10297TIP3    H252307   1.193   2.976  11.494 -1.5619  0.1228 -2.7561
10298TIP3   OH252308   2.194   1.156   5.376  0.5460 -0.3782  0.0728
10298TIP3    H152309   2.117   1.202   5.409  1.7593  1.0967  1.0236
10298TIP3    H252310   2.221   1.206   5.299  2.9662  1.8991  2.1635
10299TIP3   OH252311   4.708   0.725   0.787 -0.1994 -0.1925  0.4672
10299TIP3    H152312   4.736   0.816   0.795  2.0116 -0.5916 -1.7849
10299TIP3    H252313   4.614   0.728   0.809 -0.0670  2.4823  1.0871
10300TIP3   OH252314   2.271   6.473   5.152 -0.2692 -0.2517  0.6587
10300TIP3    H152315   2.362   6.489   5.177 -0.7855  1.0008  1.9016
10300TIP3    H252316   2.276   6.431   5.066  1.4852 -0.6934  0.9348
10301TIP3   OH252317   2.346   1.350   0.877  0.3844  0.0248 -0.0124
10301TIP3    H152318   2.373   1.306   0.796 -0.9261  0.5483 -0.7615
10301TIP3    H252319   2.348   1.443   0.855 -3.0645  0.0991 -0.5456
10302TIP3   OH252320   6.676   5.736  15.435  0.1061  0.0394 -0.1973
10302TIP3    H152321   6.623   5.697  15.365 -2.0589  2.2603  0.0606
10302TIP3    H252322   6.638   5.701  15.515  1.9696 -1.7508 -0.0064
10303TIP3   OH252323   6.122   4.818  13.133  0.1071 -0.0150  0.0289
10303TIP3    H152324   6.105   4.753  13.064  3.7100 -1.1956  0.0255
10303TIP3    H252325   6.180   4.882  13.092  1.1396  0.0635  1.5457
10304TIP3   OH252326   1.028   5.545   4.944 -0.1990  0.7481 -0.4214
10304TIP3    H152327   1.043   5.496   4.863  2.7741 -0.0760  0.4958
10304TIP3    H252328   0.993   5.630   4.916 -0.3818  0.0407 -2.4390
10305TIP3   OH252329   2.172   5.724   5.816 -0.1427  0.0012 -0.2369
10305TIP3    H152330   2.175   5.649   5.875  2.6618 -0.1522 -0.4159
10305TIP3    H252331   2.147   5.798   5.871 -0.1230 -0.5798  0.5621
10306TIP3   OH252332   1.089   1.021  16.229 -0.3530 -0.2010 -0.1681
10306TIP3    H152333   1.164   0.970  16.261 -0.7120 -2.7540 -2.9026
10306TIP3    H252334   1.127   1.104  16.201  1.0588 -0.5605  0.5772
10307TIP3   OH252335   2.797   4.820  11.519  0.6162  0.0797 -0.1724
10307TIP3    H152336   2.890   4.834  11.535  0.2416 -0.3085  3.0183
10307TIP3    H252337   2.758   4.907  11.522  0.4977  0.0194  2.2329
10308TIP3   OH252338   2.097   4.237   6.360  0.2467 -0.7186 -0.2442
10308TIP3    H152339   2.077   4.149   6.392 -0.6135 -0.3262  0.3194
10308TIP3    H252340   2.056   4.296   6.423  2.5208  0.1455  0.5379
10309TIP3   OH252341   0.333   3.749  16.013  0.0352  0.2552  0.1047
10309TIP3    H152342   0.347   3.730  16.105 -0.0200  0.5131  0.1662
10309TIP3    H252343   0.331   3.845  16.008 -1.2048  0.2408  0.0276
10310TIP3   OH252344   5.217   0.880   3.882  0.1927 -0.5050 -0.5653
10310TIP3    H152345   5.185   0.970   3.888  0.7358 -0.3784  0.9585
10310TIP3    H252346   5.154   0.836   3.825 -0.3107  0.7385 -1.0025
10311TIP3   OH252347   5.637   2.447  15.379  0.5341  0.3370  0.2158
10311TIP3    H152348   5.680   2.393  15.445 -0.0386 -1.0304 -0.4829
10311TIP3    H252349   5.659   2.405  15.296  0.1814  1.2726 -0.3685
10312TIP3   OH252350   5.715   4.562   1.181 -0.1853 -0.6210 -0.0884
10312TIP3    H152351   5.748   4.628   1.119 -1.3460 -1.1982 -1.3844
10312TIP3    H252352   5.748   4.590   1.266 -1.9371  2.5803 -0.3056
10313TIP3   OH252353   2.634   2.731  13.118 -0.0436  0.3413  0.0221
10313TIP3    H152354   2.653   2.798  13.053  2.1555 -1.4269 -1.3244
10313TIP3    H252355   2.544   2.705  13.101 -1.2758  3.4083  1.1523
10314TIP3   OH252356   3.446   2.474   6.144  0.4370  0.6797 -0.1428
10314TIP3    H152357   3.455   2.379   6.158 -0.3773  0.6968  0.5985
10314TIP3    H252358   3.536   2.506   6.145  0.7925 -0.2046 -1.3770
10315TIP3   OH252359   4.507   2.948   5.877 -0.3529 -0.3999  0.0948
10315TIP3    H152360   4.530   3.006   5.804 -2.2991 -1.4760 -1.4615
10315TIP3    H252361   4.574   2.879   5.875 -0.3523 -0.3813 -0.6338
10316TIP3   OH252362   3.223   1.079  16.411  0.5445  0.6061  0.1642
10316TIP3    H152363   3.217   1.059  16.505 -2.7283 -0.8504 -0.2029
10316TIP3    H252364   3.277   1.009  16.374  0.7470  0.4333  0.7733
10317TIP3   OH252365   5.334   1.848   2.036 -0.3599 -0.2731 -0.4987
10317TIP3    H152366   5.289   1.892   2.107  1.0629  0.5329 -0.0640
10317TIP3    H252367   5.387   1.916   1.995  2.6471 -1.6537  0.7845
10318TIP3   OH252368   6.683   0.390  11.718  0.1828 -0.0415 -0.0132
10318TIP3    H152369   6.702   0.478  11.751 -0.1999  0.1960 -0.4114
10318TIP3    H252370   6.673   0.402  11.623 -0.8349 -0.3338  0.0410
10319TIP3   OH252371   5.680   6.045   4.429  0.3706 -0.8298  0.7077
10319TIP3    H152372   5.585   6.030   4.433  0.0331  0.9869  0.3112
10319TIP3    H252373   5.699   6.052   4.336  0.5127  0.8552  0.8360
10320TIP3   OH252374   2.622   2.127   2.611  0.4546  0.3849 -0.1848
10320TIP3    H152375   2.527   2.135   2.599  0.5037 -1.9374 -3.4191
10320TIP3    H252376   2.631   2.074   2.690 -1.0209 -0.2010 -0.3637
10321TIP3   OH252377   6.105   0.235   2.499  0.0104  0.2033 -0.3983
10321TIP3    H152378   6.038   0.284   2.547 -1.5260 -0.3188 -1.8871
10321TIP3    H252379   6.159   0.301   2.458 -0.7374  0.6557 -0.6687
10322TIP3   OH252380   5.259   2.270  10.953  0.0673  0.6754  0.0211
10322TIP3    H152381   5.344   2.226  10.964 -0.6574 -0.5310  1.1145
10322TIP3    H252382   5.247   2.321  11.033 -1.3109 -1.1680  1.0903
10323TIP3   OH252383   4.520   3.242  11.553  0.5386  0.2223  0.1255
10323TIP3    H152384   4.615   3.238  11.565  0.2977  1.3592  3.1651
10323TIP3    H252385   4.494   3.150  11.541  1.9136 -0.1700 -0.0750
10324TIP3   OH252386   3.927   6.309  13.634 -0.1265  0.0369 -1.1478
10324TIP3    H152387   3.974   6.237  13.592  1.8912 -1.1744  2.6924
10324TIP3    H252388   3.858   6.267  13.685  0.2106  0.8813  0.0745
10325TIP3   OH252389   4.523   6.308   3.423 -0.2193  0.0566 -0.5567
10325TIP3    H152390   4.610   6.328   3.458 -0.2206 -0.6576 -0.1236
10325TIP3    H252391   4.506   6.219   3.452 -0.9063  0.0273 -1.0344
10326TIP3   OH252392   2.951   5.631  11.686 -0.5038  0.0850 -0.0657
10326TIP3    H152393   2.956   5.726  11.677  0.8438  0.3191  2.3037
10326TIP3    H252394   2.892   5.603  11.615 -1.1061  2.6716 -0.6891
10327TIP3   OH252395   5.819   0.672  17.176 -0.3038 -0.1520 -0.0692
10327TIP3    H152396   5.781   0.614  17.242 -1.0472  0.2510 -0.1337
10327TIP3    H252397   5.778   0.646  17.094 -0.6477  0.4693 -0.0961
10328TIP3   OH252398   5.990   2.779  13.014 -0.1886 -0.6010  0.4459
10328TIP3    H152399   6.041   2.779  13.094 -0.8861  0.7682  0.9266
10328TIP3    H252400   5.917   2.720  13.032 -0.0356 -0.7461  0.5972
10329TIP3   OH252401   5.273   1.709   2.340  0.2892  0.3587 -0.1514
10329TIP3    H152402   5.193   1.690   2.389 -0.8420  1.5338 -1.4430
10329TIP3    H252403   5.305   1.624   2.310  0.2492 -0.2411  1.4458
10330TIP3   OH252404   4.134   4.421   0.906  0.2161 -0.3441  0.5496
10330TIP3    H152405   4.110   4.480   0.977  2.2888  2.7678 -1.0852
10330TIP3    H252406   4.054   4.411   0.855 -0.2799  0.7904  1.0708
10331TIP3   OH252407   0.814   0.954  13.207  0.0799  0.9459 -0.6540
10331TIP3    H152408   0.843   0.874  13.250  0.3636  0.4438 -1.7246
10331TIP3    H252409   0.719   0.945  13.200  0.1580  0.4566 -1.2110
10332TIP3   OH252410   4.362   4.432  13.984  0.0288 -0.7085 -0.5539
10332TIP3    H152411   4.338   4.339  13.978  0.1934 -0.7523 -0.5483
10332TIP3    H252412   4.408   4.439  14.068 -1.7282 -0.2224  0.4227
10333TIP3   OH252413   3.828   1.102  11.273 -0.1996  0.4468  0.5516
10333TIP3    H152414   3.749   1.055  11.245  0.6739 -0.2227 -0.9172
10333TIP3    H252415   3.883   1.104  11.195  1.2225  0.9710  1.5320
10334TIP3   OH252416   5.071   3.333  13.726  0.5336 -0.3829 -0.1694
10334TIP3    H152417   5.030   3.271  13.787 -1.4863  0.7675 -0.2723
10334TIP3    H252418   5.018   3.328  13.647  0.1403  1.5910 -0.0940
10335TIP3   OH252419   6.600   2.606   1.014 -0.6099 -0.1163  0.1897
10335TIP3    H152420   6.687   2.572   1.038  0.3000  1.1491 -1.1472
10335TIP3    H252421   6.618   2.674   0.949 -2.7150 -0.8420 -1.2396
10336TIP3   OH252422   3.302   1.836  15.263  0.2339 -0.6772  0.1915
10336TIP3    H152423   3.359   1.906  15.231 -0.2913  0.2425  1.1914
10336TIP3    H252424   3.300   1.772  15.191  1.9890 -0.4410 -0.1202
10337TIP3   OH252425   4.793   3.051  13.294 -0.3568 -0.1219  0.5766
10337TIP3    H152426   4.800   2.961  13.262 -3.1097  0.2667 -1.5093
10337TIP3    H252427   4.870   3.095  13.257 -0.0417 -1.1822 -0.0933
10338TIP3   OH252428   1.371   1.755  13.262 -0.5615  0.4940  0.2275
10338TIP3    H152429   1.445   1.739  13.203  1.5765 -0.8028  3.0413
10338TIP3    H252430   1.365   1.851  13.266  1.5759  0.6569  0.5918
10339TIP3   OH252431   0.641   6.046   0.071  0.0972 -0.3770 -0.4226
10339TIP3    H152432   0.652   5.986  -0.003  1.0083 -0.8639  0.0932
10339TIP3    H252433   0.729   6.055   0.108 -0.2857  0.1469  0.3823
10340TIP3   OH252434   3.470   6.125   0.862  0.1983 -0.5773  0.2151
10340TIP3    H152435   3.404   6.055   0.857 -0.3134 -0.1432  0.7105
10340TIP3    H252436   3.534   6.102   0.794 -0.7106 -0.7512 -0.6104
10341TIP3   OH252437   3.763   2.613  12.033 -0.5297  0.2825 -0.5351
10341TIP3    H152438   3.737   2.568  11.953 -0.4702  0.2653 -0.5446
10341TIP3    H252439   3.828   2.677  12.005  2.6884 -2.4912  0.0072
10342TIP3   OH252440   0.893   2.723  12.288  0.5055  0.2534  0.4057
10342TIP3    H152441   0.933   2.736  12.202 -0.3739 -1.1197 -0.2338
10342TIP3    H252442   0.877   2.812  12.320  1.7508  0.7990 -0.3974
10343TIP3   OH252443   5.868   6.581  15.265 -0.6926 -0.4919 -0.9403
10343TIP3    H152444   5.793   6.521  15.264 -1.3400  0.2968 -1.7548
10343TIP3    H252445   5.830   6.667  15.245  0.0146  0.4395  1.3919
10344TIP3   OH252446   5.531   6.132   2.865 -0.6468  0.2006  0.4930
10344TIP3    H152447   5.551   6.118   2.773 -0.6440  2.6458  0.0745
10344TIP3    H252448   5.518   6.044   2.900 -0.8338 -0.7685 -1.8578
10345TIP3   OH252449   3.579   5.863  14.571  0.5707 -0.0492 -0.3907
10345TIP3    H152450   3.653   5.814  14.535  0.9912  0.7407 -0.6073
10345TIP3    H252451   3.540   5.803  14.635  2.4690  0.1832  1.0443
10346TIP3   OH252452   5.499   0.620  11.866  0.5300 -0.0968  0.2032
10346TIP3    H152453   5.433   0.604  11.799 -0.4328  3.2578  0.1423
10346TIP3    H252454   5.461   0.585  11.947  0.7316 -2.1816 -0.5500
10347TIP3   OH252455   1.179   6.644   6.166 -0.3585 -0.2931 -0.4337
10347TIP3    H152456   1.097   6.693   6.177 -0.5360 -0.7821  0.6428
10347TIP3    H252457   1.208   6.627   6.256 -0.6672 -2.7334 -0.7270
10348TIP3   OH252458   0.979   2.132  11.276 -0.6527  0.5349  0.2473
10348TIP3    H152459   0.944   2.045  11.257  1.2237 -0.1787 -0.1701
10348TIP3    H252460   0.926   2.191  11.223  1.0122 -0.8692 -3.3469
10349TIP3   OH252461   0.992   6.366   0.895  0.3019 -0.2215 -0.2625
10349TIP3    H152462   0.924   6.394   0.834 -1.2005 -2.1916  0.3861
10349TIP3    H252463   1.073   6.370   0.845 -0.4081  1.3101 -1.3456
10350TIP3   OH252464   6.541   2.081  10.664  0.3140  0.0105 -0.1433
10350TIP3    H152465   6.590   2.163  10.668  1.0968 -0.4989  1.6588
10350TIP3    H252466   6.590   2.020  10.719 -0.6880 -1.4441 -0.7766
10351TIP3   OH252467   3.825   5.837  12.718 -0.1884  0.0762  1.2359
10351TIP3    H152468   3.887   5.848  12.790 -0.3657  1.8106  1.1504
10351TIP3    H252469   3.838   5.913  12.662 -1.2499 -0.3773  0.3221
10352TIP3   OH252470   4.113   0.582   4.435 -0.0093 -0.0904  0.2330
10352TIP3    H152471   4.137   0.559   4.524  0.3471  0.1375  0.1941
10352TIP3    H252472   4.196   0.597   4.390 -0.1324 -1.2462 -0.4155
10353TIP3   OH252473   3.713   3.499   3.461 -0.0002  0.0543  0.3184
10353TIP3    H152474   3.761   3.579   3.438  1.9681 -1.4213 -1.0325
10353TIP3    H252475   3.621   3.523   3.450  0.5953  1.6339 -1.9896
10354TIP3   OH252476   5.155   4.997   1.514  0.0845  0.5849  0.2905
10354TIP3    H152477   5.102   5.034   1.444  0.5803 -0.8911 -0.9288
10354TIP3    H252478   5.133   5.050   1.591 -2.4769  0.6130 -0.3436
10355TIP3   OH252479   5.962   5.994   2.063 -0.6354  0.0531 -0.5148
10355TIP3    H152480   6.027   5.977   2.131 -0.4033  0.4196 -0.6390
10355TIP3    H252481   6.014   6.028   1.989 -1.1268  1.8746 -0.0746
10356TIP3   OH252482   5.902   2.770  15.774  0.0640  0.5805 -0.2234
10356TIP3    H152483   5.878   2.860  15.752  0.2762  0.3896 -1.2794
10356TIP3    H252484   5.990   2.760  15.738  0.1241  0.0154  0.0753
10357TIP3   OH252485   4.863   5.194  13.667  0.0909 -0.0495  0.3630
10357TIP3    H152486   4.957   5.180  13.678  0.2601 -0.5349 -1.3967
10357TIP3    H252487   4.849   5.285  13.694  1.7778  1.3198 -2.8402
10358TIP3   OH252488   2.115   2.848   2.016  0.3288 -0.2331 -0.5247
10358TIP3    H152489   2.089   2.939   1.996  1.2930  0.2410  0.3048
10358TIP3    H252490   2.189   2.831   1.958 -0.3133 -0.7657 -1.2082
10359TIP3   OH252491   5.703   1.505  10.847  0.6298  0.1780  0.0428
10359TIP3    H152492   5.675   1.517  10.938  0.9196 -0.9088  0.2945
10359TIP3    H252493   5.625   1.473  10.802  0.2698  1.4773 -0.2819
10360TIP3   OH252494   4.958   2.302   2.443 -0.2541 -0.5103  0.0904
10360TIP3    H152495   4.999   2.349   2.516 -1.3772  1.3085 -0.3668
10360TIP3    H252496   5.030   2.284   2.383  0.4445 -0.6907  0.9623
10361TIP3   OH252497   4.017   5.439  17.321  0.2667 -0.8617 -0.5597
10361TIP3    H152498   4.051   5.505  17.382  0.1598 -0.0231 -1.3794
10361TIP3    H252499   4.053   5.464  17.236  0.6066 -2.1496 -0.8134
10362TIP3   OH252500   1.604   2.883  17.190 -0.1955  0.0556  0.3407
10362TIP3    H152501   1.576   2.794  17.171 -0.5562  0.1851  0.2692
10362TIP3    H252502   1.524   2.936  17.184 -0.4212  0.0616  2.5189
10363TIP3   OH252503   3.010   5.154  12.413  0.2543  0.1516 -0.1665
10363TIP3    H152504   3.086   5.177  12.358  1.3219 -0.4652  0.9929
10363TIP3    H252505   2.942   5.131  12.351  1.3574 -0.3189 -1.2505
10364TIP3   OH252506   2.630   5.306  11.090  0.1285  0.0192  0.0750
10364TIP3    H152507   2.649   5.327  10.998 -0.7616  1.4241  0.1853
10364TIP3    H252508   2.550   5.254  11.087 -0.2682  0.6193  0.0816
10365TIP3   OH252509   3.791   6.045   1.424 -0.0074  0.6006 -0.6255
10365TIP3    H152510   3.785   5.963   1.374  2.5332  0.0943 -0.2545
10365TIP3    H252511   3.847   6.101   1.371  1.4132  0.6494  0.8607
10366TIP3   OH252512   1.465   2.209  13.099  0.0177 -0.0342  0.3090
10366TIP3    H152513   1.417   2.259  13.165 -0.9989  0.1759 -0.5649
10366TIP3    H252514   1.466   2.265  13.021  0.5257 -0.5896 -0.1037
10367TIP3   OH252515   6.319   6.223  12.012 -0.0248 -0.3806  0.2583
10367TIP3    H152516   6.275   6.160  12.069 -1.3843  2.2309  2.2922
10367TIP3    H252517   6.251   6.255  11.953  0.8971 -1.4642 -1.5087
10368TIP3   OH252518   4.837   1.824  15.740  0.0207 -0.5675 -0.5757
10368TIP3    H152519   4.882   1.894  15.694  0.3528 -0.7466 -0.5219
10368TIP3    H252520   4.774   1.869  15.796  1.4352 -0.2074  0.7872
10369TIP3   OH252521   5.646   5.483   5.550 -0.4122 -0.2625  0.1702
10369TIP3    H152522   5.624   5.576   5.543  2.0559  0.4134  0.5012
10369TIP3    H252523   5.694   5.464   5.469 -0.5946 -1.1726  0.2685
10370TIP3   OH252524   5.468   2.084   0.987  0.0747 -0.2319  1.1715
10370TIP3    H152525   5.534   2.133   0.936 -1.5938  1.0853  0.1622
10370TIP3    H252526   5.460   2.000   0.941  0.3071  0.0149  0.6656
10371TIP3   OH252527   1.954   3.276  16.007 -0.2546 -0.1362 -0.2499
10371TIP3    H152528   2.035   3.224  16.012  0.2925  0.6613 -0.6747
10371TIP3    H252529   1.903   3.246  16.082  1.4545  1.0369  1.4713
10372TIP3   OH252530   0.337   0.555   2.783  0.1971  0.4845  0.1757
10372TIP3    H152531   0.337   0.642   2.744 -0.2270  0.6407  0.5289
10372TIP3    H252532   0.279   0.503   2.727 -1.3935  1.0141  1.2593
10373TIP3   OH252533   6.515   3.168  13.294 -0.4430 -0.0478 -0.0142
10373TIP3    H152534   6.583   3.161  13.227 -0.0806  0.5520  0.2867
10373TIP3    H252535   6.447   3.107  13.265 -0.4509  0.4572 -1.1197
10374TIP3   OH252536   1.470   4.062  16.963  0.3922  0.2763 -0.5224
10374TIP3    H152537   1.459   3.968  16.947 -0.5914 -0.0155  1.5561
10374TIP3    H252538   1.387   4.101  16.938 -0.0147  0.2441  0.6990
10375TIP3   OH252539   0.387   4.980   0.646  0.8493 -0.1355  0.4240
10375TIP3    H152540   0.391   4.914   0.715  0.6663  1.3115  1.9071
10375TIP3    H252541   0.462   5.037   0.663 -0.2550  1.3382  0.6527
10376TIP3   OH252542   3.441   0.024  14.235  0.1645 -0.4231  0.5468
10376TIP3    H152543   3.386  -0.003  14.161  0.3849  1.4372 -0.3740
10376TIP3    H252544   3.528  -0.008  14.212  0.2320  0.1392 -0.0357
10377TIP3   OH252545   6.547   4.906  12.005 -0.1412  0.9301  0.0455
10377TIP3    H152546   6.546   5.001  12.009  0.0923  0.9568 -0.4563
10377TIP3    H252547   6.538   4.878  12.097 -0.8988  1.4179  0.1267
10378TIP3   OH252548   2.041   6.360   0.265 -0.1456  0.5644 -0.6331
10378TIP3    H152549   1.977   6.327   0.202 -0.5466 -0.2196  0.1531
10378TIP3    H252550   2.126   6.335   0.229 -0.4536 -2.3463  0.3913
10379TIP3   OH252551   6.672   2.805  13.264 -0.5252 -0.1562 -0.3687
10379TIP3    H152552   6.586   2.842  13.243  0.2225  2.4736  0.7482
10379TIP3    H252553   6.663   2.771  13.353  0.2838  3.0375  1.0717
10380TIP3   OH252554   4.100   6.274  12.745  0.1599 -0.1266  0.1993
10380TIP3    H152555   4.101   6.265  12.840 -0.0604  1.2671  0.3477
10380TIP3    H252556   4.154   6.350  12.726 -1.2612  0.7352 -0.6351
10381TIP3   OH252557   2.691   1.657  12.985 -0.5189 -0.4190  0.3365
10381TIP3    H152558   2.646   1.643  13.068  0.0173 -1.5340  0.4561
10381TIP3    H252559   2.731   1.572  12.965 -0.2761 -0.0406 -0.8408
10382TIP3   OH252560   1.552   2.065  16.828  0.0319  0.6943  0.1848
10382TIP3    H152561   1.587   1.980  16.803 -0.4647  0.2161  1.1041
10382TIP3    H252562   1.545   2.062  16.923 -2.6141  0.7003  0.0641
10383TIP3   OH252563   3.010   6.266   6.365 -0.1039 -0.0692 -0.1392
10383TIP3    H152564   2.932   6.211   6.350  0.0757 -0.4644  0.3516
10383TIP3    H252565   3.068   6.245   6.292  0.2712 -1.0993  0.4373
10384TIP3   OH252566   1.426   0.345  16.431 -0.2081  0.0057  0.2772
10384TIP3    H152567   1.424   0.440  16.417  0.8337 -0.0930 -0.7884
10384TIP3    H252568   1.479   0.334  16.510  1.4901  0.2598 -0.7720
10385TIP3   OH252569   3.162   6.739  14.862 -0.6341 -0.0473 -0.9770
10385TIP3    H152570   3.091   6.695  14.908 -0.3046  0.4785  0.0777
10385TIP3    H252571   3.175   6.688  14.782  0.7962 -2.8946  0.9135
10386TIP3   OH252572   2.554   2.607  14.450 -0.1559 -0.5541 -0.0036
10386TIP3    H152573   2.541   2.513  14.444 -0.9129 -0.3980 -0.9780
10386TIP3    H252574   2.480   2.646  14.404 -0.3420  0.5557  1.1457
10387TIP3   OH252575   3.589   0.452   2.469  0.2752  0.3327 -0.1885
10387TIP3    H152576   3.671   0.500   2.484  0.2005  0.8273 -1.2556
10387TIP3    H252577   3.593   0.378   2.529  1.1245  0.8075  0.3629
10388TIP3   OH252578   5.648   6.260  11.084 -0.4442 -0.4654  0.5769
10388TIP3    H152579   5.681   6.224  11.002 -1.3915 -1.9078  0.8033
10388TIP3    H252580   5.620   6.349  11.061  0.1746 -0.5135 -0.4321
10389TIP3   OH252581   4.134   5.929  14.331  0.0922  0.0578 -0.1533
10389TIP3    H152582   4.095   5.971  14.254  0.2584  2.3077  0.8996
10389TIP3    H252583   4.099   5.840  14.331  0.3506 -0.1255 -2.9845
10390TIP3   OH252584   3.063   5.935  15.677 -0.2402 -0.0700 -0.1308
10390TIP3    H152585   3.078   5.890  15.760  3.1133 -1.9265 -1.5591
10390TIP3    H252586   3.009   5.874  15.626 -0.6569  0.1999 -0.0181
10391TIP3   OH252587   4.712   0.797  15.630 -0.4065  0.0023 -0.5795
10391TIP3    H152588   4.666   0.881  15.639  0.4512  0.3651  0.6495
10391TIP3    H252589   4.805   0.819  15.635 -0.1769 -1.1591  1.4418
10392TIP3   OH252590   0.962   4.568   1.496  0.1819 -0.2723  0.2899
10392TIP3    H152591   0.958   4.480   1.460  1.4777 -0.3556  0.2959
10392TIP3    H252592   1.052   4.598   1.478 -0.0131  0.7621  0.9222
10393TIP3   OH252593   4.358   6.691   3.053  0.9372 -0.3348 -0.3308
10393TIP3    H152594   4.298   6.760   3.082  2.2079  0.1172  1.4065
10393TIP3    H252595   4.395   6.724   2.971  0.0199  0.0942 -0.5902
10394TIP3   OH252596   6.096   5.516  11.761  0.2237  0.5819 -0.4207
10394TIP3    H152597   6.154   5.584  11.795  0.0855 -0.4871  2.1288
10394TIP3    H252598   6.156   5.448  11.729  0.4077  0.1328  0.8329
10395TIP3   OH252599   5.709   0.914   3.998  0.0015  0.7820  1.1560
10395TIP3    H152600   5.672   0.979   3.939  0.3630  0.4433  0.5435
10395TIP3    H252601   5.633   0.876   4.043 -0.5218 -0.4796 -0.6683
10396TIP3   OH252602   1.778   0.327  14.970 -0.3871 -0.3209  0.0194
10396TIP3    H152603   1.706   0.355  14.914 -0.5468  0.6346  0.6789
10396TIP3    H252604   1.774   0.231  14.969 -0.5981 -0.3061 -1.3144
10397TIP3   OH252605   4.950   1.745  10.548  0.1411  0.2978  0.6413
10397TIP3    H152606   4.903   1.825  10.523 -0.3885  0.7909  3.0166
10397TIP3    H252607   4.881   1.678  10.555  0.5601 -0.3896 -1.1767
10398TIP3   OH252608   0.039   1.861  14.403  0.2425 -0.3127  1.0591
10398TIP3    H152609   0.047   1.825  14.315  0.8397  1.8659  0.1720
10398TIP3    H252610  -0.032   1.810  14.443 -1.0772 -0.3612 -1.1984
10399TIP3   OH252611   2.585   4.379  12.749 -0.0994  0.2699  0.1551
10399TIP3    H152612   2.680   4.387  12.744 -0.1640  0.3351 -1.4973
10399TIP3    H252613   2.568   4.285  12.747 -0.1244  0.2749 -1.9917
10400TIP3   OH252614   0.447   4.806  15.233  0.2278 -0.5603  0.3099
10400TIP3    H152615   0.491   4.732  15.190  2.4887  0.6863  0.3512
10400TIP3    H252616   0.515   4.871  15.246 -1.7957  1.8530 -0.2780
10401TIP3   OH252617   0.342   3.362  13.902 -0.1205  0.2697 -0.5698
10401TIP3    H152618   0.398   3.431  13.937  1.3175 -0.9307 -0.4050
10401TIP3    H252619   0.381   3.340  13.817 -1.4477  0.6747 -1.3112
10402TIP3   OH252620   1.906   3.309   1.376 -0.0011  0.0283 -0.2823
10402TIP3    H152621   1.947   3.296   1.291  1.0975 -1.5539  0.4425
10402TIP3    H252622   1.820   3.269   1.368  0.4307 -0.8896 -0.4007
10403TIP3   OH252623   5.157   0.434   1.815  0.0101 -0.3236 -0.2482
10403TIP3    H152624   5.096   0.379   1.864 -1.1476  0.9479 -0.2145
10403TIP3    H252625   5.237   0.432   1.867 -0.1824 -1.5148  0.0371
10404TIP3   OH252626   1.721   3.821   3.547  0.5473 -0.2512 -0.2620
10404TIP3    H152627   1.695   3.784   3.462  0.6134  0.0066 -0.3939
10404TIP3    H252628   1.692   3.756   3.611 -2.0150  0.8076 -0.2480
10405TIP3   OH252629   1.343   3.098  12.144  0.2605 -0.4651 -0.4257
10405TIP3    H152630   1.277   3.149  12.098 -0.2168 -0.1278  0.5933
10405TIP3    H252631   1.370   3.031  12.082  1.1309  1.1976 -1.9087
10406TIP3   OH252632   6.739   2.778  12.010 -0.4769 -0.2803  0.0669
10406TIP3    H152633   6.659   2.732  12.034 -0.0168 -0.3225  1.6228
10406TIP3    H252634   6.710   2.851  11.956 -1.6168  0.0159  1.0485
10407TIP3   OH252635   3.756   3.594   5.182  0.2462 -0.0639  0.3637
10407TIP3    H152636   3.794   3.511   5.154  0.2959  0.5361 -1.4974
10407TIP3    H252637   3.829   3.657   5.177 -0.3324  0.5684 -0.7486
10408TIP3   OH252638   6.575   4.584  15.092  0.0224  0.6236  0.7221
10408TIP3    H152639   6.602   4.541  15.010  0.1698 -0.4418  1.3160
10408TIP3    H252640   6.536   4.514  15.144 -1.3692  1.5720  1.0090
10409TIP3   OH252641   3.339   1.424   4.219  0.3710  0.1636 -0.6378
10409TIP3    H152642   3.256   1.388   4.251  1.1379  0.5872  2.0727
10409TIP3    H252643   3.318   1.514   4.196 -0.1339 -0.0303 -0.9501
10410TIP3   OH252644   3.994   2.725  12.947  0.1842  0.0270 -0.5182
10410TIP3    H152645   3.948   2.702  13.028 -0.4201  0.6449 -0.6754
10410TIP3    H252646   3.953   2.670  12.880 -0.1968  0.4292 -0.6217
10411TIP3   OH252647   0.016   1.698   4.295  0.5814 -0.1386  0.1460
10411TIP3    H152648  -0.036   1.690   4.375 -0.7455  1.8883 -0.4416
10411TIP3    H252649  -0.040   1.747   4.235  2.1846 -0.1858 -1.4647
10412TIP3   OH252650   3.363   0.256  10.717 -0.7243  0.4160 -0.0120
10412TIP3    H152651   3.445   0.299  10.691 -0.8694  0.7352  0.0539
10412TIP3    H252652   3.318   0.322  10.770 -0.9584  0.1874  0.0718
10413TIP3   OH252653   0.037   4.058   4.430 -0.5921 -0.0152 -0.0308
10413TIP3    H152654   0.071   4.102   4.352 -0.8755 -0.1286 -0.2203
10413TIP3    H252655   0.088   4.094   4.503  1.5432 -1.8570 -0.5308
10414TIP3   OH252656   0.997   0.442   3.785 -0.0554 -0.1286  0.8063
10414TIP3    H152657   0.960   0.507   3.726  0.2828 -0.3675  0.3218
10414TIP3    H252658   1.060   0.490   3.838  1.0016 -0.2598 -0.2999
10415TIP3   OH252659   2.101   4.046   3.484 -0.5599  0.0133 -0.0522
10415TIP3    H152660   2.006   4.052   3.477 -0.6865  0.8169  1.7189
10415TIP3    H252661   2.120   4.075   3.573  1.4183  0.6695 -0.6321
10416TIP3   OH252662   1.162   5.470   1.757 -0.6568  0.3344  0.0393
10416TIP3    H152663   1.121   5.533   1.697  0.2193 -1.9688 -3.2297
10416TIP3    H252664   1.231   5.520   1.801 -2.4069  2.5342  0.4709
10417TIP3   OH252665   1.289   4.383  12.500  0.5009  0.0321 -0.5542
10417TIP3    H152666   1.383   4.379  12.521  0.2012  1.4347  1.3677
10417TIP3    H252667   1.260   4.292  12.501  1.3234 -0.2748  1.6492
10418TIP3   OH252668   1.417   6.729  14.114  0.9682 -0.5016  0.5788
10418TIP3    H152669   1.460   6.780  14.046  0.1572  0.3783  0.7063
10418TIP3    H252670   1.324   6.729  14.090  0.8693 -1.4082  0.9110
10419TIP3   OH252671   2.555   2.955   3.733 -0.4747  0.1399 -0.2384
10419TIP3    H152672   2.460   2.957   3.739 -0.8434 -4.0610 -1.3552
10419TIP3    H252673   2.574   2.971   3.641 -0.1775  0.0241 -0.1978
10420TIP3   OH252674   2.751   2.205   4.108  0.1171 -1.1620 -0.2116
10420TIP3    H152675   2.733   2.174   4.019 -0.6300 -1.0617 -0.1026
10420TIP3    H252676   2.764   2.299   4.098 -2.6977 -0.6264  0.0979
10421TIP3   OH252677   0.844   5.198  15.575  0.2196  0.0757  0.4899
10421TIP3    H152678   0.828   5.106  15.600  1.5905 -0.5425 -0.7657
10421TIP3    H252679   0.779   5.215  15.507  0.6820 -0.3447 -0.0685
10422TIP3   OH252680   5.043   0.508  16.812 -0.0879  0.6728  0.5625
10422TIP3    H152681   5.094   0.479  16.737 -0.4763 -0.8525  0.8605
10422TIP3    H252682   4.954   0.514  16.779 -0.2606 -0.0104  0.8920
10423TIP3   OH252683   2.134   5.556   0.418 -0.1645 -0.2647 -0.4444
10423TIP3    H152684   2.181   5.537   0.500  0.0460 -0.0943 -0.5248
10423TIP3    H252685   2.070   5.485   0.411 -0.0231 -0.4157 -0.2525
10424TIP3   OH252686   2.829   5.004  16.767  0.3296  0.0107  0.1873
10424TIP3    H152687   2.795   4.928  16.720 -0.6438  1.4319 -1.5666
10424TIP3    H252688   2.916   5.019  16.728 -0.1492  0.7111 -0.6704
10425TIP3   OH252689   2.356   3.132  12.047  0.4512 -0.3870  0.0982
10425TIP3    H152690   2.302   3.055  12.028  0.4430 -1.4442  3.6996
10425TIP3    H252691   2.293   3.204  12.053  0.3134 -0.2590 -2.0158
10426TIP3   OH252692   1.333   2.563  15.069  0.1514  0.1332 -0.0370
10426TIP3    H152693   1.291   2.564  14.983 -0.0144 -1.5116 -0.0097
10426TIP3    H252694   1.365   2.652  15.081  2.2405 -0.0999 -2.8455
10427TIP3   OH252695   2.357   0.275   1.041 -0.2020 -0.1638  0.0138
10427TIP3    H152696   2.407   0.201   1.006  1.1834  0.5747  0.3795
10427TIP3    H252697   2.344   0.253   1.134  0.2147  0.0628  0.1238
10428TIP3   OH252698   3.137   3.017  14.265 -0.5243  1.1281  0.1010
10428TIP3    H152699   3.201   3.088  14.276  1.0172 -0.3084  0.6779
10428TIP3    H252700   3.155   2.982  14.178 -0.5072  0.6659  0.2928
10429TIP3   OH252701   0.606   5.099   6.535  0.2569  0.1310  0.0266
10429TIP3    H152702   0.656   5.120   6.614  0.8804 -0.9214 -0.0693
10429TIP3    H252703   0.636   5.012   6.510 -2.1884 -0.9031  0.4096
10430TIP3   OH252704   5.274   0.912   1.080 -0.1894 -0.2124 -0.7885
10430TIP3    H152705   5.364   0.944   1.075 -0.6391  0.8817 -2.8169
10430TIP3    H252706   5.224   0.987   1.110 -0.4762 -0.7646  0.1499
10431TIP3   OH252707   5.743   1.482  12.161  0.7119  0.6326 -0.3769
10431TIP3    H152708   5.805   1.417  12.127 -1.7042 -2.6914  0.9714
10431TIP3    H252709   5.668   1.476  12.102 -0.1263  1.0879  0.6076
10432TIP3   OH252710   1.006   3.106  13.726 -0.1621 -0.0287 -0.2071
10432TIP3    H152711   0.968   3.118  13.813  0.7861  0.0288  0.2110
10432TIP3    H252712   1.078   3.168  13.722 -0.1541 -0.0715 -1.0232
10433TIP3   OH252713   1.966   1.285   2.119  0.2533 -0.5638  0.6401
10433TIP3    H152714   1.991   1.198   2.087  0.6624 -0.3333  0.3257
10433TIP3    H252715   1.892   1.310   2.064  1.2631  0.0444 -0.5081
10434TIP3   OH252716   4.485   2.501  12.506  0.1005  0.2472  0.2782
10434TIP3    H152717   4.549   2.569  12.484  0.3638 -0.3656 -0.9704
10434TIP3    H252718   4.537   2.424  12.527 -0.1864  0.5331  2.1857
10435TIP3   OH252719   4.695   3.325  13.932 -0.2272 -0.6927 -0.1313
10435TIP3    H152720   4.732   3.403  13.973  0.4019 -0.0834 -1.7635
10435TIP3    H252721   4.771   3.272  13.906 -0.6443 -2.1425  1.4025
10436TIP3   OH252722   3.589   4.680   3.153 -0.2451 -0.4454 -0.2504
10436TIP3    H152723   3.561   4.606   3.205 -0.6911  0.5874  1.0424
10436TIP3    H252724   3.685   4.676   3.154 -0.2533 -0.5610  0.4992
10437TIP3   OH252725   4.965   1.006   2.434  0.5241  0.0603 -0.4419
10437TIP3    H152726   4.986   1.030   2.344 -1.4922  1.7516 -0.5417
10437TIP3    H252727   4.916   0.924   2.426 -0.4767  0.6945 -1.0023
10438TIP3   OH252728   0.085   6.104  12.912  0.0950  0.0286 -0.2131
10438TIP3    H152729  -0.002   6.125  12.949  0.4210  2.9948 -0.8669
10438TIP3    H252730   0.074   6.114  12.818  0.7250 -1.5400 -0.4804
10439TIP3   OH252731   5.387   2.840  11.140 -0.0209  0.1120  0.2189
10439TIP3    H152732   5.475   2.865  11.112  0.6426  0.4327  2.3735
10439TIP3    H252733   5.342   2.923  11.156 -0.1819 -0.0453  0.6173
10440TIP3   OH252734   5.354   0.062  14.662 -0.0937  0.1283 -0.4649
10440TIP3    H152735   5.426   0.027  14.609  0.3790 -1.7239  1.2966
10440TIP3    H252736   5.279   0.007  14.639 -0.1700  0.0661 -0.0743
10441TIP3   OH252737   6.342   4.152  11.162  0.1596  0.0670  0.3619
10441TIP3    H152738   6.369   4.175  11.250  2.1603  0.3304 -0.2712
10441TIP3    H252739   6.319   4.236  11.121 -3.9702 -0.2664  1.4779
10442TIP3   OH252740   5.154   2.765   3.809 -0.1416  0.1873  0.5046
10442TIP3    H152741   5.239   2.786   3.848  0.4833 -0.2760 -0.5476
10442TIP3    H252742   5.096   2.749   3.883  0.6546  0.6427  1.2411
10443TIP3   OH252743   4.034   6.566  13.684  0.3340 -0.0202  0.0302
10443TIP3    H152744   3.993   6.485  13.654  0.7256 -0.9143  1.7788
10443TIP3    H252745   4.067   6.546  13.772  1.8933  1.5548 -0.1322
10444TIP3   OH252746   2.117   4.656  15.835  0.3462 -0.2257 -0.5265
10444TIP3    H152747   2.161   4.650  15.920  0.6379  0.8530 -0.5914
10444TIP3    H252748   2.182   4.624  15.772  1.9718  3.3785 -0.8988
10445TIP3   OH252749   3.238   5.189  15.090 -0.1738 -0.6251 -0.2563
10445TIP3    H152750   3.324   5.222  15.114 -0.7573  0.5237  0.3307
10445TIP3    H252751   3.236   5.193  14.994  0.8561 -1.8382 -0.3517
10446TIP3   OH252752   3.569   2.612   4.651 -0.4660 -1.0294 -0.3731
10446TIP3    H152753   3.628   2.625   4.577  3.2109 -0.2169  2.4068
10446TIP3    H252754   3.539   2.700   4.674  0.3548 -0.9488  0.4656
10447TIP3   OH252755   6.140   5.270  15.078 -0.3308  0.1180 -0.1631
10447TIP3    H152756   6.213   5.299  15.023  1.4778 -1.0024  1.4899
10447TIP3    H252757   6.075   5.236  15.016  1.1531 -0.1372 -1.6550
10448TIP3   OH252758   4.461   1.988   5.290 -0.0205  0.2676 -0.6683
10448TIP3    H152759   4.444   1.893   5.291 -0.2759  0.3101 -0.7464
10448TIP3    H252760   4.453   2.015   5.381 -0.0737  0.2336 -0.6622
10449TIP3   OH252761   2.273   0.750   5.206  0.0959  0.3165  0.2402
10449TIP3    H152762   2.275   0.765   5.112  1.9118  0.8951  0.3505
10449TIP3    H252763   2.303   0.832   5.245 -0.5542  0.0574  1.3386
10450TIP3   OH252764   4.979   5.726   1.323 -0.2943  0.2393  0.1911
10450TIP3    H152765   4.978   5.745   1.417  1.6132  1.7697 -0.0308
10450TIP3    H252766   4.962   5.810   1.281  0.3667 -0.1072 -0.8179
10451TIP3   OH252767   1.017   0.410  15.175  0.2998 -0.5089  0.1485
10451TIP3    H152768   0.994   0.330  15.128 -1.5949  0.1731 -0.1527
10451TIP3    H252769   1.061   0.464  15.109 -2.1548  0.3552 -0.8901
10452TIP3   OH252770   1.543   0.950   5.120  0.5377 -0.5654 -0.3095
10452TIP3    H152771   1.568   0.858   5.132  0.5873 -0.4289  0.7224
10452TIP3    H252772   1.458   0.946   5.076 -0.5744 -1.1637  1.8042
10453TIP3   OH252773   3.981   5.926  12.912 -0.4895 -0.1188 -0.0101
10453TIP3    H152774   3.953   6.017  12.926  1.1777  0.7879 -1.9636
10453TIP3    H252775   3.988   5.889  13.000 -2.5551  1.1692  0.7796
10454TIP3   OH252776   3.953   3.891  13.080  0.9732  0.0658 -0.5442
10454TIP3    H152777   4.019   3.858  13.142  0.4355  0.7457  0.4082
10454TIP3    H252778   3.908   3.960  13.128 -0.8345 -0.7779 -0.9651
10455TIP3   OH252779   1.325   4.665  14.418  0.0716  0.0719  0.1028
10455TIP3    H152780   1.307   4.746  14.371 -0.2656 -0.5188 -0.8061
10455TIP3    H252781   1.311   4.596  14.353  0.0760 -0.7325  0.9432
10456TIP3   OH252782   3.929   6.153   0.560 -0.0342 -0.6909 -0.6537
10456TIP3    H152783   3.923   6.083   0.495  0.5439 -1.4680  0.0976
10456TIP3    H252784   3.869   6.220   0.529  0.4313 -0.9179 -2.1355
10457TIP3   OH252785   3.461   0.637  10.879  0.3433 -0.4057  0.7353
10457TIP3    H152786   3.386   0.578  10.876  0.4859 -0.6058  1.1262
10457TIP3    H252787   3.484   0.651  10.787 -0.5904  0.1867  0.5823
10458TIP3   OH252788   2.508   2.283  14.456  0.4744 -0.0861  0.3824
10458TIP3    H152789   2.535   2.195  14.479 -0.0675  0.1023  1.8424
10458TIP3    H252790   2.454   2.312  14.530  0.1467  1.2404 -0.3416
10459TIP3   OH252791   3.267   2.712   3.682  0.0473  0.4530 -0.3209
10459TIP3    H152792   3.185   2.749   3.713 -0.4377 -1.4834  0.9231
10459TIP3    H252793   3.263   2.720   3.587 -1.7229  0.1470 -0.3073
10460TIP3   OH252794   6.679   5.075   5.421 -0.4260  0.0657 -0.0646
10460TIP3    H152795   6.649   5.161   5.450 -1.8543 -1.3490  3.1463
10460TIP3    H252796   6.667   5.018   5.498  0.4086 -3.0313 -2.0378
10461TIP3   OH252797   3.494   3.371   5.091  0.4008 -0.4192  0.1073
10461TIP3    H152798   3.553   3.339   5.023 -0.7547 -0.6773 -0.8247
10461TIP3    H252799   3.409   3.332   5.069  0.0163 -0.6199  1.7900
10462TIP3   OH252800   2.965   3.920   3.235 -0.2177 -0.1214 -0.6382
10462TIP3    H152801   2.982   4.015   3.235  0.8110 -0.2912 -0.1143
10462TIP3    H252802   2.874   3.912   3.263  0.1294  0.6543  0.8125
10463TIP3   OH252803   1.283   4.800   3.001 -0.0962 -0.3847  0.1198
10463TIP3    H152804   1.243   4.826   3.084 -0.3498 -1.7742  0.4667
10463TIP3    H252805   1.282   4.879   2.948  0.3124  0.6087  1.5330
10464TIP3   OH252806   5.908   4.596   4.578  0.4324  0.3770 -0.1071
10464TIP3    H152807   5.965   4.586   4.501  1.0586 -1.3741  0.5297
10464TIP3    H252808   5.943   4.534   4.642 -1.3539  0.2648  0.8285
10465TIP3   OH252809   1.046   6.025   2.437  0.2709 -0.5064  0.6248
10465TIP3    H152810   0.982   5.954   2.430 -0.6686  0.5029 -2.5184
10465TIP3    H252811   0.998   6.103   2.411  2.0704  0.7635  0.9716
10466TIP3   OH252812   2.162   0.807   2.002 -0.7058  0.3407 -0.1978
10466TIP3    H152813   2.110   0.864   1.946  0.2929  0.9901 -0.4845
10466TIP3    H252814   2.247   0.799   1.957  0.2632  1.1988  1.3846
10467TIP3   OH252815   5.508   3.795  14.294  0.0519  0.1133 -0.0294
10467TIP3    H152816   5.425   3.776  14.250  0.3520 -4.6841  0.8681
10467TIP3    H252817   5.575   3.770  14.230  0.8075  1.6680  0.0986
10468TIP3   OH252818   6.205   1.322   2.766  0.1578  0.3467 -0.1164
10468TIP3    H152819   6.198   1.304   2.860  1.4652  0.7322  0.0729
10468TIP3    H252820   6.135   1.384   2.748 -0.0264  0.3648  0.6252
10469TIP3   OH252821   0.134   1.713  16.950 -0.3415 -0.5607 -0.6432
10469TIP3    H152822   0.042   1.728  16.927 -0.4707 -1.1418 -0.5010
10469TIP3    H252823   0.183   1.767  16.887 -0.7865  0.0581 -0.4664
10470TIP3   OH252824   3.026   4.929   0.299  0.1652 -0.0927 -0.6654
10470TIP3    H152825   3.076   5.007   0.274 -0.4832 -0.2753 -2.6932
10470TIP3    H252826   2.944   4.964   0.334  1.1443  0.1737  1.5027
10471TIP3   OH252827   2.960   6.208  13.164 -0.2256  0.0272  0.1672
10471TIP3    H152828   2.896   6.200  13.093 -0.3085 -0.2772  0.2761
10471TIP3    H252829   3.017   6.280  13.137 -0.1598 -0.1915 -0.2802
10472TIP3   OH252830   1.972   3.620   6.235  0.2228  0.6637  0.1035
10472TIP3    H152831   1.975   3.693   6.296  0.8562 -0.4593  1.4763
10472TIP3    H252832   1.963   3.542   6.290  2.3690 -0.5396 -1.0799
10473TIP3   OH252833   3.968   1.781   0.519 -0.1065  0.5839 -0.1759
10473TIP3    H152834   3.903   1.819   0.578 -0.8494 -1.9148  0.7531
10473TIP3    H252835   4.037   1.750   0.576  0.7556  1.0244 -0.9528
10474TIP3   OH252836   3.108   1.260  12.966 -0.2558 -0.3859 -0.3117
10474TIP3    H152837   3.141   1.311  13.040  0.2914 -0.1977 -0.6761
10474TIP3    H252838   3.186   1.245  12.911 -0.5558 -0.9665 -0.5854
10475TIP3   OH252839   2.596   4.141  14.180 -0.2611 -0.1705  0.4391
10475TIP3    H152840   2.618   4.048  14.179  1.9322  0.3039  0.0434
10475TIP3    H252841   2.653   4.178  14.248 -0.6129  0.9874  0.1142
10476TIP3   OH252842   0.222   1.138   1.142  0.4927  0.0638  0.2135
10476TIP3    H152843   0.252   1.170   1.227 -0.6626 -0.8367  1.0010
10476TIP3    H252844   0.188   1.215   1.098  0.1757  0.3889  1.0002
10477TIP3   OH252845   1.351   2.468  11.789  0.1258  0.1622  0.2999
10477TIP3    H152846   1.329   2.541  11.732 -0.9653  0.2363  0.7975
10477TIP3    H252847   1.337   2.502  11.878 -1.7714 -1.0452  0.5165
10478TIP3   OH252848   5.358   0.861  16.254  0.1925  0.2826 -0.5148
10478TIP3    H152849   5.304   0.878  16.332  0.3065  0.1523 -0.4074
10478TIP3    H252850   5.305   0.801  16.201  0.2205  0.1751 -0.4212
10479TIP3   OH252851   1.091   2.938  11.165 -0.6436 -0.2170 -0.3499
10479TIP3    H152852   1.094   2.940  11.069 -2.6211  1.1927 -0.4358
10479TIP3    H252853   1.056   2.852  11.186 -0.5057 -0.4133 -0.9062
10480TIP3   OH252854   5.764   6.091   0.800  0.3932 -0.0204 -0.1476
10480TIP3    H152855   5.801   6.154   0.861 -0.1267  0.1592 -0.0131
10480TIP3    H252856   5.687   6.056   0.845  1.6104 -2.0145  0.5053
10481TIP3   OH252857   5.520   2.430  16.205 -0.8928  0.5530 -0.5944
10481TIP3    H152858   5.448   2.390  16.254 -0.6753  0.9193  0.0281
10481TIP3    H252859   5.527   2.519  16.240 -1.2950  1.1191 -1.8837
10482TIP3   OH252860   2.210   5.553  14.917 -0.5050  0.4085 -0.3014
10482TIP3    H152861   2.145   5.495  14.879  0.8112 -0.4906 -1.2589
10482TIP3    H252862   2.178   5.641  14.897 -2.1747  0.0492  0.5907
10483TIP3   OH252863   2.312   4.607   5.077 -0.1123  0.3121  0.0853
10483TIP3    H152864   2.348   4.575   5.160  2.5141  0.2571 -1.0026
10483TIP3    H252865   2.382   4.595   5.013 -1.3516  2.1636 -1.7648
10484TIP3   OH252866   0.206   5.372  13.643 -0.5696 -0.1722  0.6281
10484TIP3    H152867   0.211   5.467  13.645 -0.2741 -0.1522 -0.3016
10484TIP3    H252868   0.251   5.348  13.562 -1.4022 -1.0520  0.4103
10485TIP3   OH252869   4.526   3.274   0.697  0.0665  0.5867 -0.2613
10485TIP3    H152870   4.481   3.350   0.733 -0.0490  0.6533 -0.5397
10485TIP3    H252871   4.608   3.269   0.746  0.4492  1.3751 -0.7804
10486TIP3   OH252872   2.528   0.690  17.015  0.7641 -0.5678 -0.2239
10486TIP3    H152873   2.590   0.637  17.066  0.2698 -0.2842  0.6869
10486TIP3    H252874   2.558   0.780  17.026 -0.7153 -0.2218  1.6252
10487TIP3   OH252875   0.487   0.293  15.199 -0.0657 -0.7728  0.1300
10487TIP3    H152876   0.525   0.244  15.272  1.6186 -1.7353 -1.3107
10487TIP3    H252877   0.419   0.347  15.239  0.3371 -1.7587  2.2925
10488TIP3   OH252878   4.765   1.761   0.233 -0.2680  0.1081  0.4397
10488TIP3    H152879   4.739   1.736   0.321 -0.8197  0.6112  0.4200
10488TIP3    H252880   4.804   1.848   0.242 -2.3871  1.1757 -0.1126
10489TIP3   OH252881   1.738   1.826   6.604 -0.1252  0.2392 -0.4808
10489TIP3    H152882   1.717   1.738   6.633 -0.1897  0.6306  0.7188
10489TIP3    H252883   1.807   1.814   6.538 -0.6956 -0.7430 -0.9159
10490TIP3   OH252884   0.917   5.126   0.784 -0.0936 -0.0956  0.0527
10490TIP3    H152885   0.857   5.147   0.857 -0.0556  1.2852 -0.2983
10490TIP3    H252886   0.859   5.107   0.711 -0.1364 -1.6621  0.4581
10491TIP3   OH252887   3.107   3.517   3.632 -0.2892  0.1046 -0.0510
10491TIP3    H152888   3.042   3.461   3.591  1.3845 -1.2756 -0.9132
10491TIP3    H252889   3.087   3.513   3.725 -2.6628  1.3752 -0.4232
10492TIP3   OH252890   4.998   1.867   0.043 -0.7089  0.1249  0.0020
10492TIP3    H152891   4.977   1.857   0.136 -0.2806  1.0944  0.2194
10492TIP3    H252892   5.086   1.828   0.035 -1.0822 -0.7069 -0.1784
10493TIP3   OH252893   0.176   0.561   5.523  0.5637  0.1225  0.0018
10493TIP3    H152894   0.088   0.597   5.513  0.1737 -0.5038  0.9973
10493TIP3    H252895   0.234   0.637   5.514 -0.0745  0.5601 -0.5473
10494TIP3   OH252896   4.417   2.550  15.682  0.0804 -0.1909  0.3349
10494TIP3    H152897   4.455   2.467  15.653 -0.2771 -0.7668  1.4904
10494TIP3    H252898   4.405   2.540  15.776 -0.5572  0.9419  0.3914
10495TIP3   OH252899   3.760   6.610   0.558 -0.1759  0.0251  0.2307
10495TIP3    H152900   3.747   6.595   0.464 -1.3374 -0.6455  0.4720
10495TIP3    H252901   3.840   6.661   0.564 -0.3166  0.4362 -1.1531
10496TIP3   OH252902   3.259   5.976  13.013  0.2160  0.0367 -0.3559
10496TIP3    H152903   3.290   5.891  12.983  0.6872  0.4441 -1.0335
10496TIP3    H252904   3.208   6.010  12.939 -0.9556 -0.1497  0.3354
10497TIP3   OH252905   1.165   1.850   1.561 -0.5584 -0.3262  0.0825
10497TIP3    H152906   1.205   1.921   1.511 -2.1259  1.9968  1.9354
10497TIP3    H252907   1.083   1.832   1.516 -1.0463  0.3840  0.6763
10498TIP3   OH252908   5.853   0.688  11.368 -0.0709 -0.1306  0.5669
10498TIP3    H152909   5.786   0.622  11.350  3.3288 -3.7886  0.0316
10498TIP3    H252910   5.836   0.715  11.458 -1.0698 -2.5274  1.1745
10499TIP3   OH252911   2.590   0.821   2.340 -0.5908  0.0464 -0.1222
10499TIP3    H152912   2.653   0.761   2.299  0.1176 -0.2744  1.3687
10499TIP3    H252913   2.507   0.774   2.336 -0.3912 -0.2775 -0.5456
10500TIP3   OH252914   3.259   5.631   3.510 -0.1248  0.1643  0.3678
10500TIP3    H152915   3.343   5.608   3.471  0.3736  1.5162  0.5757
10500TIP3    H252916   3.242   5.563   3.575 -0.1304 -1.1605 -0.9704
10501TIP3   OH252917   6.192   2.711  13.565  0.8738 -0.2110 -0.7176
10501TIP3    H152918   6.213   2.775  13.633  0.4328 -0.8467  0.0366
10501TIP3    H252919   6.251   2.638  13.581 -0.2800 -1.0278 -0.0120
10502TIP3   OH252920   2.262   0.890  11.405  0.4931 -0.3197  0.3046
10502TIP3    H152921   2.247   0.815  11.347 -0.1080 -1.0910  1.4093
10502TIP3    H252922   2.235   0.966  11.354 -2.6392 -1.1846  0.4270
10503TIP3   OH252923   0.448   1.830   0.098  0.0212  0.0196  0.7367
10503TIP3    H152924   0.395   1.752   0.083  0.1483 -0.0123  0.4499
10503TIP3    H252925   0.490   1.848   0.013  0.0961  0.3184  0.8343
10504TIP3   OH252926   5.215   3.785   3.448 -0.3043  0.1094 -0.0999
10504TIP3    H152927   5.267   3.861   3.422  1.8475 -1.3356 -0.2688
10504TIP3    H252928   5.201   3.796   3.542 -0.1512  0.7988 -0.1545
10505TIP3   OH252929   1.271   2.419   6.054  0.8073  0.1389  0.0101
10505TIP3    H152930   1.213   2.418   6.130  0.2886 -0.4774 -0.3791
10505TIP3    H252931   1.351   2.461   6.086  0.5177  0.0999  0.8306
10506TIP3   OH252932   1.826   5.464   0.021 -0.7170  0.6239 -0.1739
10506TIP3    H152933   1.832   5.487   0.114  0.1118  0.7888 -0.2624
10506TIP3    H252934   1.903   5.505  -0.019 -0.9917  0.4343 -0.9091
10507TIP3   OH252935   1.625   0.585  14.471 -0.1681 -0.1830 -0.0307
10507TIP3    H152936   1.640   0.492  14.482  0.7958 -0.0881 -0.4192
10507TIP3    H252937   1.689   0.612  14.405 -1.0423  0.5786 -0.5898
10508TIP3   OH252938   1.399   3.067  15.741  0.4025 -0.0512  0.1669
10508TIP3    H152939   1.421   3.042  15.652  0.5675  0.3782  0.0877
10508TIP3    H252940   1.309   3.099  15.736 -0.1881 -1.5535  0.4450
10509TIP3   OH252941   4.519   5.948   2.692 -0.0825  0.5284  0.1740
10509TIP3    H152942   4.530   5.943   2.787 -3.3691  1.7009  0.7692
10509TIP3    H252943   4.495   6.040   2.676  0.0025  0.2513 -1.7361
10510TIP3   OH252944   4.073   4.820  15.491 -0.0322  0.5974 -0.3683
10510TIP3    H152945   4.014   4.894  15.505 -0.1380  0.6390 -0.9950
10510TIP3    H252946   4.065   4.800  15.398 -1.3135 -1.3108  0.1036
10511TIP3   OH252947   2.457   3.898   4.855  0.2267 -0.1019  0.4521
10511TIP3    H152948   2.385   3.921   4.795  1.3550  0.8024 -0.5851
10511TIP3    H252949   2.443   3.953   4.932 -0.5949 -0.4569  0.5697
10512TIP3   OH252950   5.461   0.477   0.916  0.1975  0.1932  0.4004
10512TIP3    H152951   5.436   0.568   0.903 -0.7416 -0.2026 -0.7590
10512TIP3    H252952   5.387   0.438   0.963  1.6925  0.5749  3.3031
10513TIP3   OH252953   2.902   5.891   3.396 -0.4111 -0.2495  0.0776
10513TIP3    H152954   2.903   5.916   3.303  1.9204 -0.8407 -0.1236
10513TIP3    H252955   2.869   5.968   3.441 -0.5346  0.4510 -1.1634
10514TIP3   OH252956   0.358   0.758  16.429 -0.1838 -0.1403 -0.2021
10514TIP3    H152957   0.343   0.767  16.335 -0.6065  0.9511 -0.0495
10514TIP3    H252958   0.432   0.698  16.436  0.2362  0.2355 -1.2556
10515TIP3   OH252959   6.271   0.320   2.101 -0.1456  0.1662 -0.5115
10515TIP3    H152960   6.364   0.323   2.079 -0.6061 -0.4844 -2.8398
10515TIP3    H252961   6.268   0.333   2.195  2.3902 -1.1826 -0.1652
10516TIP3   OH252962   6.214   5.809  17.271  0.3924  0.5552  0.6110
10516TIP3    H152963   6.272   5.746  17.228 -0.1233 -0.3145  1.1717
10516TIP3    H252964   6.206   5.777  17.360  1.5958  2.4516  1.4669
10517TIP3   OH252965   6.429   5.167   4.698 -0.0636  0.5177 -0.2710
10517TIP3    H152966   6.403   5.250   4.657  0.1363  0.9469  0.4504
10517TIP3    H252967   6.439   5.189   4.791  2.4904  0.2970 -0.4192
10518TIP3   OH252968   4.108   3.455  12.457 -0.6253 -0.3975  0.5232
10518TIP3    H152969   4.024   3.499  12.470  0.1021  1.4565 -0.6686
10518TIP3    H252970   4.117   3.397  12.533 -3.1384 -0.9470  0.4750
10519TIP3   OH252971   4.717   5.672   4.546  0.1610 -0.0478 -0.0092
10519TIP3    H152972   4.672   5.594   4.580 -0.2515  0.2689  0.1904
10519TIP3    H252973   4.805   5.668   4.584 -0.4262  0.5469  1.5188
10520TIP3   OH252974   3.645   5.807  13.560 -0.4247 -0.3611 -0.2807
10520TIP3    H152975   3.597   5.822  13.641  0.3896  1.4036 -0.0858
10520TIP3    H252976   3.577   5.789  13.495 -1.3212  1.2313  0.1583
10521TIP3   OH252977   6.717   5.301   0.704  0.0159  0.4899  0.3591
10521TIP3    H152978   6.682   5.292   0.615  2.3139  1.4087 -0.7055
10521TIP3    H252979   6.783   5.232   0.711 -1.1050 -0.4823  1.9058
10522TIP3   OH252980   4.653   1.602   5.234  0.0075  0.0346  0.1542
10522TIP3    H152981   4.692   1.522   5.268 -1.5411 -1.1903 -0.7981
10522TIP3    H252982   4.724   1.645   5.186  0.4901 -1.5778 -0.6551
10523TIP3   OH252983   0.438   4.223   3.186  0.9596  0.2141  0.3634
10523TIP3    H152984   0.458   4.266   3.103  0.3779 -0.1053  0.0540
10523TIP3    H252985   0.524   4.208   3.227  1.2396  0.4676 -0.1281
10524TIP3   OH252986   1.191   3.274  11.973 -0.2630 -0.1731 -0.4076
10524TIP3    H152987   1.117   3.327  12.001 -0.7788 -0.4558 -1.1906
10524TIP3    H252988   1.199   3.291  11.879  0.7259 -0.0748 -0.3158
10525TIP3   OH252989   0.501   1.733  15.767 -0.4978  0.0092  0.1139
10525TIP3    H152990   0.573   1.791  15.790  0.7072 -1.3586 -0.1063
10525TIP3    H252991   0.458   1.714  15.850 -1.4956  1.9079  0.0882
10526TIP3   OH252992   0.554   5.034  15.341 -0.3309 -0.3078  0.0717
10526TIP3    H152993   0.638   5.024  15.294 -1.1576  0.2349 -1.6212
10526TIP3    H252994   0.554   5.125  15.371 -0.8806  0.1273 -1.1728
10527TIP3   OH252995   6.104   2.855   4.302  0.5227  0.2127  0.5696
10527TIP3    H152996   6.132   2.895   4.219 -0.5879  0.7068  0.4151
10527TIP3    H252997   6.164   2.781   4.314  0.4124 -0.1689 -0.9339
10528TIP3   OH252998   3.151   6.268   6.134  0.1202  0.2082 -0.0564
10528TIP3    H152999   3.182   6.345   6.087 -0.9393  0.3851 -0.5074
10528TIP3    H253000   3.192   6.194   6.090  2.0959  0.5341  1.1262
10529TIP3   OH253001   2.048   5.484   4.883  0.3301 -0.5585 -0.3977
10529TIP3    H153002   2.027   5.438   4.964 -0.5619  1.7383  0.7932
10529TIP3    H253003   2.014   5.428   4.814 -1.2550 -1.4062  0.9957
10530TIP3   OH253004   1.227   1.074   3.180  0.5073  0.1669 -0.1497
10530TIP3    H153005   1.270   1.011   3.237 -0.6398 -0.0861  0.4731
10530TIP3    H253006   1.241   1.159   3.222  3.0424  0.5582 -1.5804
10531TIP3   OH253007   4.920   0.450  14.352 -0.3893 -0.3662 -0.5647
10531TIP3    H153008   4.885   0.527  14.307  0.7660  2.0360  2.2651
10531TIP3    H253009   4.846   0.419  14.405  0.0859  1.3055  1.2147
10532TIP3   OH253010   1.714   5.673  14.129 -0.0609  0.4997  0.3707
10532TIP3    H153011   1.634   5.724  14.141  0.0808  0.9558 -0.5346
10532TIP3    H253012   1.689   5.583  14.147 -0.7316  0.6678  0.2810
10533TIP3   OH253013   1.345   3.743   1.737  0.0830  0.1955 -0.4682
10533TIP3    H153014   1.343   3.650   1.715 -0.5443 -0.7139  2.8701
10533TIP3    H253015   1.438   3.767   1.732  0.4129 -0.9724 -0.0959
10534TIP3   OH253016   5.669   4.077   6.241 -0.3939 -0.1301  0.3714
10534TIP3    H153017   5.621   4.073   6.324 -1.7984 -0.8172 -0.4528
10534TIP3    H253018   5.633   4.153   6.196 -0.8085 -0.7064 -0.2931
10535TIP3   OH253019   2.210   6.031   3.747 -0.1944  0.3097 -0.2967
10535TIP3    H153020   2.177   6.081   3.672 -0.3785  1.6917  0.6747
10535TIP3    H253021   2.134   5.980   3.777 -0.4036  0.5575 -0.4017
10536TIP3   OH253022   2.719   0.352   4.103  0.1009 -0.3177  0.3014
10536TIP3    H153023   2.680   0.373   4.019 -2.4865 -0.1826  1.4260
10536TIP3    H253024   2.744   0.260   4.097 -2.0637 -0.9493  0.0057
10537TIP3   OH253025   1.406   6.592   5.060  0.3165 -0.3335 -0.0890
10537TIP3    H153026   1.498   6.568   5.072  0.2875 -1.0550 -1.1112
10537TIP3    H253027   1.397   6.603   4.965 -0.1569  1.8690  0.1473
10538TIP3   OH253028   5.895   5.236   5.417  1.5840 -0.3847  0.1671
10538TIP3    H153029   5.946   5.305   5.460  2.2866 -1.7315  1.5710
10538TIP3    H253030   5.924   5.155   5.458  0.8838 -1.5683 -1.5429
10539TIP3   OH253031   5.040   2.625  13.008 -0.2924 -0.5997 -0.2602
10539TIP3    H153032   4.951   2.601  13.033 -0.1271  0.9655  2.0988
10539TIP3    H253033   5.094   2.600  13.083  0.5139  2.8776  0.4663
10540TIP3   OH253034   4.957   0.372   2.062  1.0360  0.6148  0.4030
10540TIP3    H153035   4.921   0.381   2.151 -1.5722 -2.8669 -0.1063
10540TIP3    H253036   5.049   0.351   2.076  0.4254 -1.1026  2.4530
10541TIP3   OH253037   6.187   2.408  16.181 -0.9053 -0.0705  0.3334
10541TIP3    H153038   6.101   2.383  16.146 -0.7673  1.8074 -1.4599
10541TIP3    H253039   6.239   2.328  16.175 -1.7639 -0.5614 -1.0070
10542TIP3   OH253040   1.596   3.360   4.720  0.2327  0.1165 -0.5161
10542TIP3    H153041   1.528   3.414   4.679  1.6505  2.4055 -0.0065
10542TIP3    H253042   1.552   3.276   4.737 -2.2752  1.2820 -0.7688
10543TIP3   OH253043   2.539   6.699  15.973  0.3917  0.0297  0.9733
10543TIP3    H153044   2.445   6.686  15.960  0.7651 -1.2752 -0.7966
10543TIP3    H253045   2.546   6.790  16.003 -1.2997  0.9943 -1.2000
10544TIP3   OH253046   2.170   2.600  14.792  0.0278  0.2864  0.7134
10544TIP3    H153047   2.124   2.682  14.811 -0.8101 -0.1447  0.6056
10544TIP3    H253048   2.165   2.591  14.697  0.2959  0.2088  0.7055
10545TIP3   OH253049   1.831   6.196   6.134 -0.0427  0.0492  0.0173
10545TIP3    H153050   1.825   6.104   6.107 -1.2043  0.2772 -0.5502
10545TIP3    H253051   1.748   6.215   6.178 -0.5162  1.2485 -1.2956
10546TIP3   OH253052   5.775   0.344   6.050  0.5916  0.6598  0.0963
10546TIP3    H153053   5.812   0.322   5.964 -0.8859 -1.1012 -0.1283
10546TIP3    H253054   5.835   0.411   6.084  1.9210  0.5090 -1.7583
10547TIP3   OH253055   3.081   1.612   4.446 -0.1556  0.1282  0.4819
10547TIP3    H153056   3.115   1.540   4.500  0.2836  0.0661  0.1243
10547TIP3    H253057   3.027   1.664   4.507 -2.6032 -1.8845  0.1837
10548TIP3   OH253058   3.255   4.223   0.190  0.5406  0.1047 -0.4054
10548TIP3    H153059   3.342   4.204   0.154  0.9222  0.2635  0.4081
10548TIP3    H253060   3.269   4.224   0.284 -0.3556  0.1189 -0.2716
10549TIP3   OH253061   1.567   4.901   1.617 -0.4047 -0.4770  0.3912
10549TIP3    H153062   1.599   4.814   1.595 -0.1618 -0.3365  0.1926
10549TIP3    H253063   1.480   4.885   1.655 -0.8108 -0.7307 -0.6050
10550TIP3   OH253064   6.426   4.734  10.397  0.0475 -0.1701 -1.0085
10550TIP3    H153065   6.339   4.730  10.436  0.8133  0.3245  0.8190
10550TIP3    H253066   6.481   4.683  10.456  1.2557  0.6219 -1.4207
10551TIP3   OH253067   4.644   2.352  16.655  0.2052  0.4890 -0.8649
10551TIP3    H153068   4.692   2.277  16.620 -1.5848 -0.6972 -0.9194
10551TIP3    H253069   4.606   2.394  16.578 -1.1543 -0.2917 -0.6698
10552TIP3   OH253070   2.173   2.731   0.312  0.1443  0.0166 -0.3891
10552TIP3    H153071   2.233   2.677   0.263 -0.6006 -0.0517 -1.2515
10552TIP3    H253072   2.138   2.674   0.380  0.9205  0.0165  0.0189
10553TIP3   OH253073   0.883   5.952  14.624 -0.2868 -0.4261  0.2464
10553TIP3    H153074   0.840   5.961  14.709 -1.3601  0.1162 -0.3287
10553TIP3    H253075   0.825   5.894  14.574  0.2578 -0.6193 -0.1753
10554TIP3   OH253076   3.559   4.056  13.413  0.2225  0.3519 -0.2304
10554TIP3    H153077   3.593   4.135  13.454 -0.6487  1.4645 -1.5877
10554TIP3    H253078   3.479   4.036  13.462  0.5236  0.1925  0.2099
10555TIP3   OH253079   4.207   3.342  17.312  0.2733  0.3829  0.2460
10555TIP3    H153080   4.159   3.324  17.231  3.0714 -0.8862 -1.2991
10555TIP3    H253081   4.186   3.268  17.370 -0.0894  0.1394 -0.1909
10556TIP3   OH253082   0.871   0.665  15.401  0.0373  0.1429 -0.6920
10556TIP3    H153083   0.873   0.714  15.483 -0.1541 -3.1803  1.4949
10556TIP3    H253084   0.781   0.673  15.370  0.5043  2.8161 -1.6280
10557TIP3   OH253085   1.317   5.727   3.044 -0.0886 -0.2964  0.2294
10557TIP3    H153086   1.355   5.698   3.126 -0.5822 -2.6641 -0.3243
10557TIP3    H253087   1.378   5.793   3.011  1.3036 -0.9735  1.3752
10558TIP3   OH253088   1.554   3.058   1.862  0.7208 -0.3113 -0.1626
10558TIP3    H153089   1.551   2.968   1.830 -0.5066 -1.0965  1.9331
10558TIP3    H253090   1.644   3.086   1.847  0.4485 -0.8454 -3.3746
10559TIP3   OH253091   5.965   2.210   3.202 -0.6461 -0.8747 -0.1538
10559TIP3    H153092   5.917   2.231   3.123  1.1868  0.1324 -1.0636
10559TIP3    H253093   5.898   2.195   3.268 -2.3287 -3.6222 -2.2646
10560TIP3   OH253094   5.907   0.459  14.448  0.0695 -0.4371 -0.2883
10560TIP3    H153095   5.906   0.363  14.451 -0.8012 -0.3962  1.4364
10560TIP3    H253096   5.916   0.486  14.539 -0.2128  1.1338 -0.7022
10561TIP3   OH253097   6.498   1.635  15.424 -0.1545  0.1852 -0.3179
10561TIP3    H153098   6.422   1.647  15.481  0.4777  0.8329  0.4131
10561TIP3    H253099   6.466   1.581  15.352 -0.9957 -0.5668  0.6017
10562TIP3   OH253100   2.051   5.332  12.900  0.3215  0.0139 -0.1561
10562TIP3    H153101   1.991   5.264  12.869 -0.0333  0.2773 -0.0626
10562TIP3    H253102   2.011   5.414  12.870  2.2475  0.0870 -2.8571
10563TIP3   OH253103   1.608   0.051  15.080  0.4950 -0.2041 -0.2795
10563TIP3    H153104   1.536   0.083  15.026 -1.1200 -0.9825  1.3105
10563TIP3    H253105   1.601  -0.044  15.076  1.5616 -0.2963 -0.2362
10564TIP3   OH253106   5.046   3.113   5.986  0.7549  0.0663  0.0480
10564TIP3    H153107   5.109   3.162   6.039 -0.5635  1.2222  0.6201
10564TIP3    H253108   5.079   3.023   5.986  1.7137  0.3839  1.4016
10565TIP3   OH253109   0.952   2.016   0.693 -0.5185 -0.8119  0.6706
10565TIP3    H153110   0.976   1.924   0.690  0.4460 -0.5528 -0.1759
10565TIP3    H253111   1.033   2.061   0.719 -1.1478 -0.2555  1.7461
10566TIP3   OH253112   4.307   3.965  16.588  0.0333  0.4861  0.4009
10566TIP3    H153113   4.320   3.872  16.568  0.2190  0.6403 -0.2179
10566TIP3    H253114   4.309   4.008  16.503 -2.9364  0.7452  0.3749
10567TIP3   OH253115   0.922   2.157  15.605 -0.4196 -0.0727  0.5282
10567TIP3    H153116   1.008   2.166  15.645 -0.7797  1.1667  1.0726
10567TIP3    H253117   0.939   2.138  15.513  0.4262 -0.2717  0.7200
10568TIP3   OH253118   5.954   3.198   6.319 -0.2397 -0.2442 -0.3745
10568TIP3    H153119   5.994   3.111   6.318 -0.6197 -0.4219 -0.1240
10568TIP3    H253120   6.027   3.257   6.341 -0.0789 -0.5531 -0.0652
10569TIP3   OH253121   4.466   2.789   2.953 -0.1916 -0.0922 -0.4385
10569TIP3    H153122   4.480   2.740   3.035 -0.1734 -0.0513 -0.4174
10569TIP3    H253123   4.549   2.834   2.938 -0.8464  1.5356  0.5986
10570TIP3   OH253124   0.329   4.897  15.847  0.0262  0.9479 -0.2428
10570TIP3    H153125   0.347   4.951  15.924  0.4256 -2.2046  2.0703
10570TIP3    H253126   0.409   4.904  15.793  0.5637  1.6695  0.6293
10571TIP3   OH253127   4.515   2.983   3.307 -0.0183 -0.2720 -0.1694
10571TIP3    H153128   4.466   2.901   3.319  0.0393 -0.0736  1.9159
10571TIP3    H253129   4.606   2.955   3.303  0.1215 -0.2943  1.8804
10572TIP3   OH253130   1.434   1.560  16.655 -0.0592  0.1330  0.2735
10572TIP3    H153131   1.520   1.539  16.692  0.4341  0.1708 -0.8337
10572TIP3    H253132   1.450   1.635  16.598 -0.6358 -0.4908 -0.7262
10573TIP3   OH253133   0.056   2.169   0.049  0.4801  0.2907  0.1561
10573TIP3    H153134   0.123   2.134   0.108 -0.4793 -1.1330  0.4505
10573TIP3    H253135   0.007   2.231   0.103 -0.0573 -0.6094  0.7375
10574TIP3   OH253136   4.484   6.696   4.362 -0.3993  0.2201 -0.3562
10574TIP3    H153137   4.442   6.622   4.406 -0.8923  0.3287 -0.6396
10574TIP3    H253138   4.542   6.656   4.298 -0.8415  0.0818 -0.6705
10575TIP3   OH253139   0.936   2.015  14.449 -0.3021  0.9519  0.3585
10575TIP3    H153140   0.894   2.100  14.437 -0.2719  0.7110 -1.8747
10575TIP3    H253141   0.866   1.956  14.477 -0.5276  1.5056  0.9534
10576TIP3   OH253142   3.924   2.043   6.255  0.3273 -0.1630 -0.6213
10576TIP3    H153143   3.972   2.122   6.229 -0.3184  1.1500  1.8261
10576TIP3    H253144   3.985   1.997   6.314 -0.2693 -0.0442  0.1071
10577TIP3   OH253145   4.935   3.903   1.106  0.1167  0.2020  0.3683
10577TIP3    H153146   4.985   3.945   1.036 -0.4502 -0.5305 -0.5030
10577TIP3    H253147   4.856   3.870   1.062 -0.9274  0.9411  1.6210
10578TIP3   OH253148   1.349   0.935   5.310  0.4173 -0.3045 -0.3304
10578TIP3    H153149   1.434   0.951   5.269  1.0714 -1.1767  0.6152
10578TIP3    H253150   1.371   0.894   5.394 -0.9091  0.3844  0.3843
10579TIP3   OH253151   4.739   6.283   5.184  0.3246  0.4847  0.3303
10579TIP3    H153152   4.813   6.283   5.243  0.4588  1.8120  0.1777
10579TIP3    H253153   4.713   6.375   5.176 -0.3433  0.2211 -0.8446
10580TIP3   OH253154   6.398   3.709   4.206 -0.1276 -0.0224 -0.3368
10580TIP3    H153155   6.458   3.645   4.167  0.9433  0.3252  0.6996
10580TIP3    H253156   6.394   3.685   4.298 -2.2795 -0.5600 -0.5129
10581TIP3   OH253157   3.122   1.695  12.899 -0.0010 -0.1824 -0.2064
10581TIP3    H153158   3.117   1.704  12.994 -0.4147 -0.1738 -0.2297
10581TIP3    H253159   3.039   1.729  12.866  0.6442  0.9947 -0.6678
10582TIP3   OH253160   5.995   1.462   1.200 -0.0236 -0.3187 -0.1541
10582TIP3    H153161   5.958   1.374   1.206  1.4244 -0.9046  0.6119
10582TIP3    H253162   6.079   1.456   1.244  0.6211  1.1735 -1.0881
10583TIP3   OH253163   2.438   5.116   3.426  0.4278 -0.2982 -0.0299
10583TIP3    H153164   2.423   5.207   3.402  0.4338 -0.4833 -0.7390
10583TIP3    H253165   2.526   5.097   3.395  0.2254 -0.7036 -0.3632
10584TIP3   OH253166   6.160   1.282  15.538 -0.5520  0.3754  0.1397
10584TIP3    H153167   6.130   1.219  15.473 -0.4393  0.9113 -0.4482
10584TIP3    H253168   6.181   1.230  15.615 -0.7195 -0.2677 -0.2452
10585TIP3   OH253169   3.869   1.603   0.716  0.1072  0.1289 -0.1266
10585TIP3    H153170   3.946   1.548   0.709 -0.1564 -0.3234  0.4501
10585TIP3    H253171   3.795   1.543   0.712 -0.1688  0.3392  1.2163
10586TIP3   OH253172   4.282   1.483  11.646 -0.5651  0.1800 -0.2471
10586TIP3    H153173   4.267   1.545  11.575 -0.1699 -1.2042 -1.5802
10586TIP3    H253174   4.200   1.484  11.696 -0.0933  2.7862  0.6463
10587TIP3   OH253175   1.170   1.404  12.602  0.3056 -0.2964 -0.3526
10587TIP3    H153176   1.098   1.453  12.562  0.2414  0.8393  1.0738
10587TIP3    H253177   1.127   1.337  12.654  0.1882  0.8753  1.1360
10588TIP3   OH253178   0.522   0.887  13.202 -0.2164 -0.2383 -0.1170
10588TIP3    H153179   0.472   0.810  13.176 -1.4634  0.3718  0.3812
10588TIP3    H253180   0.475   0.961  13.163  1.1298  0.2859 -0.8482
10589TIP3   OH253181   2.567   4.325   4.823 -0.4923  0.2946 -0.2358
10589TIP3    H153182   2.562   4.311   4.917  1.1924 -3.2008 -0.5048
10589TIP3    H253183   2.642   4.383   4.812 -0.0542 -0.0971  0.5611
10590TIP3   OH253184   2.696   5.731   0.113 -0.1737  0.1964 -0.0323
10590TIP3    H153185   2.706   5.659   0.175  1.2541 -1.8563 -2.4269
10590TIP3    H253186   2.604   5.731   0.090 -0.6068  0.6149  1.5778
10591TIP3   OH253187   1.643   1.777   6.077 -0.0090 -0.3690  0.0906
10591TIP3    H153188   1.709   1.743   6.017 -0.8002 -0.0258 -0.9939
10591TIP3    H253189   1.686   1.850   6.121 -0.3318  1.3676 -2.2853
10592TIP3   OH253190   1.776   5.612  16.891  0.4078 -0.0133  0.1573
10592TIP3    H153191   1.808   5.677  16.829  0.1904 -0.7859 -0.7915
10592TIP3    H253192   1.850   5.596  16.950  0.9603 -0.0250 -0.5352
10593TIP3   OH253193   4.854   5.435   5.962 -0.0444 -0.1039 -0.2175
10593TIP3    H153194   4.777   5.385   5.934 -2.1681  4.0046 -2.7686
10593TIP3    H253195   4.923   5.408   5.901  0.2334 -2.6801  1.0864
10594TIP3   OH253196   5.825   4.576  12.965  0.0480  0.1142  0.0541
10594TIP3    H153197   5.733   4.550  12.971 -0.0740 -0.8246 -3.5859
10594TIP3    H253198   5.866   4.536  13.043 -2.5429  0.5744  1.7793
10595TIP3   OH253199   5.133   3.851   3.734  0.2853 -0.2829  0.0013
10595TIP3    H153200   5.182   3.776   3.768 -0.0540  0.1742  1.5694
10595TIP3    H253201   5.042   3.822   3.736  0.1213  0.2526  0.9101
10596TIP3   OH253202   3.290   6.441   1.460  0.1655 -0.5551  0.9094
10596TIP3    H153203   3.353   6.435   1.531 -1.7874 -1.1072  2.6789
10596TIP3    H253204   3.234   6.364   1.470  0.6773 -1.5012 -2.1700
10597TIP3   OH253205   0.116   1.471   3.440  0.6585  0.0379 -0.6749
10597TIP3    H153206   0.118   1.497   3.532  2.0515 -2.4829  0.1084
10597TIP3    H253207   0.035   1.508   3.407 -1.5304 -1.4955  2.4244
10598TIP3   OH253208   2.182   2.700  15.906 -0.0211  0.0152 -0.8003
10598TIP3    H153209   2.110   2.666  15.960 -1.9676  1.6343 -2.2039
10598TIP3    H253210   2.167   2.661  15.819 -1.1005  2.6525 -1.9007
10599TIP3   OH253211   2.760   1.362   1.853 -0.0373 -0.2575 -0.1145
10599TIP3    H153212   2.809   1.403   1.925 -0.2468  0.4775 -0.3854
10599TIP3    H253213   2.697   1.429   1.826 -0.8633 -1.0156 -0.0989
10600TIP3   OH253214   2.007   0.277   4.030  0.6689 -0.5145  0.0368
10600TIP3    H153215   1.978   0.223   3.956 -0.5923 -1.4785  1.1950
10600TIP3    H253216   2.094   0.307   4.005  0.1005 -0.4206 -2.0497
10601TIP3   OH253217   1.814   5.880   6.118  0.3530 -0.2679 -0.4083
10601TIP3    H153218   1.767   5.858   6.198  0.2789  1.7777  0.1728
10601TIP3    H253219   1.747   5.882   6.050  0.0796 -0.1216 -0.1340
10602TIP3   OH253220   3.842   2.594  10.781 -0.1389  0.0201  0.2101
10602TIP3    H153221   3.770   2.559  10.833  0.6961 -0.8117  0.8369
10602TIP3    H253222   3.909   2.525  10.784  1.1888  1.2953  0.7056
10603TIP3   OH253223   5.333   1.152  11.443 -0.0862  0.2905  0.9249
10603TIP3    H153224   5.338   1.104  11.360 -1.5322  0.5022  0.6776
10603TIP3    H253225   5.421   1.148  11.479  0.3903 -0.4547 -0.2648
10604TIP3   OH253226   2.503   6.677  13.901 -0.4768  0.2602 -0.0756
10604TIP3    H153227   2.570   6.735  13.866 -0.8458  0.4353 -0.4908
10604TIP3    H253228   2.425   6.732  13.909 -0.6363  0.0004  0.1951
10605TIP3   OH253229   4.094   3.165  12.910  1.0008  0.3060  0.7573
10605TIP3    H153230   4.159   3.098  12.930  1.3284  0.4200  0.0849
10605TIP3    H253231   4.009   3.121  12.921  1.1607  0.3381  2.3045
10606TIP3   OH253232   3.323   0.809   5.293 -0.2736  0.4754  0.0025
10606TIP3    H153233   3.262   0.797   5.220 -0.9282  0.6368  0.5170
10606TIP3    H253234   3.341   0.903   5.294  0.9935  0.2840 -0.9315
10607TIP3   OH253235   4.042   1.435  13.594  0.5699 -0.2523  0.1914
10607TIP3    H153236   4.120   1.487  13.613  0.7107 -0.4983  0.2949
10607TIP3    H253237   4.029   1.445  13.500  1.1480 -0.7865  0.0482
10608TIP3   OH253238   3.422   2.337   2.316 -0.2470 -0.1662  0.2625
10608TIP3    H153239   3.443   2.353   2.224 -0.0602 -2.2994 -0.0954
10608TIP3    H253240   3.350   2.398   2.335  1.3553  2.1230 -0.5190
10609TIP3   OH253241   6.005   4.979   4.390 -0.2540  0.5080 -0.2088
10609TIP3    H153242   6.039   4.890   4.400  0.9645  0.8213 -1.2379
10609TIP3    H253243   5.911   4.968   4.383 -0.1342 -0.6899 -0.1112
10610TIP3   OH253244   3.104   3.497   0.894 -0.0203  0.0316  0.2894
10610TIP3    H153245   3.034   3.556   0.923  0.6720  0.6187  0.7923
10610TIP3    H253246   3.068   3.454   0.816 -0.2861  1.6763 -0.5484
10611TIP3   OH253247   5.110   3.120   0.547 -0.0819 -0.0054  0.2812
10611TIP3    H153248   5.153   3.106   0.462 -0.2770  0.5969  0.0815
10611TIP3    H253249   5.178   3.097   0.611  0.5367  0.8962 -0.0307
10612TIP3   OH253250   6.021   5.831  12.960  0.7619  0.6645 -0.3246
10612TIP3    H153251   6.085   5.902  12.971 -0.3235  1.6009  0.2285
10612TIP3    H253252   5.976   5.827  13.044 -1.5976  1.7611 -1.4382
10613TIP3   OH253253   5.397   0.593  16.381 -0.0955 -0.3142  0.4631
10613TIP3    H153254   5.347   0.642  16.315 -0.7661 -0.0977  1.1262
10613TIP3    H253255   5.383   0.641  16.462 -0.4606 -1.3985  1.0535
10614TIP3   OH253256   3.075   4.530   2.117 -0.7501 -0.2396  0.1580
10614TIP3    H153257   3.010   4.490   2.176 -0.7723 -0.7061 -0.1796
10614TIP3    H253258   3.133   4.458   2.093 -0.7526 -0.0532 -0.4080
10615TIP3   OH253259   4.696   0.704   2.807 -0.2994 -0.7734 -0.9083
10615TIP3    H153260   4.692   0.627   2.863  0.1850 -0.1114  0.0730
10615TIP3    H253261   4.790   0.716   2.789 -0.2715  0.0968 -0.2838
10616TIP3   OH253262   2.611   0.648   6.330 -0.0748 -0.1828 -0.0393
10616TIP3    H153263   2.558   0.693   6.395 -0.1494 -0.8805  0.3861
10616TIP3    H253264   2.693   0.628   6.374  0.0585 -0.2320 -0.3043
10617TIP3   OH253265   1.806   3.080   1.787 -0.5832  0.2531  0.7993
10617TIP3    H153266   1.875   3.092   1.852  0.5638 -0.8447 -0.1869
10617TIP3    H253267   1.794   2.985   1.782 -0.9819  0.3535 -0.2567
10618TIP3   OH253268   6.720   5.945   0.276  0.3407  0.4074 -0.2088
10618TIP3    H153269   6.630   5.918   0.292  0.7875 -0.0959  1.5978
10618TIP3    H253270   6.716   5.990   0.191 -1.7462  1.0711  0.1696
10619TIP3   OH253271   3.430   0.752   0.634 -0.1605  0.1400 -0.7931
10619TIP3    H153272   3.360   0.765   0.698 -0.0193  0.4042 -0.6916
10619TIP3    H253273   3.461   0.840   0.613 -0.5479  0.0887 -1.6101
10620TIP3   OH253274   0.081   1.280   5.384 -0.4059  0.0558 -0.1766
10620TIP3    H153275   0.001   1.261   5.433 -0.9697  1.0519 -0.6713
10620TIP3    H253276   0.065   1.244   5.297 -0.9934  1.5890 -0.7516
10621TIP3   OH253277   3.760   0.355  13.895 -0.5852  0.0488 -0.8792
10621TIP3    H153278   3.826   0.423  13.908 -0.7998  0.2082 -0.6101
10621TIP3    H253279   3.795   0.302  13.824 -1.0741  1.2719 -2.0774
10622TIP3   OH253280   4.720   1.287  14.090 -0.6484 -0.1078  0.0357
10622TIP3    H153281   4.668   1.351  14.040  1.3829  1.2743 -0.4228
10622TIP3    H253282   4.713   1.206  14.039  0.0370  0.8443 -1.6601
10623TIP3   OH253283   5.897   6.142  14.755  0.8950  0.1365 -0.2074
10623TIP3    H153284   5.828   6.085  14.788  0.6107  0.4856 -0.2021
10623TIP3    H253285   5.950   6.162  14.833  1.0730 -0.2207 -0.2323
10624TIP3   OH253286   5.029   1.502   6.032  0.0641  0.5761 -0.3803
10624TIP3    H153287   4.959   1.437   6.040  0.2836  0.2537 -1.0335
10624TIP3    H253288   5.038   1.538   6.120 -1.0218  0.7262 -0.3118
10625TIP3   OH253289   0.508   3.823  14.614 -0.4198  0.9078  0.2439
10625TIP3    H153290   0.458   3.747  14.586  0.7662 -0.2276  1.0514
10625TIP3    H253291   0.553   3.853  14.535 -1.4500  1.2303 -0.2322
10626TIP3   OH253292   2.177   3.838  16.304 -0.5495 -0.1483  0.7186
10626TIP3    H153293   2.144   3.804  16.388 -1.3002 -1.8216 -0.2100
10626TIP3    H253294   2.203   3.760  16.255  1.1829  0.8868 -0.1090
10627TIP3   OH253295   5.765   6.749  14.128 -0.1815  0.4394  0.4151
10627TIP3    H153296   5.765   6.823  14.189 -1.7311  0.8013  0.0185
10627TIP3    H253297   5.789   6.674  14.182 -0.7921  0.8746  1.3225
10628TIP3   OH253298   2.263   1.917  11.348 -0.0245  0.3605 -0.6652
10628TIP3    H153299   2.255   1.954  11.260  1.3126  0.0404 -0.9541
10628TIP3    H253300   2.198   1.964  11.400 -0.6055  0.7921 -1.7492
10629TIP3   OH253301   6.485   5.029  12.436 -0.2461 -0.1057  0.0425
10629TIP3    H153302   6.410   5.081  12.409 -0.2065 -0.0997 -0.0592
10629TIP3    H253303   6.464   4.999  12.524 -0.0122  0.5777  0.3382
10630TIP3   OH253304   2.246   6.652  13.986 -0.1356  0.2473 -0.0913
10630TIP3    H153305   2.300   6.634  14.063 -0.8467 -0.6870  0.2136
10630TIP3    H253306   2.187   6.723  14.014  1.7550  2.2098 -0.8473
10631TIP3   OH253307   1.812   5.136   5.122  0.6551 -0.3191 -0.1109
10631TIP3    H153308   1.759   5.103   5.194  1.2461 -3.4810 -1.0007
10631TIP3    H253309   1.750   5.186   5.068 -0.1098  0.8035  1.7316
10632TIP3   OH253310   2.946   2.253   5.143  0.2434  0.4375 -0.4506
10632TIP3    H153311   3.003   2.197   5.089  0.5877 -0.7289  1.0717
10632TIP3    H253312   2.896   2.304   5.079  0.4341 -1.0825 -1.8908
10633TIP3   OH253313   4.044   2.890  15.359  0.4923 -0.1988  0.2619
10633TIP3    H153314   4.123   2.905  15.412  0.7902  3.2839 -0.8724
10633TIP3    H253315   3.972   2.913  15.418  0.5000 -0.7121  0.4763
10634TIP3   OH253316   3.648   1.275  14.128 -0.2212  0.3840  0.2458
10634TIP3    H153317   3.704   1.247  14.055  1.4899 -0.6218  1.8522
10634TIP3    H253318   3.655   1.371  14.129  2.1639  0.2703  0.8363
10635TIP3   OH253319   6.040   1.944   3.734  0.0933 -0.8821 -0.4916
10635TIP3    H153320   6.043   1.850   3.717  0.3226 -0.5178 -2.8796
10635TIP3    H253321   5.947   1.963   3.745  0.0527 -1.3805  0.0856
10636TIP3   OH253322   4.136   0.850  11.647  0.1129  0.2824  0.4558
10636TIP3    H153323   4.205   0.784  11.655 -0.1853  0.0617  1.2370
10636TIP3    H253324   4.099   0.836  11.560 -0.5135 -1.1392  0.9238
10637TIP3   OH253325   6.401   3.319   1.774 -0.0822 -0.1605 -0.5938
10637TIP3    H153326   6.381   3.370   1.853 -1.4918  0.1868 -1.1504
10637TIP3    H253327   6.483   3.357   1.742 -0.4579  0.9423 -0.3158
10638TIP3   OH253328   3.378   4.265  11.948  0.6080  0.1251  0.2176
10638TIP3    H153329   3.326   4.185  11.942 -1.0623  1.1272  0.8407
10638TIP3    H253330   3.464   4.235  11.978  0.0978 -1.4519  0.1842
10639TIP3   OH253331   4.862   0.062   4.222 -0.0777  0.6273 -0.1406
10639TIP3    H153332   4.957   0.067   4.214  0.0288  3.8343  1.5470
10639TIP3    H253333   4.848   0.012   4.302  0.0996 -0.4637 -0.7635
10640TIP3   OH253334   3.095   0.925  16.706  0.1665 -0.0929 -0.2263
10640TIP3    H153335   3.156   0.892  16.773  0.4816  0.5224 -0.2068
10640TIP3    H253336   3.111   1.019  16.703  0.0164 -0.0904 -1.0428
10641TIP3   OH253337   5.500   3.386   3.614 -0.1415  0.2118  0.5511
10641TIP3    H153338   5.430   3.429   3.564 -0.9240 -0.0064  1.4414
10641TIP3    H253339   5.581   3.417   3.572 -0.6747  2.4174  1.0190
10642TIP3   OH253340   5.458   1.751  17.256  0.1917 -0.6253 -0.0078
10642TIP3    H153341   5.549   1.781  17.251 -0.0704  0.1603 -0.2325
10642TIP3    H253342   5.413   1.798  17.186 -0.6036 -0.1947  0.7741
10643TIP3   OH253343   4.641   6.284  11.146  0.5136  0.2074  0.4532
10643TIP3    H153344   4.616   6.336  11.222  0.1915  0.3992  0.2149
10643TIP3    H253345   4.721   6.325  11.114  0.7357  0.0352  0.7756
10644TIP3   OH253346   5.402   2.998  16.110  0.0712 -0.1079 -0.3317
10644TIP3    H153347   5.473   2.970  16.052  1.9301  2.4009  0.5463
10644TIP3    H253348   5.354   3.062  16.059 -0.4417 -0.4505 -0.2817
10645TIP3   OH253349   6.067   3.983   1.167 -0.3687 -0.4893  0.1038
10645TIP3    H153350   6.156   3.948   1.162 -0.2713 -0.4808  1.4058
10645TIP3    H253351   6.079   4.078   1.174 -0.4152 -0.5417  1.1288
10646TIP3   OH253352   5.063   5.737  12.541 -0.2028  0.1089  0.0957
10646TIP3    H153353   5.131   5.671  12.554  0.1489  0.7581  1.8327
10646TIP3    H253354   4.982   5.688  12.530 -0.0874 -0.6332  2.2302
10647TIP3   OH253355   0.663   6.449   4.133  0.2690  0.2927  0.0853
10647TIP3    H153356   0.595   6.440   4.067 -0.8027  0.6656  1.0934
10647TIP3    H253357   0.700   6.361   4.142  1.0368  0.4045 -1.5839
10648TIP3   OH253358   3.349   6.410  17.333  0.0750  0.1009 -0.4425
10648TIP3    H153359   3.265   6.412  17.286  0.4512  0.6010 -1.1042
10648TIP3    H253360   3.359   6.319  17.359 -0.6371  0.0175 -0.4209
10649TIP3   OH253361   1.740   1.356   1.067  0.5562 -0.4610 -0.0804
10649TIP3    H153362   1.817   1.347   1.124  1.1941 -0.1565 -0.8828
10649TIP3    H253363   1.673   1.394   1.124  0.6934 -1.5974  0.8771
10650TIP3   OH253364   1.488   2.764   1.187  0.4074  0.9862 -0.4307
10650TIP3    H153365   1.551   2.727   1.124  1.8656  0.1495  1.4236
10650TIP3    H253366   1.405   2.724   1.162  1.2990 -0.8340 -0.7040
10651TIP3   OH253367   0.070   4.435  17.342  0.4548 -0.3144 -0.7729
10651TIP3    H153368   0.049   4.454  17.251  0.0051  0.6931 -0.4725
10651TIP3    H253369   0.094   4.342  17.343  0.9524 -0.2105 -1.9917
10652TIP3   OH253370   6.546   3.235  14.091  0.6090 -0.3856 -0.0052
10652TIP3    H153371   6.514   3.151  14.125  0.9356 -0.9636 -1.0621
10652TIP3    H253372   6.473   3.267  14.038  0.8557 -0.4969 -0.4144
10653TIP3   OH253373   3.303   6.538   2.222  0.6332  0.4677  0.2307
10653TIP3    H153374   3.368   6.593   2.178 -0.3749  0.8653 -0.8447
10653TIP3    H253375   3.252   6.600   2.275 -0.4780  0.6202 -0.9503
10654TIP3   OH253376   5.440   0.528   3.309  0.1060 -0.0447  0.0961
10654TIP3    H153377   5.419   0.571   3.226  0.5567  0.6054  0.3002
10654TIP3    H253378   5.367   0.550   3.367  0.6270  1.0206  0.3882
10655TIP3   OH253379   4.980   1.927   1.602 -0.1193 -0.0881  0.8185
10655TIP3    H153380   5.042   1.983   1.556  0.8579 -1.1507  0.8034
10655TIP3    H253381   5.030   1.848   1.623 -1.6361 -1.2431  0.2483
10656TIP3   OH253382   2.971   4.271   1.292 -0.5725  0.5168  0.2461
10656TIP3    H153383   2.928   4.185   1.297 -2.0734  1.2724  1.3765
10656TIP3    H253384   3.060   4.255   1.323 -0.1413 -0.9987 -1.5972
10657TIP3   OH253385   1.797   1.782   0.155  0.0218 -0.7890  0.2711
10657TIP3    H153386   1.790   1.839   0.231 -1.8176 -1.1014  0.3830
10657TIP3    H253387   1.880   1.807   0.114 -0.4529  1.6055  0.6033
10658TIP3   OH253388   2.719   5.575  14.853 -0.7117  0.3631  0.3526
10658TIP3    H153389   2.703   5.633  14.928 -2.5174  1.0962 -0.5364
10658TIP3    H253390   2.695   5.628  14.777  1.0466 -0.3838 -0.7602
10659TIP3   OH253391   2.777   4.217   1.658 -0.2501  0.6543 -0.7161
10659TIP3    H153392   2.820   4.298   1.631 -0.1406  0.3852 -1.3635
10659TIP3    H253393   2.844   4.150   1.648  0.1562  0.6884  1.3039
10660TIP3   OH253394   1.073   4.044   3.721  0.2765  0.4369 -0.4580
10660TIP3    H153395   1.044   4.136   3.721  1.6408  0.9248  1.3593
10660TIP3    H253396   1.012   4.000   3.661 -1.0869  2.3056 -0.5495
10661TIP3   OH253397   0.637   1.520  13.706  0.3560 -0.1054  0.1239
10661TIP3    H153398   0.649   1.608  13.670  0.1359 -0.5929 -1.1886
10661TIP3    H253399   0.664   1.528  13.797  0.3497  1.3213  0.0227
10662TIP3   OH253400   5.448   0.891  15.336 -0.1926  0.6832  0.0423
10662TIP3    H153401   5.482   0.851  15.256  3.5984  1.7662  0.8602
10662TIP3    H253402   5.446   0.820  15.400  0.6679  0.5584 -0.0508
10663TIP3   OH253403   1.034   5.734   1.733  0.0003  0.2605 -0.1426
10663TIP3    H153404   1.035   5.751   1.827 -0.2005  0.3166 -0.1490
10663TIP3    H253405   1.062   5.816   1.692  1.0543 -0.0640 -0.0972
10664TIP3   OH253406   2.611   1.450  15.400 -0.1447 -0.5435  0.1569
10664TIP3    H153407   2.555   1.447  15.478 -0.6329  0.8718 -0.1170
10664TIP3    H253408   2.628   1.358  15.380  0.6617 -0.9528  2.3832
10665TIP3   OH253409   4.543   3.242   1.305 -0.2027  0.5733 -0.7264
10665TIP3    H153410   4.596   3.311   1.345 -1.1173  0.6900  0.3475
10665TIP3    H253411   4.607   3.183   1.265  0.8181  0.3952  1.0419
10666TIP3   OH253412   1.863   5.819  11.394 -0.3938 -0.2246 -0.0064
10666TIP3    H153413   1.832   5.883  11.329  2.2982  0.9083 -0.3063
10666TIP3    H253414   1.915   5.757  11.343  2.5622  1.2214  1.0112
10667TIP3   OH253415   5.644   4.297  16.547 -0.3215 -0.7189  0.0565
10667TIP3    H153416   5.554   4.313  16.519  0.5965  1.4239 -2.0293
10667TIP3    H253417   5.672   4.222  16.494 -1.1518 -2.1684  1.5633
10668TIP3   OH253418   2.809   3.725  15.386  0.3399  0.0362 -0.8174
10668TIP3    H153419   2.778   3.634  15.393 -2.1022  0.8919  0.6803
10668TIP3    H253420   2.881   3.730  15.449 -2.2085  0.0656  2.3496
10669TIP3   OH253421   3.627   1.979  12.341 -0.1601 -0.6573  0.3019
10669TIP3    H153422   3.608   2.000  12.432 -0.5172  0.8881 -0.1020
10669TIP3    H253423   3.603   2.058  12.292  0.4760 -1.2771 -1.0809
10670TIP3   OH253424   6.467   6.540  16.942 -0.0701 -0.0647 -0.4662
10670TIP3    H153425   6.388   6.563  16.992  0.1536  1.3285 -0.7061
10670TIP3    H253426   6.463   6.445  16.934 -1.1006 -0.1432  0.5642
10671TIP3   OH253427   0.709   6.187  15.722  0.0751  0.1065  0.2211
10671TIP3    H153428   0.686   6.148  15.806 -0.8015  1.2575  0.5510
10671TIP3    H253429   0.669   6.130  15.657 -0.0674 -0.2642  0.6300
10672TIP3   OH253430   2.522   2.387   0.078  0.1427  0.2993 -0.5961
10672TIP3    H153431   2.597   2.389   0.018  0.1671 -1.6379 -0.6674
10672TIP3    H253432   2.452   2.431   0.030 -0.0124 -1.7317 -2.3305
10673TIP3   OH253433   0.886   1.528   1.847  0.6436  0.5446  0.5067
10673TIP3    H153434   0.797   1.520   1.883  1.1294 -0.9336  1.4919
10673TIP3    H253435   0.897   1.449   1.794  0.6129  1.7987 -1.4666
10674TIP3   OH253436   0.505   6.302   5.239 -0.2734  1.2151 -0.3794
10674TIP3    H153437   0.481   6.364   5.171 -1.6098  0.7487 -0.3562
10674TIP3    H253438   0.422   6.269   5.272  0.3993 -0.2426 -0.0683
10675TIP3   OH253439   0.357   6.025  12.842  0.4746  0.2876  0.2865
10675TIP3    H153440   0.279   6.047  12.893  0.2469 -1.1499  0.5984
10675TIP3    H253441   0.323   5.984  12.762  0.8647 -2.1856  1.2843
10676TIP3   OH253442   4.513   4.459   6.264 -0.8785 -0.1031 -0.0883
10676TIP3    H153443   4.607   4.445   6.261 -0.3969  2.1004  1.5931
10676TIP3    H253444   4.484   4.453   6.173  0.8108 -1.1157 -0.5883
10677TIP3   OH253445   5.144   3.603  15.160 -0.1660 -0.7715  0.2630
10677TIP3    H153446   5.228   3.629  15.122 -0.0944 -1.1379  0.1641
10677TIP3    H253447   5.154   3.620  15.254 -0.1188 -0.4543  0.2016
10678TIP3   OH253448   2.536   4.885   2.571 -0.0462  0.1995 -0.4244
10678TIP3    H153449   2.627   4.902   2.550  0.3479 -0.1755  0.8861
10678TIP3    H253450   2.523   4.926   2.656 -0.7707 -0.7654 -0.0530
10679TIP3   OH253451   5.102   1.506  15.586  0.3068 -0.3638 -0.4077
10679TIP3    H153452   5.153   1.543  15.514 -0.3451 -0.4751 -0.9382
10679TIP3    H253453   5.091   1.579  15.648 -0.3211  0.1446 -1.0899
10680TIP3   OH253454   2.646   0.655   1.859 -0.3290 -0.8270 -0.2061
10680TIP3    H153455   2.634   0.623   1.770  0.0393 -0.8025 -0.2669
10680TIP3    H253456   2.740   0.647   1.875 -0.3195 -0.3512 -0.0025
10681TIP3   OH253457   0.248   5.249  16.876  0.1781 -0.1250  0.2707
10681TIP3    H153458   0.220   5.194  16.803  1.3970 -0.0903 -0.2482
10681TIP3    H253459   0.175   5.311  16.888 -0.8819 -1.3467  0.3694
10682TIP3   OH253460   0.439   2.275  15.893  0.1970 -0.1924  0.5823
10682TIP3    H153461   0.474   2.191  15.863 -0.8742 -0.3913 -0.1896
10682TIP3    H253462   0.481   2.340  15.837 -1.1233 -0.4902 -0.8279
10683TIP3   OH253463   3.023   2.555  16.966  0.2547 -0.1840  0.1039
10683TIP3    H153464   3.065   2.602  16.894  0.9501 -1.6662 -0.5097
10683TIP3    H253465   3.086   2.487  16.990 -0.6429 -0.7181  1.0565
10684TIP3   OH253466   1.908   0.971  11.783 -0.1210  0.0844 -0.4594
10684TIP3    H153467   1.871   1.028  11.851  0.3762  0.1314 -0.2237
10684TIP3    H253468   1.916   0.885  11.825 -0.3229 -0.0179 -0.6311
10685TIP3   OH253469   5.470   2.390   0.521 -0.2619 -0.1537 -0.4230
10685TIP3    H153470   5.492   2.408   0.430 -0.9726  1.0714 -0.3710
10685TIP3    H253471   5.516   2.457   0.571 -2.2024  1.0578 -0.1384
10686TIP3   OH253472   1.578   1.307  12.652 -0.1553 -0.2489 -0.0145
10686TIP3    H153473   1.634   1.246  12.700 -1.2406 -1.5480 -0.3204
10686TIP3    H253474   1.532   1.357  12.721  1.3260  0.8382  0.2341
10687TIP3   OH253475   1.736   1.695  13.958 -0.2869 -0.1151 -0.0843
10687TIP3    H153476   1.683   1.618  13.983 -0.3486  0.0108  0.1714
10687TIP3    H253477   1.731   1.696  13.862 -0.6643 -0.1667 -0.0688
10688TIP3   OH253478   2.808   2.225  16.491 -0.5958  0.5644  0.7740
10688TIP3    H153479   2.771   2.244  16.577  1.5237  1.7539  1.5131
10688TIP3    H253480   2.903   2.226  16.505 -0.2086 -0.8477 -1.2703
10689TIP3   OH253481   0.951   5.469  14.463 -0.1563 -0.7534 -0.2236
10689TIP3    H153482   1.035   5.490  14.503 -0.7776  0.7668  0.3235
10689TIP3    H253483   0.898   5.435  14.535  0.0691 -2.0434 -0.6356
10690TIP3   OH253484   6.617   3.764  12.255  0.4292 -0.6666  0.3639
10690TIP3    H153485   6.587   3.753  12.345 -0.1737 -3.0506 -0.0573
10690TIP3    H253486   6.553   3.717  12.202  0.3887  1.2702 -1.4129
10691TIP3   OH253487   6.745   3.153  12.497  0.2873  0.0552  0.7506
10691TIP3    H153488   6.723   3.244  12.477 -2.0711 -0.3863  1.0472
10691TIP3    H253489   6.665   3.104  12.477  1.5392 -1.9848  0.5058
10692TIP3   OH253490   2.463   4.199   3.085  0.3933  0.1857 -0.4647
10692TIP3    H153491   2.495   4.236   3.167  1.3399  1.6557 -1.4577
10692TIP3    H253492   2.416   4.119   3.111 -0.2237  1.1578  1.5897
10693TIP3   OH253493   5.995   5.676  13.842  0.2129 -0.4691 -0.0111
10693TIP3    H153494   5.985   5.667  13.748  2.6024 -1.0405 -0.2693
10693TIP3    H253495   5.982   5.588  13.877  2.8690 -1.0370 -0.2610
10694TIP3   OH253496   0.252   2.149  13.032 -0.3498  0.0373 -0.8917
10694TIP3    H153497   0.224   2.095  13.106  0.0445  0.3122 -0.5419
10694TIP3    H253498   0.282   2.231  13.071  0.1618  0.0641 -1.3282
10695TIP3   OH253499   3.162   2.584  12.959 -0.6032  0.2934  0.3844
10695TIP3    H153500   3.131   2.494  12.966 -0.2947  0.2175  0.8726
10695TIP3    H253501   3.187   2.595  12.867  1.8137 -0.9590  0.8124
10696TIP3   OH253502   0.553   6.256  15.398  0.1579 -0.1196  0.2214
10696TIP3    H153503   0.553   6.188  15.331 -1.3858  0.1055 -0.0439
10696TIP3    H253504   0.460   6.271  15.416  0.4379  2.2945 -0.1024
10697TIP3   OH253505   3.543   2.641   5.014 -0.2338  0.1005 -0.3782
10697TIP3    H153506   3.486   2.603   4.947 -0.6628 -2.4228  1.3183
10697TIP3    H253507   3.630   2.638   4.975 -0.5135 -1.0670 -0.9518
10698TIP3   OH253508   1.500   1.515   0.438 -0.2917  0.0126 -0.3830
10698TIP3    H153509   1.438   1.542   0.370 -0.3482 -0.7462 -0.6449
10698TIP3    H253510   1.523   1.425   0.415 -1.6859 -0.9278  1.5920
10699TIP3   OH253511   5.738   3.249   2.889  0.2384 -0.6926 -0.4865
10699TIP3    H153512   5.824   3.215   2.864  0.5559 -1.3813  1.3644
10699TIP3    H253513   5.757   3.317   2.953 -0.5409  0.5624 -1.5544
10700TIP3   OH253514   2.750   1.619  12.570  0.1049  0.3393 -0.0014
10700TIP3    H153515   2.818   1.687  12.575  1.7666 -1.1060 -1.4374
10700TIP3    H253516   2.686   1.653  12.508 -0.7791  1.9066  1.6806
10701TIP3   OH253517   1.611   4.873  13.437  0.1591 -0.2146 -0.2999
10701TIP3    H153518   1.564   4.845  13.359 -0.9435  1.8970 -0.4633
10701TIP3    H253519   1.561   4.836  13.510 -2.1754  2.2588 -0.4502
10702TIP3   OH253520   6.131   6.650  15.330 -0.1712  0.2423  0.4559
10702TIP3    H153521   6.156   6.618  15.243 -0.2270  0.5674  0.3164
10702TIP3    H253522   6.043   6.615  15.344  0.8801 -2.1279  1.5705
10703TIP3   OH253523   4.951   0.861   5.793 -0.0110  0.0679  0.1663
10703TIP3    H153524   4.893   0.935   5.777 -0.7050 -0.6232 -0.6100
10703TIP3    H253525   4.943   0.843   5.886  0.3991  1.1501  0.4223
10704TIP3   OH253526   1.044   3.031   0.230  0.1672 -0.3472  0.1191
10704TIP3    H153527   1.102   3.105   0.215 -0.8556  1.2863  3.2974
10704TIP3    H253528   0.967   3.049   0.176  0.4148  0.2622 -0.0412
10705TIP3   OH253529   3.590   1.755   0.168  0.5546  0.1440  0.2851
10705TIP3    H153530   3.580   1.728   0.259  2.5381 -0.0805  0.4883
10705TIP3    H253531   3.511   1.806   0.149 -0.2683 -0.4727  1.8720
10706TIP3   OH253532   3.562   2.346  15.997  0.3249 -0.4338 -0.1334
10706TIP3    H153533   3.478   2.380  16.029  0.9573  2.1512 -1.0122
10706TIP3    H253534   3.546   2.252  15.984 -2.6841  0.0769 -0.9897
10707TIP3   OH253535   0.426   6.010  11.552  0.4078 -0.2039  0.1887
10707TIP3    H153536   0.391   6.015  11.463  2.4741 -1.0163 -0.7252
10707TIP3    H253537   0.399   5.924  11.584 -2.8841  1.1775  1.5828
10708TIP3   OH253538   1.385   3.030  15.141  0.1843 -0.0221 -0.0583
10708TIP3    H153539   1.415   3.042  15.051  0.2047  1.6223  0.1377
10708TIP3    H253540   1.404   3.113  15.184 -1.3697 -0.1877  1.0247
10709TIP3   OH253541   5.979   4.560   5.141 -0.0646 -0.1198  0.3550
10709TIP3    H153542   6.044   4.599   5.199 -0.6998  0.5280  0.6580
10709TIP3    H253543   5.933   4.495   5.195 -0.1327 -0.0767  0.3498
10710TIP3   OH253544   1.152   3.776   3.581  0.0942 -0.3368  0.4942
10710TIP3    H153545   1.226   3.811   3.530  0.8508 -0.2302  1.6320
10710TIP3    H253546   1.076   3.825   3.550  0.8840  1.2853  1.0131
10711TIP3   OH253547   6.282   0.065  15.479  0.4516  0.3643 -0.0653
10711TIP3    H153548   6.276   0.137  15.417 -1.7073  1.3085  1.1146
10711TIP3    H253549   6.270  -0.014  15.426  0.1199  1.0542 -1.0367
10712TIP3   OH253550   5.887   5.039   0.038  0.5287  0.4097  0.0302
10712TIP3    H153551   5.981   5.052   0.056  0.4398  1.2423 -0.0509
10712TIP3    H253552   5.853   5.128   0.029  0.0594  0.0708 -1.7158
10713TIP3   OH253553   0.130   0.561   1.608 -0.1035  0.1832 -0.1002
10713TIP3    H153554   0.176   0.593   1.685  1.7360 -0.0331 -1.0618
10713TIP3    H253555   0.094   0.640   1.567  1.4799  0.6841 -0.6058
10714TIP3   OH253556   2.411   2.638   2.443 -0.2342 -0.3961 -0.0025
10714TIP3    H153557   2.318   2.633   2.466 -0.3025 -0.9375 -0.3591
10714TIP3    H253558   2.453   2.674   2.520 -0.7045 -0.4459  0.2809
10715TIP3   OH253559   1.010   1.777  17.094  0.2450  0.8061 -0.0007
10715TIP3    H153560   1.076   1.843  17.115  0.6048  0.7446 -0.8821
10715TIP3    H253561   1.057   1.714  17.039  0.1952 -0.7779  1.6854
10716TIP3   OH253562   3.559   0.666  13.496  0.3269 -0.0196 -0.2050
10716TIP3    H153563   3.613   0.726  13.445  0.4043 -0.8374 -1.1092
10716TIP3    H253564   3.477   0.715  13.510  0.8405  0.7612  0.1396
10717TIP3   OH253565   4.672   1.450  13.276  0.5594 -0.2486  0.0267
10717TIP3    H153566   4.697   1.405  13.356 -0.1467 -1.1190 -0.2283
10717TIP3    H253567   4.594   1.403  13.245  0.1487  0.7895 -0.5558
10718TIP3   OH253568   1.795   3.667   1.858 -0.0932  0.8025 -0.6394
10718TIP3    H153569   1.789   3.597   1.793 -0.2073 -1.1171  1.2994
10718TIP3    H253570   1.719   3.723   1.842 -1.4965 -1.0157 -0.6633
10719TIP3   OH253571   1.923   3.899  14.245  0.3096  0.6801  0.2580
10719TIP3    H153572   1.947   3.913  14.336 -0.5525 -0.9734  0.7870
10719TIP3    H253573   1.944   3.807  14.229 -2.3861  0.0541 -0.2418
10720TIP3   OH253574   6.028   2.368  15.964  0.2147  0.6262  0.5287
10720TIP3    H153575   6.116   2.348  15.931  0.2325 -1.8711  1.8169
10720TIP3    H253576   5.969   2.338  15.895  0.3498 -0.4129  0.8424
10721TIP3   OH253577   6.703   3.191   2.683  0.0795  0.1669  0.5316
10721TIP3    H153578   6.649   3.195   2.763 -1.2463  1.2148 -0.3716
10721TIP3    H253579   6.708   3.098   2.663 -0.5757 -0.0256  1.1977
10722TIP3   OH253580   6.058   4.279   1.059 -0.2608 -0.0944  0.1481
10722TIP3    H153581   5.970   4.264   1.094  0.4168 -0.0602  1.9452
10722TIP3    H253582   6.054   4.367   1.020 -0.6788  0.4753  1.4242
10723TIP3   OH253583   3.829   4.379  14.088  0.0556 -0.6024  0.5395
10723TIP3    H153584   3.923   4.389  14.103 -0.0508  2.4507 -0.2323
10723TIP3    H253585   3.794   4.354  14.174  1.5043 -1.5680  0.8888
10724TIP3   OH253586   6.631   1.856   5.428 -0.1906 -0.1646 -0.1098
10724TIP3    H153587   6.726   1.858   5.420 -0.0749  0.3556  1.2606
10724TIP3    H253588   6.605   1.778   5.378  0.6727  1.1222 -2.7772
10725TIP3   OH253589   5.581   3.723   3.801 -0.1203  0.4804 -0.0770
10725TIP3    H153590   5.641   3.689   3.734  1.3639  0.7490  1.0533
10725TIP3    H253591   5.574   3.816   3.783 -0.8279  0.3117 -0.6783
10726TIP3   OH253592   2.976   2.161  15.100 -0.3278 -0.2355 -0.6599
10726TIP3    H153593   3.020   2.232  15.053  0.4987 -1.0437 -1.1464
10726TIP3    H253594   2.940   2.106  15.030 -1.0458 -0.2535 -0.2838
10727TIP3   OH253595   3.806   1.759  15.977 -0.0668  0.1073  0.3978
10727TIP3    H153596   3.732   1.798  16.023 -0.4288  0.2081 -0.2555
10727TIP3    H253597   3.807   1.803  15.892  0.4514 -0.2297  0.2261
10728TIP3   OH253598   0.910   6.548   0.023  0.1858  0.2612 -0.5942
10728TIP3    H153599   0.823   6.569   0.056  0.8268  0.6294  0.9059
10728TIP3    H253600   0.952   6.633   0.009  0.6594  0.0691 -0.3552
10729TIP3   OH253601   4.702   1.217  15.354  0.1419 -0.4990 -0.0941
10729TIP3    H153602   4.702   1.181  15.265 -0.0179 -0.0742 -0.2689
10729TIP3    H253603   4.772   1.170  15.399  0.8497 -0.0648 -0.7101
10730TIP3   OH253604   4.817   1.517  14.404  0.3808 -0.2691 -0.0805
10730TIP3    H153605   4.837   1.490  14.314  0.2020  0.0399 -0.2138
10730TIP3    H253606   4.876   1.464  14.458  1.4938  0.5585 -0.4589
10731TIP3   OH253607   4.384   1.146   0.907 -0.0101  0.3688 -0.3756
10731TIP3    H153608   4.332   1.173   0.983 -2.1419  1.8203 -2.2085
10731TIP3    H253609   4.326   1.087   0.859  0.9317  0.2125 -1.3470
10732TIP3   OH253610   3.663   0.691   4.195 -0.0090 -0.7337  0.1229
10732TIP3    H153611   3.743   0.743   4.192  0.6003 -1.6509  0.1731
10732TIP3    H253612   3.607   0.737   4.258  1.4964 -1.4735  2.1187
10733TIP3   OH253613   6.237   2.533   1.474  0.0780  0.1815 -0.1173
10733TIP3    H153614   6.316   2.478   1.469  1.1961  1.7783 -0.9863
10733TIP3    H253615   6.218   2.539   1.567  1.2390  0.0779  0.1479
10734TIP3   OH253616   2.379   2.261  11.828 -0.4022  0.1471 -0.6239
10734TIP3    H153617   2.406   2.335  11.773 -0.7158  0.1001 -0.8445
10734TIP3    H253618   2.454   2.245  11.885 -0.0631  0.1831 -1.0533
10735TIP3   OH253619   4.937   2.634  15.074 -0.7345 -0.1566  0.3890
10735TIP3    H153620   4.949   2.570  15.004  1.4459 -0.5998  1.1027
10735TIP3    H253621   4.847   2.664  15.063 -0.4596 -0.1001 -2.6861
10736TIP3   OH253622   3.796   4.418  14.686 -0.1374  0.0666 -0.0934
10736TIP3    H153623   3.763   4.402  14.774  0.3866  1.0301  0.2927
10736TIP3    H253624   3.729   4.381  14.628 -0.0000 -1.4855  0.7003
10737TIP3   OH253625   3.822   5.581  12.625 -0.0135 -0.0825  0.0911
10737TIP3    H153626   3.852   5.601  12.713  3.1585  2.2841 -1.3537
10737TIP3    H253627   3.766   5.656  12.601 -0.7179 -0.6288 -0.0211
10738TIP3   OH253628   1.023   2.964  11.944 -0.2344  0.1947 -0.4401
10738TIP3    H153629   0.991   3.021  12.013 -0.0235 -0.9421  0.6237
10738TIP3    H253630   1.110   2.997  11.923 -0.7598  1.2627 -1.0161
10739TIP3   OH253631   2.802   3.613   3.452  0.5529 -0.1814 -0.5038
10739TIP3    H153632   2.879   3.650   3.497 -0.2716  1.2490 -0.2134
10739TIP3    H253633   2.748   3.689   3.432 -1.4625 -1.2570  0.5568
10740TIP3   OH253634   2.377   1.677  14.842  0.9145  0.0239 -0.6246
10740TIP3    H153635   2.310   1.731  14.799 -0.3231 -0.0971  1.0611
10740TIP3    H253636   2.344   1.588  14.834 -0.1163  0.1137  1.7425
10741TIP3   OH253637   3.318   2.423  16.311 -0.0573 -0.6290  0.5393
10741TIP3    H153638   3.359   2.436  16.226 -0.9991  1.2077  0.3372
10741TIP3    H253639   3.253   2.354  16.296  1.8028 -2.4993  0.5307
10742TIP3   OH253640   1.295   6.625  15.348 -0.1598 -0.1500 -0.0523
10742TIP3    H153641   1.282   6.532  15.331  2.4174 -0.6860  0.4824
10742TIP3    H253642   1.295   6.666  15.261 -2.5011 -0.3941 -0.2262
10743TIP3   OH253643   5.926   4.704   1.063 -0.2373  0.3761 -0.0215
10743TIP3    H153644   6.020   4.687   1.056  0.0116  1.0244  1.3402
10743TIP3    H253645   5.894   4.706   0.973  1.5146  2.5501 -0.6847
10744TIP3   OH253646   3.844   0.489  11.898  0.2243 -0.6751  1.0862
10744TIP3    H153647   3.793   0.411  11.920 -0.5764 -0.0590  1.4485
10744TIP3    H253648   3.783   0.545  11.850  1.1162 -0.7433 -0.1903
10745TIP3   OH253649   2.393   0.808  16.448 -0.8538  0.1416 -0.2816
10745TIP3    H153650   2.366   0.796  16.539  0.5284 -0.1456  0.1115
10745TIP3    H253651   2.454   0.881  16.451  1.0076 -1.3135 -0.5708
10746TIP3   OH253652   6.102   5.720  16.292  0.2771  0.0623 -0.5015
10746TIP3    H153653   6.012   5.686  16.296 -0.0316  0.2842 -3.3188
10746TIP3    H253654   6.117   5.735  16.199  3.1877  0.2684 -0.0820
10747TIP3   OH253655   6.448   0.574  14.988 -0.6429  0.4226  0.0663
10747TIP3    H153656   6.435   0.481  14.969 -0.8930  0.6152 -0.7410
10747TIP3    H253657   6.541   0.581  15.011 -0.8454 -0.1851  1.1801
10748TIP3   OH253658   1.276   2.314   1.605  0.0950  0.0606  0.0056
10748TIP3    H153659   1.370   2.321   1.621  0.6229 -3.9889 -0.2846
10748TIP3    H253660   1.267   2.241   1.543 -3.1799  1.2916 -1.1841
10749TIP3   OH253661   0.798   5.268   4.396 -0.3782  0.2897  0.0707
10749TIP3    H153662   0.801   5.353   4.440  2.1762  0.0526  0.4765
10749TIP3    H253663   0.880   5.225   4.420 -0.9447 -1.7088 -1.3165
10750TIP3   OH253664   6.222   6.285   5.943  0.0766 -0.0319  0.2581
10750TIP3    H153665   6.278   6.214   5.975  0.1986 -1.4009 -2.5964
10750TIP3    H253666   6.132   6.253   5.957  0.1210 -1.3619 -1.9162
10751TIP3   OH253667   4.479   4.472  16.659 -0.0900 -0.2100 -0.1742
10751TIP3    H153668   4.454   4.382  16.681 -1.4327  0.0507 -0.5396
10751TIP3    H253669   4.412   4.500  16.596  1.2539  0.4896 -1.3246
10752TIP3   OH253670   3.447   4.966  13.139 -0.4066  0.2247 -0.4871
10752TIP3    H153671   3.449   4.874  13.164 -2.2799  0.0761 -0.7545
10752TIP3    H253672   3.499   5.011  13.206  0.8817 -1.0470 -0.5854
10753TIP3   OH253673   2.070   2.936  12.443  0.3165  0.0460 -0.1530
10753TIP3    H153674   2.067   2.847  12.408  0.2112  0.4873 -1.3255
10753TIP3    H253675   2.148   2.975  12.403  1.0656  0.1168  1.3128
10754TIP3   OH253676   4.990   4.876   1.278 -0.1167  0.5487  0.4031
10754TIP3    H153677   5.031   4.963   1.283  1.3002  0.0881 -1.6142
10754TIP3    H253678   5.063   4.815   1.288 -0.6742 -0.3586 -0.8223
10755TIP3   OH253679   4.533   3.245   0.401  0.4014  0.3421  0.2911
10755TIP3    H153680   4.624   3.248   0.371  0.2622 -1.6629 -0.5234
10755TIP3    H253681   4.538   3.256   0.496  1.7618 -1.8136  0.5471
10756TIP3   OH253682   6.082   5.421   6.018 -0.0871 -0.2432  0.2053
10756TIP3    H153683   6.033   5.353   5.971  1.2021 -0.9197 -0.1948
10756TIP3    H253684   6.171   5.415   5.984  0.0126  1.8862 -0.0842
10757TIP3   OH253685   0.033   6.745   1.310  0.1572 -0.0919 -0.4640
10757TIP3    H153686   0.046   6.840   1.305 -0.3428 -0.0359 -0.7982
10757TIP3    H253687  -0.061   6.735   1.327  0.4216 -0.5007  0.8908
10758TIP3   OH253688   6.629   0.172  16.769 -0.2537  0.0652 -0.1432
10758TIP3    H153689   6.653   0.120  16.845 -0.2141  1.2888  0.6959
10758TIP3    H253690   6.582   0.247  16.804  1.5836  1.7776 -1.1038
10759TIP3   OH253691   1.172   2.223  15.762  0.1885  0.0091 -0.0951
10759TIP3    H153692   1.121   2.294  15.801  1.8332  1.0259  0.3227
10759TIP3    H253693   1.197   2.256  15.676  2.2519  0.6276  0.6945
10760TIP3   OH253694   1.448   6.734   4.465  0.2620  0.3144 -0.5740
10760TIP3    H153695   1.368   6.760   4.420  0.9567  1.1907 -1.3451
10760TIP3    H253696   1.459   6.797   4.536 -0.4812 -0.6732  0.4482
10761TIP3   OH253697   3.050   5.979  16.244 -0.8400 -0.6156  0.3226
10761TIP3    H153698   2.981   5.924  16.207 -2.1669 -0.6738  2.6888
10761TIP3    H253699   3.112   5.917  16.283 -1.8981 -0.5497  2.2394
10762TIP3   OH253700   4.459   3.381  16.812  0.5540  0.0329  0.5967
10762TIP3    H153701   4.522   3.352  16.878  0.5611 -0.1612  0.5050
10762TIP3    H253702   4.494   3.348  16.729  1.1344  1.2247  0.3457
10763TIP3   OH253703   1.902   1.366   6.601 -0.1224  0.6125  0.0393
10763TIP3    H153704   1.820   1.320   6.586 -0.1740  0.7898 -0.2242
10763TIP3    H253705   1.938   1.326   6.680 -0.7495  0.9411  0.4997
10764TIP3   OH253706   3.634   3.585  12.542  0.4374 -0.1990  0.1474
10764TIP3    H153707   3.558   3.531  12.519  0.9920 -1.3862  0.9483
10764TIP3    H253708   3.606   3.633  12.620  0.0396  0.4506 -0.3916
10765TIP3   OH253709   3.145   3.291  14.928  0.1040  0.1244  0.6210
10765TIP3    H153710   3.225   3.256  14.887  0.9498  1.1951  1.3130
10765TIP3    H253711   3.090   3.214  14.943  0.4830 -0.5012 -0.9487
10766TIP3   OH253712   4.647   6.084  12.149  0.1196 -0.7166 -0.0984
10766TIP3    H153713   4.582   6.018  12.127 -0.7630  0.6372 -1.7776
10766TIP3    H253714   4.681   6.114  12.065 -0.3388  1.7363  0.5113
10767TIP3   OH253715   6.150   3.316   3.828  0.1792  0.5250 -0.0026
10767TIP3    H153716   6.131   3.268   3.909  0.1362  0.3381 -0.1218
10767TIP3    H253717   6.233   3.360   3.844 -0.0952  0.9291  0.3397
10768TIP3   OH253718   6.737   1.952  16.617 -0.3993 -0.3656 -0.2256
10768TIP3    H153719   6.682   1.935  16.693  1.4009 -1.3940  0.9297
10768TIP3    H253720   6.826   1.949  16.651  0.4176  0.5286 -2.1427
10769TIP3   OH253721   6.517   3.446  10.993 -0.0223 -0.0473 -0.0177
10769TIP3    H153722   6.475   3.362  11.011  0.7544 -0.3076  0.6176
10769TIP3    H253723   6.451   3.494  10.942 -0.2938 -1.2142 -0.8371
10770TIP3   OH253724   3.799   4.194  17.049 -0.0143 -0.5670  0.2989
10770TIP3    H153725   3.807   4.203  16.954 -1.9173 -0.8650  0.0643
10770TIP3    H253726   3.754   4.111  17.062 -0.0709 -0.3755  1.4445
10771TIP3   OH253727   5.334   5.847   1.758  0.7995 -0.0979  0.2371
10771TIP3    H153728   5.255   5.794   1.745  0.7588 -0.0471  0.2757
10771TIP3    H253729   5.357   5.876   1.670  1.4692 -1.1004  0.0721
10772TIP3   OH253730   4.497   4.689   3.972 -0.0296  0.2701 -0.3325
10772TIP3    H153731   4.590   4.694   3.949  0.1114 -2.0844 -0.5237
10772TIP3    H253732   4.495   4.712   4.065  0.7979  0.0945 -0.2565
10773TIP3   OH253733   3.371   2.142   6.108 -0.3323  0.3854  0.2227
10773TIP3    H153734   3.460   2.121   6.138  0.3077  1.2602 -0.9669
10773TIP3    H253735   3.319   2.065   6.131  0.9152 -0.5069  0.1822
10774TIP3   OH253736   3.875   5.789  17.145 -0.7094  0.2244 -0.0427
10774TIP3    H153737   3.876   5.863  17.084 -1.2476  0.4322  0.2019
10774TIP3    H253738   3.947   5.806  17.205  0.2581 -0.3175 -1.0180
10775TIP3   OH253739   4.939   2.129  14.796  0.5091 -0.3745 -0.2558
10775TIP3    H153740   4.877   2.194  14.765 -0.2212 -1.5414 -1.3340
10775TIP3    H253741   4.965   2.159  14.883 -0.8449  0.6280 -0.1801
10776TIP3   OH253742   0.493   3.455  14.635  0.7261  0.1144 -0.3716
10776TIP3    H153743   0.559   3.481  14.698 -0.8365  3.0543  0.2056
10776TIP3    H253744   0.474   3.363  14.656  1.6893  0.4187  2.0978
10777TIP3   OH253745   0.096   2.614   4.673 -0.8254 -0.2160  0.3580
10777TIP3    H153746   0.105   2.644   4.764  2.7149 -0.8882  0.3653
10777TIP3    H253747   0.068   2.693   4.625  1.0420  1.2175  1.4885
10778TIP3   OH253748   1.001   0.678   1.295  0.8699 -0.1517  0.0488
10778TIP3    H153749   0.955   0.605   1.337  0.8286 -0.8080 -1.0890
10778TIP3    H253750   1.085   0.683   1.341  1.1818 -1.4189 -0.3431
10779TIP3   OH253751   1.547   5.539  17.034 -0.1296  0.2536  0.4527
10779TIP3    H153752   1.624   5.573  16.988  1.5193 -1.4381  1.8481
10779TIP3    H253753   1.544   5.589  17.116 -0.3080  0.0664  0.5594
10780TIP3   OH253754   1.287   1.422   4.672  0.1308 -0.1728  0.5724
10780TIP3    H153755   1.216   1.453   4.729  0.3192 -1.1482  1.3759
10780TIP3    H253756   1.244   1.361   4.612  0.1166  0.0329  0.3723
10781TIP3   OH253757   3.617   4.844  11.283  0.5295  0.0753  0.1397
10781TIP3    H153758   3.673   4.786  11.231 -0.6190  1.5067 -2.8511
10781TIP3    H253759   3.528   4.812  11.267  0.1887 -0.3803  2.5436
10782TIP3   OH253760   1.862   0.300  15.496 -0.0341 -0.2891 -0.3664
10782TIP3    H153761   1.874   0.221  15.443 -0.1286  0.2952 -1.2875
10782TIP3    H253762   1.791   0.278  15.556  1.3383 -1.6131  0.8472
10783TIP3   OH253763   3.936   3.813   4.827 -0.6389  0.3008  0.1919
10783TIP3    H153764   3.863   3.858   4.870  1.2306  1.0951  2.8228
10783TIP3    H253765   3.948   3.733   4.878 -0.2800 -0.3371 -0.8632
10784TIP3   OH253766   6.753   4.914  16.107  0.0186  0.1721 -0.2490
10784TIP3    H153767   6.750   4.819  16.096  3.9495 -0.3021  1.3045
10784TIP3    H253768   6.770   4.948  16.019 -3.3585 -0.2126 -1.2025
10785TIP3   OH253769   2.039   3.034  13.592 -0.0195 -0.4644  0.1124
10785TIP3    H153770   2.039   3.118  13.546 -1.9255 -0.8968 -0.7790
10785TIP3    H253771   2.128   3.000  13.580  0.5534  1.0480 -0.1769
10786TIP3   OH253772   1.276   6.367  15.248  0.2277  0.4556  0.2065
10786TIP3    H153773   1.288   6.367  15.153  1.8246 -1.8110  0.3416
10786TIP3    H253774   1.280   6.275  15.273 -0.1016  1.0086  2.5002
10787TIP3   OH253775   4.459   4.953   3.034 -0.0752  0.4022  0.1675
10787TIP3    H153776   4.410   5.023   2.991 -0.4719 -0.2378 -0.4277
10787TIP3    H253777   4.414   4.873   3.010  0.0810 -0.0300  1.2460
10788TIP3   OH253778   3.039   2.474   3.070 -0.7533 -0.5876 -0.4365
10788TIP3    H153779   3.134   2.469   3.064 -0.7107 -1.3453  0.6409
10788TIP3    H253780   3.022   2.505   3.159 -1.5111  0.0633 -0.7948
10789TIP3   OH253781   5.941   5.076   1.300 -0.0387 -0.0341  0.8393
10789TIP3    H153782   5.913   5.147   1.242 -1.5326 -0.5463  0.9108
10789TIP3    H253783   6.036   5.072   1.287 -0.2342  0.3694 -0.9927
10790TIP3   OH253784   5.212   2.493  11.678 -0.1354 -0.0277 -0.0686
10790TIP3    H153785   5.145   2.499  11.746 -0.2776 -0.7622 -0.1284
10790TIP3    H253786   5.295   2.486  11.726 -0.2071 -0.2300  0.0254
10791TIP3   OH253787   4.377   0.145  13.452 -0.6061  0.8990 -0.3017
10791TIP3    H153788   4.410   0.098  13.375 -2.4824 -0.6571 -0.2225
10791TIP3    H253789   4.443   0.130  13.519  0.2288  0.8478 -1.1056
10792TIP3   OH253790   6.239   6.521  12.455 -0.9316  0.3890 -0.2789
10792TIP3    H153791   6.170   6.456  12.445  0.3559 -1.0826 -0.1004
10792TIP3    H253792   6.256   6.523  12.549  1.3212 -1.6394 -0.5306
10793TIP3   OH253793   0.088   3.737   1.288  0.4563  0.7157  0.8208
10793TIP3    H153794   0.023   3.721   1.219  1.8220 -1.8554  0.0004
10793TIP3    H253795   0.076   3.830   1.310 -4.5249  0.1075  1.9282
10794TIP3   OH253796   2.494   3.380  15.990  0.0440  0.0956 -0.3091
10794TIP3    H153797   2.534   3.297  15.963  1.1028  0.6186 -0.4054
10794TIP3    H253798   2.429   3.355  16.056  0.0552 -0.8448 -0.6457
10795TIP3   OH253799   3.546   1.196  17.147  0.3205  0.2274  0.2344
10795TIP3    H153800   3.516   1.238  17.228  0.7475  2.6100 -0.7573
10795TIP3    H253801   3.624   1.148  17.173 -1.3890 -1.8815  1.8424
10796TIP3   OH253802   0.984   4.025   5.694 -0.4390 -0.2420 -0.0095
10796TIP3    H153803   0.957   4.070   5.774  1.7674  0.6094  0.3258
10796TIP3    H253804   0.975   3.932   5.715 -3.2471 -0.0949 -0.0661
10797TIP3   OH253805   1.098   1.665   6.779 -0.2606 -0.5454 -0.3769
10797TIP3    H153806   1.059   1.608   6.712  0.6921  0.4996 -1.8970
10797TIP3    H253807   1.184   1.687   6.744 -0.9207  2.5474 -0.3842
10798TIP3   OH253808   1.154   0.721   5.198  0.0984 -0.2714  0.9962
10798TIP3    H153809   1.162   0.627   5.213  1.6995 -0.6677 -1.7447
10798TIP3    H253810   1.235   0.757   5.234  0.4217 -0.2310  0.2412
10799TIP3   OH253811   5.344   1.709   3.058 -0.4357 -0.0208  0.6823
10799TIP3    H153812   5.412   1.658   3.102 -0.8770 -2.4480 -1.2187
10799TIP3    H253813   5.265   1.692   3.109 -0.4247 -0.6370  0.5041
10800TIP3   OH253814   1.710   3.302   3.458 -0.0905  0.2893  0.7812
10800TIP3    H153815   1.623   3.308   3.418  0.5710 -3.1357 -1.6037
10800TIP3    H253816   1.768   3.342   3.394  0.5541 -1.8665 -0.0723
10801TIP3   OH253817   0.476   1.224  12.026 -0.4145  0.2535  0.2810
10801TIP3    H153818   0.515   1.291  12.082 -1.3262  0.6642  0.4387
10801TIP3    H253819   0.507   1.141  12.062 -0.7458  0.5246  1.2100
10802TIP3   OH253820   1.924   3.418  16.281 -0.2691 -0.0500 -0.1945
10802TIP3    H153821   1.872   3.406  16.202 -0.2693  0.4831 -0.2797
10802TIP3    H253822   2.010   3.384  16.259 -0.4833 -0.6182 -0.1664
10803TIP3   OH253823   3.766   4.724   2.894  0.1680 -0.7142 -1.0612
10803TIP3    H153824   3.678   4.686   2.894  0.8275 -2.3086 -0.7982
10803TIP3    H253825   3.806   4.690   2.815  1.3475 -1.9976  0.0440
10804TIP3   OH253826   1.888   1.894  12.353 -0.4991  0.2357  0.3601
10804TIP3    H153827   1.897   1.799  12.365 -0.2873  0.2950  0.6795
10804TIP3    H253828   1.977   1.924  12.332 -0.7276  0.2360 -0.6631
10805TIP3   OH253829   3.109   4.419   1.782  0.0723 -0.8516 -0.2291
10805TIP3    H153830   3.076   4.374   1.860 -1.0314  0.8135  0.3048
10805TIP3    H253831   3.045   4.399   1.714  0.7543 -1.8616 -0.6050
10806TIP3   OH253832   4.247   6.695  11.587  0.0947  0.0996 -0.5541
10806TIP3    H153833   4.283   6.620  11.540 -0.9154  0.3604 -1.7983
10806TIP3    H253834   4.167   6.662  11.628  1.7126 -0.5475  2.4147
10807TIP3   OH253835   2.074   5.893   6.025 -0.4578  0.0387 -0.0563
10807TIP3    H153836   2.131   5.927   6.094 -2.2604  1.2864  0.9067
10807TIP3    H253837   1.989   5.881   6.068 -1.6808  1.0057 -2.0535
10808TIP3   OH253838   3.419   0.602   1.485  0.4689  0.1280  0.0534
10808TIP3    H153839   3.477   0.597   1.560  1.2949  2.8677 -0.3022
10808TIP3    H253840   3.476   0.590   1.409 -0.2226 -1.7438 -0.2291
10809TIP3   OH253841   6.677   2.056  13.970 -0.2497  0.1047 -0.4995
10809TIP3    H153842   6.660   2.132  14.025  0.6207  0.8120 -1.1956
10809TIP3    H253843   6.632   2.075  13.888 -0.6835 -0.4919 -0.4091
10810TIP3   OH253844   4.224   1.053   1.760  0.0046 -0.4909 -0.1414
10810TIP3    H153845   4.138   1.087   1.737 -0.0925 -0.8986 -0.4021
10810TIP3    H253846   4.213   0.958   1.759  0.0484 -0.5398  1.3979
10811TIP3   OH253847   1.891   0.461  15.189 -0.0260 -0.2946  1.0053
10811TIP3    H153848   1.967   0.426  15.142 -0.3118 -1.6168  1.4754
10811TIP3    H253849   1.817   0.410  15.156 -0.3471 -0.7028  2.2867
10812TIP3   OH253850   5.097   4.414   1.124 -0.1706  0.3371 -0.1937
10812TIP3    H153851   5.014   4.460   1.109 -0.5115 -0.9000 -2.5894
10812TIP3    H253852   5.162   4.466   1.078  0.2634  0.7926  0.8913
10813TIP3   OH253853   6.601   3.168   0.146 -0.6181  0.0403  0.4967
10813TIP3    H153854   6.653   3.246   0.130  0.4124 -0.8063 -0.4379
10813TIP3    H253855   6.522   3.200   0.190  0.3405  1.4393  1.2554
10814TIP3   OH253856   0.400   4.075  14.397 -0.2170  0.2057 -0.2064
10814TIP3    H153857   0.487   4.062  14.433 -1.0502 -1.6564  1.2777
10814TIP3    H253858   0.379   3.993  14.353 -1.5076  0.3413  0.1181
10815TIP3   OH253859   6.543   3.495   4.905  0.0675  0.1077 -0.4857
10815TIP3    H153860   6.592   3.534   4.833 -1.1286  1.9035 -0.3765
10815TIP3    H253861   6.570   3.544   4.982 -0.0251 -0.5913  0.0031
10816TIP3   OH253862   1.892   2.440   2.412 -0.1922  0.1503 -0.0346
10816TIP3    H153863   1.961   2.378   2.391  0.1351  0.0460  1.2712
10816TIP3    H253864   1.931   2.526   2.395 -0.8189  0.0467 -2.3603
10817TIP3   OH253865   3.865   0.561   5.329  0.0963 -0.0320  0.4024
10817TIP3    H153866   3.952   0.527   5.312 -0.2475 -0.2450 -1.0207
10817TIP3    H253867   3.877   0.656   5.336  0.3701  0.0013 -0.3973
10818TIP3   OH253868   0.625   1.587   1.362  0.7881  0.0522  0.2841
10818TIP3    H153869   0.569   1.509   1.361  0.8448  0.0100  0.3451
10818TIP3    H253870   0.586   1.645   1.427  0.2599  0.4371 -0.3716
10819TIP3   OH253871   5.998   5.551   0.168 -0.3624  0.4216  0.1428
10819TIP3    H153872   5.983   5.567   0.261  0.2210  0.5109  0.2246
10819TIP3    H253873   5.930   5.602   0.123 -0.9942 -0.0614  0.5312
10820TIP3   OH253874   1.500   2.984  15.444  0.0767 -0.2391  0.1027
10820TIP3    H153875   1.438   3.051  15.415  1.5088  0.0940 -2.5606
10820TIP3    H253876   1.586   3.020  15.420  1.2244 -1.4255  2.0925
10821TIP3   OH253877   0.963   3.490  12.086 -0.3419 -0.2217  0.4473
10821TIP3    H153878   0.934   3.428  12.019  0.3102  0.1644 -0.2193
10821TIP3    H253879   0.904   3.565  12.076  0.0314  0.0211 -0.0185
10822TIP3   OH253880   2.191   2.579   1.692  0.7757 -0.4153  0.0028
10822TIP3    H153881   2.194   2.614   1.603  1.5287  0.5511  0.3849
10822TIP3    H253882   2.242   2.498   1.687  2.3189  0.5226 -0.0980
10823TIP3   OH253883   0.434   5.497  10.828  0.1311  0.8214 -0.0870
10823TIP3    H153884   0.495   5.483  10.901  1.8995  0.3554 -1.5621
10823TIP3    H253885   0.347   5.486  10.866  1.0201 -0.0496  1.8032
10824TIP3   OH253886   6.244   0.876   0.616  0.1148 -0.7071 -0.1027
10824TIP3    H153887   6.306   0.887   0.689  0.7221  1.7636 -0.8743
10824TIP3    H253888   6.210   0.965   0.601 -2.3860 -1.7107 -0.7990
10825TIP3   OH253889   5.761   1.875   1.566  0.1773 -0.0626 -0.3428
10825TIP3    H153890   5.695   1.822   1.521 -0.7907  0.3111  0.5818
10825TIP3    H253891   5.840   1.821   1.565 -0.5330 -1.1357 -0.2144
10826TIP3   OH253892   5.830   4.787   3.291 -0.3739 -0.2514 -0.5317
10826TIP3    H153893   5.821   4.768   3.385 -2.2272  0.3873 -0.5291
10826TIP3    H253894   5.819   4.882   3.285 -0.9062 -0.3560 -1.4430
10827TIP3   OH253895   5.546   5.223   6.021 -0.2618  0.5437  0.0196
10827TIP3    H153896   5.501   5.139   6.012 -0.5971  0.8370 -1.1737
10827TIP3    H253897   5.563   5.251   5.931 -1.1763  2.3015  0.3526
10828TIP3   OH253898   3.920   5.070  13.933 -0.4390  0.0607 -0.2453
10828TIP3    H153899   3.995   5.056  13.876 -1.7688 -0.1731 -2.0458
10828TIP3    H253900   3.918   5.164  13.948  0.5760 -0.0088  0.3660
10829TIP3   OH253901   0.680   6.015  10.760 -1.0335 -0.1419  0.2087
10829TIP3    H153902   0.714   6.057  10.681 -0.6145 -0.0023  0.4583
10829TIP3    H253903   0.717   6.066  10.832 -0.1965 -1.1570  0.5317
10830TIP3   OH253904   6.054   4.522   1.693 -0.5612 -0.7600  0.2287
10830TIP3    H153905   6.085   4.589   1.633  0.3030 -1.0163  0.3727
10830TIP3    H253906   6.063   4.440   1.643 -0.5579 -0.8862  0.4354
10831TIP3   OH253907   3.637   3.313  15.850  0.3524  0.3455  0.2370
10831TIP3    H153908   3.602   3.350  15.769  2.8214 -0.3307 -1.2725
10831TIP3    H253909   3.712   3.369  15.870  0.4315 -0.1795  1.4422
10832TIP3   OH253910   2.914   5.006  12.624 -0.4091  0.6700 -0.5984
10832TIP3    H153911   2.949   4.917  12.628  0.7817  1.1508  0.7026
10832TIP3    H253912   2.979   5.055  12.574  0.6977  1.4851  1.4947
10833TIP3   OH253913   2.177   3.063   4.324  0.4095  0.3162 -0.3613
10833TIP3    H153914   2.210   3.001   4.259  2.4720  1.6865 -0.7305
10833TIP3    H253915   2.246   3.130   4.330 -0.0845  0.6869  2.6342
10834TIP3   OH253916   3.415   1.746  11.117  0.5049 -0.2865 -0.6572
10834TIP3    H153917   3.467   1.826  11.111  0.7857 -0.4992 -1.0933
10834TIP3    H253918   3.465   1.681  11.068  1.0909 -1.1722  1.0443
10835TIP3   OH253919   3.705   0.055  15.080  0.0195  0.0515  0.2373
10835TIP3    H153920   3.657  -0.003  15.021 -0.7132  0.0844  0.7860
10835TIP3    H253921   3.751  -0.004  15.139 -1.4360 -0.0058  1.3666
10836TIP3   OH253922   0.233   6.728   6.605  0.0762 -0.0455 -0.1168
10836TIP3    H153923   0.292   6.687   6.542  1.2298  0.9102  0.2850
10836TIP3    H253924   0.271   6.815   6.620 -1.3845  0.5523  0.2599
10837TIP3   OH253925   1.242   0.225   4.338  0.2438  0.2631  0.6519
10837TIP3    H153926   1.231   0.290   4.406 -0.6247 -0.2764  1.0523
10837TIP3    H253927   1.234   0.273   4.256  0.4948  0.7881  0.9360
10838TIP3   OH253928   0.359   2.966  15.152 -0.3005 -0.5219 -0.2344
10838TIP3    H153929   0.324   2.978  15.063 -1.9712 -0.2018  0.4148
10838TIP3    H253930   0.419   3.039  15.164 -0.9020  0.0737 -0.7436
10839TIP3   OH253931   0.323   5.600  17.111  0.0506 -0.1096  0.3540
10839TIP3    H153932   0.377   5.663  17.063 -1.0600  0.7722  0.1992
10839TIP3    H253933   0.385   5.548  17.161  1.1272  0.0116 -0.8075
10840TIP3   OH253934   6.074   4.355  13.414 -0.1314  0.7487  0.1459
10840TIP3    H153935   6.115   4.270  13.396  0.0025  0.7144  0.5886
10840TIP3    H253936   6.068   4.359  13.510 -0.4282  1.1034  0.1175
10841TIP3   OH253937   3.959   6.297   2.881 -0.2681  0.0286 -0.6559
10841TIP3    H153938   3.988   6.373   2.830 -0.5356  0.7479  0.2359
10841TIP3    H253939   3.913   6.242   2.818  0.6773  0.1776 -1.5042
10842TIP3   OH253940   5.303   4.524   3.741  0.3369 -0.5591 -0.3999
10842TIP3    H153941   5.326   4.433   3.720 -0.8689 -0.9636 -0.1136
10842TIP3    H253942   5.382   4.574   3.723  0.4979 -1.4112 -2.2776
10843TIP3   OH253943   1.720   2.275   3.722  0.2604 -0.2516 -0.1285
10843TIP3    H153944   1.643   2.289   3.667  0.4642  0.5747 -0.2125
10843TIP3    H253945   1.706   2.332   3.798  0.7739 -0.1206 -0.1300
10844TIP3   OH253946   4.647   0.422   3.433  0.5567  0.1092  0.0754
10844TIP3    H153947   4.698   0.497   3.464 -0.5064  0.7047  0.4275
10844TIP3    H253948   4.662   0.354   3.499  0.2184  0.5697  0.6363
10845TIP3   OH253949   5.576   1.032  16.322  0.1598  0.1221  0.3818
10845TIP3    H153950   5.514   0.965  16.292  1.1051 -0.5100 -0.2314
10845TIP3    H253951   5.636   1.042  16.248  0.3202  1.3130  0.6599
10846TIP3   OH253952   0.792   2.342   0.110  0.3613  0.3072 -0.3127
10846TIP3    H153953   0.735   2.298   0.048  1.6082 -1.3032 -0.3742
10846TIP3    H253954   0.752   2.326   0.196  0.4813 -0.4721 -0.3941
10847TIP3   OH253955   4.495   2.173   4.283  0.2773  0.3859  0.2044
10847TIP3    H153956   4.460   2.159   4.371  1.0222 -1.1541  0.2931
10847TIP3    H253957   4.575   2.120   4.280  0.2655  0.3970 -1.3971
10848TIP3   OH253958   4.587   6.230  12.360  0.0950 -0.6147 -0.2488
10848TIP3    H153959   4.658   6.293  12.369 -0.8820  0.2536  2.1148
10848TIP3    H253960   4.601   6.191  12.273  0.5473  3.0400 -1.9982
10849TIP3   OH253961   1.023   0.094  15.140  0.4304 -0.0080  0.1797
10849TIP3    H153962   0.960   0.074  15.209  0.2568  0.5400  0.1809
10849TIP3    H253963   1.108   0.092  15.185  0.2146  1.7261  0.7296
10850TIP3   OH253964   1.051   5.030  17.103  0.0008 -0.0540  0.7906
10850TIP3    H153965   1.144   5.053  17.093  0.7120 -2.3695  1.4561
10850TIP3    H253966   1.034   4.966  17.034 -0.5952 -0.9384  1.7219
10851TIP3   OH253967   1.877   1.949   3.761  0.2648  0.4375  0.1567
10851TIP3    H153968   1.879   1.857   3.787 -0.8516  0.4918  0.4899
10851TIP3    H253969   1.790   1.980   3.786  0.1858  1.2757 -1.0310
10852TIP3   OH253970   0.967   1.261  14.594  0.4084  0.4340 -0.0143
10852TIP3    H153971   0.883   1.300  14.618  0.6804  4.0107 -3.6086
10852TIP3    H253972   1.031   1.308  14.648  0.3944  2.1636 -1.3857
10853TIP3   OH253973   4.919   0.922   1.768 -0.2358  0.5149 -0.3411
10853TIP3    H153974   4.942   0.845   1.821 -0.0671  0.6006 -0.2889
10853TIP3    H253975   4.835   0.899   1.728  0.3331 -0.1402 -1.1860
10854TIP3   OH253976   1.306   3.409  16.834  0.1647 -0.5005 -0.1635
10854TIP3    H153977   1.360   3.355  16.892 -0.3238  0.1096  0.8999
10854TIP3    H253978   1.298   3.358  16.754  1.0075 -1.2979  0.2338
10855TIP3   OH253979   5.394   5.523   3.394 -0.3370  0.1004  0.4153
10855TIP3    H153980   5.426   5.461   3.329  1.9590 -1.4912  2.8483
10855TIP3    H253981   5.335   5.472   3.449 -1.1702  1.0329  0.4030
10856TIP3   OH253982   0.715   2.287   5.845  0.6570  0.0059  0.0514
10856TIP3    H153983   0.723   2.193   5.825 -0.2646 -0.1134  0.1902
10856TIP3    H253984   0.799   2.310   5.884  0.6475 -0.9340  0.6804
10857TIP3   OH253985   2.504   6.002  11.730  0.4322  0.0044 -0.1484
10857TIP3    H153986   2.525   6.088  11.766 -0.4283 -0.1221  0.7041
10857TIP3    H253987   2.431   6.018  11.671 -1.2402 -0.4047  1.7001
10858TIP3   OH253988   5.803   2.102   2.140  0.3752  0.3102  0.3190
10858TIP3    H153989   5.810   2.166   2.069  0.1556 -0.2567 -0.2262
10858TIP3    H253990   5.839   2.021   2.104  0.9971  0.2100  1.1276
10859TIP3   OH253991   1.972   6.077  16.219  0.4820 -0.3764 -0.1304
10859TIP3    H153992   1.972   6.155  16.163 -0.7844  0.3196  0.7868
10859TIP3    H253993   1.967   6.004  16.157  0.5960  0.3087 -0.9747
10860TIP3   OH253994   1.975   5.873   0.820  0.2132 -0.3877  0.8692
10860TIP3    H153995   1.919   5.830   0.884  0.5388 -0.8959  0.8192
10860TIP3    H253996   1.958   5.826   0.738 -1.3469  1.2178  0.1949
10861TIP3   OH253997   4.689   3.896  14.998  0.1879 -0.4303 -0.2707
10861TIP3    H153998   4.729   3.854  15.074  0.4915  0.6207  0.1779
10861TIP3    H253999   4.760   3.945  14.957 -0.3234  0.3130 -0.2906
10862TIP3   OH254000   6.712   2.643  13.980 -0.2131 -0.0540 -0.6404
10862TIP3    H154001   6.757   2.707  14.035 -0.7445 -0.0440 -0.2068
10862TIP3    H254002   6.622   2.642  14.013 -0.5984  0.1043 -1.6482
10863TIP3   OH254003   1.643   4.563  12.930  0.4606 -0.0829  0.1433
10863TIP3    H154004   1.684   4.647  12.950 -0.4215  0.8040 -1.4840
10863TIP3    H254005   1.558   4.587  12.893 -0.2995 -1.7555  0.7434
10864TIP3   OH254006   6.619   5.802  14.367 -0.1700 -0.0199  0.6656
10864TIP3    H154007   6.622   5.782  14.273 -0.6297 -0.0163  0.6476
10864TIP3    H254008   6.627   5.718  14.410  0.1686 -0.0090  0.6257
10865TIP3   OH254009   3.740   6.612   5.344  0.2907 -0.2736  0.0451
10865TIP3    H154010   3.742   6.705   5.322  0.5609 -0.4107 -0.5266
10865TIP3    H254011   3.820   6.598   5.396  0.6507 -0.3463 -0.5271
10866TIP3   OH254012   4.324   1.609   3.767  0.1897  0.6952 -0.0383
10866TIP3    H154013   4.355   1.666   3.697  0.5443  0.9074  0.2851
10866TIP3    H254014   4.288   1.669   3.833  2.3585  0.7481  1.2186
10867TIP3   OH254015   2.271   4.294   2.865 -0.1380 -0.2410  0.1099
10867TIP3    H154016   2.335   4.364   2.856  0.2038 -0.3186  1.6472
10867TIP3    H254017   2.322   4.213   2.858 -0.2982 -0.3187 -0.1650
10868TIP3   OH254018   5.614   4.727  16.897  0.4226 -0.3578 -0.2006
10868TIP3    H154019   5.592   4.820  16.890  1.7815  0.0605  0.6495
10868TIP3    H254020   5.569   4.686  16.823 -1.5824  0.6819  0.3724
10869TIP3   OH254021   6.049   2.615   2.308  0.1793 -0.4383 -0.2627
10869TIP3    H154022   6.068   2.686   2.247  0.9981  0.2086  0.7298
10869TIP3    H254023   6.131   2.598   2.353 -0.2309 -1.4085  0.1610
10870TIP3   OH254024   0.325   6.211  17.062 -0.6156  0.2143 -0.0233
10870TIP3    H154025   0.312   6.305  17.067 -0.0003  0.2478  1.8064
10870TIP3    H254026   0.386   6.191  17.133  0.4488 -1.3802 -1.3055
10871TIP3   OH254027   0.101   4.299  11.286 -0.3331  0.3802  0.3819
10871TIP3    H154028   0.062   4.298  11.199 -0.7437  0.1014  0.5640
10871TIP3    H254029   0.157   4.376  11.287 -0.3875  0.4253 -0.1018
10872TIP3   OH254030   2.149   4.760   6.209 -0.1700 -0.4149  0.0464
10872TIP3    H154031   2.101   4.701   6.152  0.1604  1.7195 -2.6459
10872TIP3    H254032   2.115   4.847   6.188  3.3275  0.9760 -0.5204
10873TIP3   OH254033   0.411   3.264   2.228  0.3593 -0.4104 -0.3620
10873TIP3    H154034   0.324   3.229   2.209 -0.1689  0.9675 -0.6181
10873TIP3    H254035   0.467   3.225   2.160 -0.0582 -1.2480 -0.2436
10874TIP3   OH254036   5.415   2.424  17.268 -0.0146 -0.2346  0.0247
10874TIP3    H154037   5.392   2.400  17.178  1.0167 -0.7169 -0.1268
10874TIP3    H254038   5.424   2.340  17.313 -1.2069  0.0243  0.7630
10875TIP3   OH254039   5.562   1.443  14.429 -0.3786 -0.0504  0.1751
10875TIP3    H154040   5.628   1.412  14.367  1.1091 -1.4758  2.3485
10875TIP3    H254041   5.531   1.364  14.473 -0.8237  0.9814  1.7878
10876TIP3   OH254042   4.735   6.413   0.617  0.1016 -0.3913 -0.5871
10876TIP3    H154043   4.796   6.486   0.627 -0.3428 -0.0731 -0.1821
10876TIP3    H254044   4.658   6.452   0.575  0.6234 -1.0239 -2.1876
10877TIP3   OH254045   3.638   5.911   2.480  0.3103 -0.0291 -0.4043
10877TIP3    H154046   3.587   5.969   2.424  0.7909  0.0633 -0.7560
10877TIP3    H254047   3.577   5.842   2.507  0.2589 -0.4673 -1.6099
10878TIP3   OH254048   6.202   6.524   1.039 -0.2708  0.3398  0.5194
10878TIP3    H154049   6.162   6.475   1.111  0.7722 -2.4453 -0.6596
10878TIP3    H254050   6.296   6.506   1.047 -0.1015  0.2592 -1.3186
10879TIP3   OH254051   3.559   4.044   5.774 -0.0394 -0.2235 -0.2080
10879TIP3    H154052   3.652   4.056   5.795  0.2764 -1.0599 -1.0745
10879TIP3    H254053   3.545   3.950   5.783 -1.7732  0.1940  3.7527
10880TIP3   OH254054   1.677   1.797  12.831  0.4138 -0.1791  0.1506
10880TIP3    H154055   1.689   1.820  12.739  1.0314 -0.3312  0.1835
10880TIP3    H254056   1.648   1.706  12.830  3.9267 -1.4670  0.1593
10881TIP3   OH254057   3.652   3.368  12.228  0.2358  0.1576  0.1276
10881TIP3    H154058   3.650   3.388  12.134  0.1116  3.5923  0.7002
10881TIP3    H254059   3.568   3.326  12.245 -0.7389  1.5536 -0.9785
10882TIP3   OH254060   5.974   5.679  14.356  0.2968  0.3840 -0.0620
10882TIP3    H154061   5.918   5.603  14.341 -0.6680  1.4629 -2.5499
10882TIP3    H254062   6.024   5.687  14.274  1.4057  1.6106  0.7010
10883TIP3   OH254063   4.075   6.382  12.372  0.7480 -0.4887 -0.0792
10883TIP3    H154064   4.046   6.409  12.284  0.0390  0.3242  0.3894
10883TIP3    H254065   3.995   6.350  12.414  1.1862 -1.3894  0.0942
10884TIP3   OH254066   4.006   2.872   0.076  0.3727 -0.3667 -0.2195
10884TIP3    H154067   4.014   2.913  -0.010  0.8834 -0.4346 -0.2049
10884TIP3    H254068   3.986   2.780   0.058 -0.9004 -0.0982 -0.2488
10885TIP3   OH254069   0.575   0.656  15.315  0.2331 -0.2997  0.0338
10885TIP3    H154070   0.492   0.693  15.346  0.6638  0.0645  0.7913
10885TIP3    H254071   0.575   0.566  15.347  0.7706  0.1373  1.3461
10886TIP3   OH254072   1.495   4.073   1.677 -0.4498 -0.3777 -0.3733
10886TIP3    H154073   1.411   4.049   1.716 -0.3773 -0.3873 -0.2235
10886TIP3    H254074   1.487   4.045   1.585 -0.2615 -1.2363 -0.1365
10887TIP3   OH254075   0.097   2.469  14.900  0.3799 -0.2835  0.5211
10887TIP3    H154076   0.078   2.490  14.992  2.1891  2.2959  0.3967
10887TIP3    H254077   0.172   2.410  14.904  1.1758  0.7183  0.7140
10888TIP3   OH254078   3.484   4.518   1.099  0.2374 -0.4180  0.3049
10888TIP3    H154079   3.471   4.605   1.063  0.5558 -0.2599  0.5687
10888TIP3    H254080   3.406   4.502   1.153 -0.1670 -0.5952 -0.3229
10889TIP3   OH254081   5.806   3.841  12.608 -0.3295  0.2169  0.1970
10889TIP3    H154082   5.892   3.883  12.615  0.5236 -0.8889 -2.2707
10889TIP3    H254083   5.816   3.759  12.655 -1.0421  1.3647  2.4545
10890TIP3   OH254084   2.515   3.388  14.023  0.0433 -0.4478 -0.3424
10890TIP3    H154085   2.567   3.423  14.096  0.8916 -1.4811 -0.4226
10890TIP3    H254086   2.569   3.405  13.945 -0.5610  0.0697 -0.6552
10891TIP3   OH254087   0.030   5.030  14.763  0.9127  0.2141  0.1988
10891TIP3    H154088   0.063   5.027  14.673 -1.9644 -1.2567 -0.9141
10891TIP3    H254089   0.015   4.939  14.786  0.8440  0.6208  1.9090
10892TIP3   OH254090   2.844   1.173  10.899  0.6407 -0.5500 -0.2254
10892TIP3    H154091   2.841   1.265  10.926  0.1496 -0.7300  0.3591
10892TIP3    H254092   2.929   1.164  10.856  0.4950  0.2914 -0.7206
10893TIP3   OH254093   3.169   3.181  13.381  0.4768 -0.0060  0.3097
10893TIP3    H154094   3.103   3.139  13.326  0.2103 -0.6749  1.1239
10893TIP3    H254095   3.234   3.213  13.319 -0.1543 -0.1450 -0.4447
10894TIP3   OH254096   1.616   5.963   5.948  0.1648 -0.0529 -0.3321
10894TIP3    H154097   1.536   6.009   5.923 -0.1926  0.9596  2.4498
10894TIP3    H254098   1.685   6.004   5.895 -0.4880  2.2127  0.4623
10895TIP3   OH254099   2.401   3.206   4.349  0.5352  0.2982 -0.2597
10895TIP3    H154100   2.471   3.190   4.285  0.1522 -0.4306 -0.4996
10895TIP3    H254101   2.443   3.261   4.415  1.5645 -0.7053 -0.0279
10896TIP3   OH254102   0.419   1.685   1.556 -0.0581 -0.0240 -0.0669
10896TIP3    H154103   0.368   1.760   1.524 -0.6233 -0.1833  0.4361
10896TIP3    H254104   0.353   1.619   1.577  0.1766  0.3951  2.2991
10897TIP3   OH254105   3.655   1.530  16.487 -0.3621 -0.6937 -0.3421
10897TIP3    H154106   3.606   1.607  16.515 -0.9694 -1.7761  1.8285
10897TIP3    H254107   3.738   1.535  16.534  0.2297 -0.6248 -1.3564
10898TIP3   OH254108   0.541   4.770  16.858 -0.1371  0.2869 -0.6616
10898TIP3    H154109   0.473   4.767  16.925  0.0235  1.6076 -0.4072
10898TIP3    H254110   0.525   4.852  16.811 -0.0047 -0.4275 -1.9888
10899TIP3   OH254111   6.539   2.934   3.835  0.0522  0.5892 -0.0972
10899TIP3    H154112   6.542   3.007   3.896 -0.7477  0.7447 -0.2328
10899TIP3    H254113   6.493   2.864   3.882  2.7103 -0.6380  0.8457
10900TIP3   OH254114   4.676   6.649  16.586  0.3367 -0.1339 -0.2705
10900TIP3    H154115   4.658   6.564  16.547  0.3835  0.9785 -2.8746
10900TIP3    H254116   4.762   6.674  16.552 -0.0839  1.3623 -0.3250
10901TIP3   OH254117   5.708   3.143   3.285 -0.3256  0.0108  0.2342
10901TIP3    H154118   5.650   3.096   3.345  0.3004  0.0790  0.8886
10901TIP3    H254119   5.651   3.209   3.245 -1.5424 -1.9789 -1.5803
10902TIP3   OH254120   3.307   2.570  17.211  0.4525  0.2342 -0.1265
10902TIP3    H154121   3.364   2.499  17.241 -1.0723 -1.4558 -1.0254
10902TIP3    H254122   3.335   2.586  17.121 -0.4765 -0.6336 -0.5861
10903TIP3   OH254123   6.686   6.050  16.610  0.0203  0.1885 -0.0476
10903TIP3    H154124   6.674   6.090  16.524  0.4002  1.5722  0.5189
10903TIP3    H254125   6.686   6.124  16.671  0.9521 -0.6581  1.0142
10904TIP3   OH254126   6.408   5.380   2.395 -0.3938  0.3901 -0.2375
10904TIP3    H154127   6.440   5.443   2.459 -1.2244  0.8779 -0.2759
10904TIP3    H254128   6.423   5.294   2.435  1.6148  0.5350 -0.5778
10905TIP3   OH254129   6.204   5.717   1.063 -0.0831  0.4022 -0.3771
10905TIP3    H154130   6.217   5.802   1.019 -0.3800  0.8817  0.4410
10905TIP3    H254131   6.149   5.738   1.139  0.2760 -0.4424  0.1217
10906TIP3   OH254132   2.876   0.239  15.466  0.2029 -0.3061 -0.6614
10906TIP3    H154133   2.903   0.199  15.548  0.4208  2.2373  0.6075
10906TIP3    H254134   2.810   0.180  15.430 -0.3311 -1.1930  1.6446
10907TIP3   OH254135   4.472   0.029   2.835  0.0221 -0.2240 -0.3974
10907TIP3    H154136   4.490   0.040   2.741 -1.1255  0.9288 -0.5090
10907TIP3    H254137   4.558   0.034   2.876  0.5527 -0.8142 -1.3836
10908TIP3   OH254138   3.542   4.542  14.226  0.0402 -0.3708 -0.2412
10908TIP3    H154139   3.481   4.470  14.246  0.7294 -0.5253  1.4879
10908TIP3    H254140   3.550   4.540  14.131 -0.4379 -2.2032 -0.2933
10909TIP3   OH254141   4.271   2.047  13.942  0.1515  0.0065  0.3662
10909TIP3    H154142   4.195   2.076  13.992  1.3339 -1.2612  3.1218
10909TIP3    H254143   4.240   1.973  13.890 -0.5917 -0.3402  1.2746
10910TIP3   OH254144   0.582   1.178   3.013 -0.1689  0.1697 -0.0433
10910TIP3    H154145   0.658   1.120   3.017  2.9106  3.7598 -1.2158
10910TIP3    H254146   0.549   1.168   2.924  0.4393  0.3069 -0.2894
10911TIP3   OH254147   5.712   1.248   2.799 -0.3627  0.1021  0.4524
10911TIP3    H154148   5.747   1.315   2.858 -0.2730  0.6559 -0.2196
10911TIP3    H254149   5.710   1.168   2.852  1.2047  0.2189  0.7405
10912TIP3   OH254150   6.062   3.701  11.559  0.0255  0.5363 -0.4432
10912TIP3    H154151   5.973   3.732  11.574  0.3085  0.2174  2.5576
10912TIP3    H254152   6.064   3.615  11.600  1.7824  0.7029 -0.1011
10913TIP3   OH254153   2.157   4.115   4.623  0.4094 -0.0875 -0.4990
10913TIP3    H154154   2.154   4.045   4.689  1.5578 -1.0504 -1.4116
10913TIP3    H254155   2.202   4.187   4.666 -0.2841 -0.1026  0.2760
10914TIP3   OH254156   6.510   2.373   3.008  0.0173 -0.1397 -0.5504
10914TIP3    H154157   6.550   2.449   3.051 -1.6387  0.6062 -0.2410
10914TIP3    H254158   6.447   2.340   3.072 -0.0890 -1.0979 -1.1316
10915TIP3   OH254159   1.973   4.734  11.661 -0.1319  0.4087  0.2550
10915TIP3    H154160   1.987   4.780  11.578  0.7936  0.6450  0.5341
10915TIP3    H254161   1.994   4.798  11.729 -1.6363  0.4592  0.7091
10916TIP3   OH254162   4.219   5.972   0.045 -0.2318  0.2652  0.3697
10916TIP3    H154163   4.146   6.034   0.037 -0.7038 -0.4389 -1.0634
10916TIP3    H254164   4.296   6.022   0.018 -0.7429  0.0206 -1.6578
10917TIP3   OH254165   3.293   4.652   5.754  0.2465  0.3308 -0.7933
10917TIP3    H154166   3.297   4.578   5.815  0.2185  1.9256  1.2591
10917TIP3    H254167   3.375   4.647   5.705 -0.2163 -1.6317 -1.4812
10918TIP3   OH254168   5.573   6.076   5.250  0.1340  0.0404 -0.0188
10918TIP3    H154169   5.570   5.995   5.199  1.2779 -0.3598  0.4999
10918TIP3    H254170   5.636   6.131   5.204  0.3845  0.0882  0.3729
10919TIP3   OH254171   2.792   6.052  16.480 -0.1114 -0.0853  0.4634
10919TIP3    H154172   2.722   6.008  16.527  0.0427 -0.5473  0.2632
10919TIP3    H254173   2.869   6.042  16.537 -0.2276  0.5416  0.7496
10920TIP3   OH254174   5.398   5.855   5.958  0.6403 -0.3210  0.5868
10920TIP3    H154175   5.451   5.845   6.037 -1.9777 -2.4004  2.2048
10920TIP3    H254176   5.414   5.775   5.908 -1.1696 -1.1616  1.2848
10921TIP3   OH254177   4.599   2.886  12.646 -0.4698  0.3655  0.4586
10921TIP3    H154178   4.649   2.821  12.695  1.2721  0.8108 -0.6388
10921TIP3    H254179   4.532   2.834  12.600 -0.5333 -0.3483  1.3243
10922TIP3   OH254180   0.154   0.899  16.532 -0.5614  0.0360 -0.3621
10922TIP3    H154181   0.184   0.924  16.620 -1.6803  0.1927 -0.0067
10922TIP3    H254182   0.223   0.841  16.499  0.6551  1.2362 -0.0325
10923TIP3   OH254183   5.443   5.349   1.537  0.0904 -0.8521 -0.4749
10923TIP3    H154184   5.350   5.364   1.552  0.5895  0.5569  1.6377
10923TIP3    H254185   5.484   5.366   1.622  2.0753 -3.4932 -0.7658
10924TIP3   OH254186   2.270   1.363   2.944  0.5833 -0.0217  0.0468
10924TIP3    H154187   2.338   1.317   2.994  0.7708 -0.2424 -0.4097
10924TIP3    H254188   2.194   1.362   3.002  0.7377 -0.4634  0.2486
10925TIP3   OH254189   6.126   3.625  15.839  0.0732 -0.2164  0.1257
10925TIP3    H154190   6.103   3.559  15.904  0.4625 -1.9227 -1.3866
10925TIP3    H254191   6.065   3.698  15.856 -0.3783 -0.9490  1.8278
10926TIP3   OH254192   2.327   0.915  13.513  0.6196  0.5253 -0.1174
10926TIP3    H154193   2.285   0.909  13.427 -0.6282 -1.0848  0.5392
10926TIP3    H254194   2.278   0.984  13.558 -0.7907 -0.7157  0.3238
10927TIP3   OH254195   5.375   0.390   0.270  0.2255  0.6925 -0.5121
10927TIP3    H154196   5.361   0.484   0.283 -2.2993  0.5201 -1.3714
10927TIP3    H254197   5.428   0.384   0.191 -0.5068  1.4117 -1.0808
10928TIP3   OH254198   6.250   3.541  14.791  0.5472 -0.2238 -0.5025
10928TIP3    H154199   6.255   3.579  14.703 -1.1942  0.5058 -0.3194
10928TIP3    H254200   6.316   3.471  14.791  0.3302 -0.4697 -2.4968
10929TIP3   OH254201   4.796   4.577  14.002  0.3928 -0.1249 -0.3160
10929TIP3    H154202   4.889   4.590  14.021  0.3982 -0.2610 -0.2519
10929TIP3    H254203   4.786   4.482  13.994  0.6385 -0.0216 -2.2706
10930TIP3   OH254204   0.172   4.824   3.004  0.0938 -0.5415 -0.1793
10930TIP3    H154205   0.103   4.758   2.993  0.7019 -1.6426  2.0629
10930TIP3    H254206   0.126   4.903   3.031 -0.3983 -0.8694 -0.0466
10931TIP3   OH254207   6.236   1.515   0.735  0.0544  0.6827 -0.1617
10931TIP3    H154208   6.215   1.580   0.803 -1.0688  0.5669 -0.3931
10931TIP3    H254209   6.153   1.474   0.713  0.6655 -0.4735 -0.4171
10932TIP3   OH254210   2.073   5.251   3.744 -0.4208  0.4072 -0.1362
10932TIP3    H154211   2.013   5.231   3.673  1.1248 -0.8402 -1.1634
10932TIP3    H254212   2.050   5.189   3.813 -1.4422  1.1281  0.1923
10933TIP3   OH254213   2.898   6.746   1.288 -0.2459  0.3433  0.1480
10933TIP3    H154214   2.894   6.742   1.384  0.6505  0.1803  0.1857
10933TIP3    H254215   2.970   6.687   1.265  0.0237  0.9528 -0.5773
10934TIP3   OH254216   3.732   5.071   3.043  0.1029 -0.1064  0.5619
10934TIP3    H154217   3.668   5.039   3.106  1.8992 -1.5207  1.7703
10934TIP3    H254218   3.790   5.128   3.095  0.4795  0.2669 -0.2483
10935TIP3   OH254219   6.140   1.070  13.713 -0.2324 -0.1095  0.5460
10935TIP3    H154220   6.213   1.068  13.775  0.7171 -1.5713 -0.5751
10935TIP3    H254221   6.154   1.151  13.664  0.9897 -0.6434 -0.0341
10936TIP3   OH254222   1.669   4.426   6.677 -0.3349 -0.2332 -0.0550
10936TIP3    H154223   1.575   4.445   6.681 -1.3280 -2.9614 -4.1340
10936TIP3    H254224   1.684   4.369   6.752 -1.8260  0.4801  0.8441
10937TIP3   OH254225   2.989   1.363  16.113 -0.2604  0.0453 -0.2959
10937TIP3    H154226   3.012   1.370  16.205  0.8166 -2.9267 -0.1986
10937TIP3    H254227   3.074   1.357  16.068 -0.7077  2.7438 -1.7273
10938TIP3   OH254228   3.934   5.828  11.853  0.1351 -0.1250 -0.0044
10938TIP3    H154229   3.874   5.777  11.906 -0.2471  2.2803  2.1020
10938TIP3    H254230   3.878   5.888  11.804  0.6688  0.6769  0.3316
10939TIP3   OH254231   1.539   0.848  14.543  0.0439  0.1009  0.8899
10939TIP3    H154232   1.596   0.785  14.499  0.2498  1.2931 -0.6243
10939TIP3    H254233   1.451   0.825  14.513  0.1737  0.8480 -0.0919
10940TIP3   OH254234   2.232   0.327  12.523  0.3065  0.1617 -0.0241
10940TIP3    H154235   2.188   0.412  12.521 -2.1361 -1.0126 -0.1062
10940TIP3    H254236   2.183   0.277  12.588 -0.3453 -2.1246 -2.1143
10941TIP3   OH254237   0.895   6.066  12.518 -0.0752  0.1195 -0.8349
10941TIP3    H154238   0.916   5.973  12.528  0.1187  0.1181 -1.2475
10941TIP3    H254239   0.934   6.091  12.434 -1.5546  0.1503 -1.5577
10942TIP3   OH254240   4.707   6.114   5.540  0.5804  0.1210  0.0428
10942TIP3    H154241   4.665   6.094   5.624  0.9794  1.6001  0.6405
10942TIP3    H254242   4.637   6.149   5.485  0.7858  1.7024  0.7190
10943TIP3   OH254243   0.869   3.127  13.966 -0.1868  0.3442  0.3726
10943TIP3    H154244   0.775   3.144  13.965 -0.2888 -0.2137 -0.8719
10943TIP3    H254245   0.876   3.034  13.987  0.0473  0.2301 -0.1908
10944TIP3   OH254246   5.665   0.588   6.357 -0.7936  0.1308 -0.3985
10944TIP3    H154247   5.744   0.589   6.412 -0.9284 -0.2701 -0.1975
10944TIP3    H254248   5.672   0.668   6.304 -0.3241  0.1706 -0.2809
10945TIP3   OH254249   4.958   0.998   5.207 -0.4511 -0.3503  0.1728
10945TIP3    H154250   4.909   0.968   5.130 -1.4981 -1.7141  1.3208
10945TIP3    H254251   4.966   0.921   5.262  3.0945 -0.2322  0.0621
10946TIP3   OH254252   2.823   0.797  15.953 -0.1633 -0.5913  0.2663
10946TIP3    H154253   2.773   0.772  15.876  0.5185 -0.9890 -0.0599
10946TIP3    H254254   2.759   0.838  16.011 -0.7811 -0.7334 -0.2991
10947TIP3   OH254255   2.828   1.004   1.606  0.0397 -0.4681 -0.0649
10947TIP3    H154256   2.895   0.962   1.552  1.4232  0.3278  0.9843
10947TIP3    H254257   2.747   0.956   1.585  0.7245 -0.8390 -2.0545
10948TIP3   OH254258   2.951   0.934   6.417 -0.1183  0.0091  0.2531
10948TIP3    H154259   3.046   0.920   6.422 -0.2623 -0.3766  2.6232
10948TIP3    H254260   2.939   1.025   6.443 -0.3299  0.5027 -1.4441
10949TIP3   OH254261   2.258   0.829   1.124 -0.2590  0.0786 -0.2202
10949TIP3    H154262   2.190   0.767   1.097  2.2219 -2.2301 -1.6799
10949TIP3    H254263   2.239   0.847   1.216 -2.3931 -1.0503 -0.3761
10950TIP3   OH254264   3.601   4.673   1.710 -0.2916  0.6452  0.5065
10950TIP3    H154265   3.558   4.754   1.735  0.5650  1.1115  0.4963
10950TIP3    H254266   3.584   4.613   1.784  0.4838  1.3609  1.2769
10951TIP3   OH254267   2.188   1.505  11.762 -0.0084  0.0521 -0.4375
10951TIP3    H154268   2.220   1.593  11.740 -0.9142  1.0368  1.8269
10951TIP3    H254269   2.107   1.495  11.712  1.7340 -0.9107 -3.2505
10952TIP3   OH254270   5.487   0.667  15.980  0.1898 -0.2539  0.7374
10952TIP3    H154271   5.570   0.670  16.027 -0.9767 -0.2935  2.9602
10952TIP3    H254272   5.492   0.739  15.916  1.6507  0.1698  1.3004
10953TIP3   OH254273   0.481   5.409   0.605  0.8351 -0.1217  0.3350
10953TIP3    H154274   0.443   5.325   0.578  1.1385  0.2868 -1.4936
10953TIP3    H254275   0.425   5.439   0.676 -1.7118 -0.0256 -1.5767
10954TIP3   OH254276   6.252   4.104   5.058 -1.0250 -0.4682 -0.2075
10954TIP3    H154277   6.232   4.068   5.145 -0.2694 -2.0280 -0.6448
10954TIP3    H254278   6.278   4.194   5.075  0.0694 -1.0261  1.3163
10955TIP3   OH254279   0.764   3.433  11.685 -0.2769  0.3149  0.2632
10955TIP3    H154280   0.803   3.431  11.772  0.3064  2.0070  0.0820
10955TIP3    H254281   0.700   3.504  11.689  0.6983  1.3463 -1.0148
10956TIP3   OH254282   3.628   5.871   3.412  0.6264 -0.9062  0.2100
10956TIP3    H154283   3.721   5.886   3.429  0.5912 -0.7016  0.2322
10956TIP3    H254284   3.623   5.850   3.319  0.4331  1.5408 -0.3962
10957TIP3   OH254285   2.743   0.062  11.860 -0.0192 -0.3975 -0.6199
10957TIP3    H154286   2.706  -0.026  11.849  0.6917 -0.5697 -1.7777
10957TIP3    H254287   2.819   0.063  11.803  0.3779  0.7557 -0.0938
10958TIP3   OH254288   6.462   1.237   4.032 -0.3088  0.5383  0.1077
10958TIP3    H154289   6.515   1.244   4.111  1.8599  1.8041 -1.3310
10958TIP3    H254290   6.447   1.143   4.021 -1.2919  0.3660  2.3329
10959TIP3   OH254291   6.191   5.280  13.325  0.1471 -0.5789 -0.6543
10959TIP3    H154292   6.166   5.222  13.253 -0.6553 -0.1362 -0.7485
10959TIP3    H254293   6.179   5.227  13.404  3.3852 -1.9045 -0.9096
10960TIP3   OH254294   5.740   5.852   2.004  0.2789  0.1534  0.3347
10960TIP3    H154295   5.793   5.929   2.024  2.1756 -1.1282  0.4974
10960TIP3    H254296   5.662   5.861   2.059  0.0753  2.2989 -0.2075
10961TIP3   OH254297   0.241   3.778   5.683  0.0605 -0.0897  0.6353
10961TIP3    H154298   0.317   3.803   5.735  0.5758  0.0396 -0.1511
10961TIP3    H254299   0.248   3.683   5.674  0.2653 -0.0486  0.3584
10962TIP3   OH254300   2.592   1.140   3.323 -0.1510  0.0898  0.0179
10962TIP3    H154301   2.538   1.073   3.364  2.7127 -2.2193  0.3032
10962TIP3    H254302   2.655   1.165   3.391  0.6072  1.0173 -0.9799
10963TIP3   OH254303   4.198   0.012   0.906  0.3016 -0.1871  0.7248
10963TIP3    H154304   4.217  -0.065   0.852  2.0016  1.4377 -1.1750
10963TIP3    H254305   4.270   0.016   0.968 -0.8489 -1.1870  2.1944
10964TIP3   OH254306   2.173   0.132   2.449 -0.0580  0.4028 -0.2870
10964TIP3    H154307   2.232   0.114   2.376 -0.0365  1.5610 -0.5679
10964TIP3    H254308   2.201   0.217   2.482  0.2249 -0.2957  1.3702
10965TIP3   OH254309   2.925   2.788   0.065 -0.2657 -0.0321 -0.0228
10965TIP3    H154310   2.983   2.850   0.021 -0.4932  0.2851  0.1178
10965TIP3    H254311   2.928   2.710   0.010  2.9035 -1.3077  1.6948
10966TIP3   OH254312   2.978   3.896  10.394 -0.0617  0.3837 -0.4375
10966TIP3    H154313   2.910   3.959  10.419 -1.4827 -2.0121  2.3092
10966TIP3    H254314   3.060   3.939  10.416 -1.0127  1.0620  2.0725
10967TIP3   OH254315   0.539   6.396  16.700  0.4295  0.2027  0.2103
10967TIP3    H154316   0.625   6.426  16.729 -0.0451  1.4694  0.3992
10967TIP3    H254317   0.553   6.363  16.612  1.0522  0.7419  0.0978
10968TIP3   OH254318   3.543   2.236   3.454 -0.3802  0.2384  0.0847
10968TIP3    H154319   3.482   2.247   3.381  1.7867  0.2661 -1.8269
10968TIP3    H254320   3.583   2.150   3.439  0.0342  0.1869  1.3493
10969TIP3   OH254321   4.660   4.004   2.083 -0.4105 -0.1574 -0.2007
10969TIP3    H154322   4.670   3.979   2.175 -0.0138 -0.9842 -0.4555
10969TIP3    H254323   4.588   3.950   2.051  0.8374 -1.4750 -0.9103
10970TIP3   OH254324   4.674   5.059   0.202 -0.4081 -0.0669 -0.2757
10970TIP3    H154325   4.586   5.068   0.166 -0.5398 -1.2007 -0.2616
10970TIP3    H254326   4.662   5.067   0.297 -0.2599  1.4006 -0.3510
10971TIP3   OH254327   0.316   2.297  13.723  0.3797 -0.1505 -0.3867
10971TIP3    H154328   0.344   2.269  13.810 -0.6787  0.1149  0.0577
10971TIP3    H254329   0.229   2.334  13.736  0.4283  0.4040 -1.4748
10972TIP3   OH254330   4.812   0.616  14.166 -0.4008  0.5957 -0.8140
10972TIP3    H154331   4.762   0.663  14.100  0.3695  0.4475 -1.5206
10972TIP3    H254332   4.892   0.667  14.177 -0.4534  0.5408 -0.0947
10973TIP3   OH254333   4.312   0.593  15.007  0.2250 -0.0884  0.3975
10973TIP3    H154334   4.401   0.614  15.036  0.5044 -0.5049 -0.1458
10973TIP3    H254335   4.321   0.509  14.961 -0.1401  0.7100 -1.1928
10974TIP3   OH254336   1.852   5.385  15.098  0.5922  0.1000 -0.0757
10974TIP3    H154337   1.759   5.403  15.092  0.3835 -0.5114  1.0773
10974TIP3    H254338   1.857   5.292  15.122  1.4423  0.4839  1.3535
10975TIP3   OH254339   5.267   5.195   0.031  0.0532  0.3339  0.2459
10975TIP3    H154340   5.263   5.115  -0.022  0.2538  0.0029  0.7220
10975TIP3    H254341   5.286   5.265  -0.032  0.6051 -0.0967 -0.0704
10976TIP3   OH254342   1.697   3.407   0.949 -0.6412  0.1247  0.0645
10976TIP3    H154343   1.696   3.500   0.972 -2.0730  0.6930 -1.9963
10976TIP3    H254344   1.631   3.368   1.005 -0.8807  0.5864  0.1096
10977TIP3   OH254345   1.402   1.436  11.862 -0.0919 -0.0104 -0.0435
10977TIP3    H154346   1.392   1.399  11.949 -0.0379  0.3333  0.1095
10977TIP3    H254347   1.345   1.383  11.806 -0.0119 -0.3257  0.1698
10978TIP3   OH254348   0.671   4.137  11.032  0.1213 -0.3601 -0.3729
10978TIP3    H154349   0.686   4.215  10.979 -1.9967 -0.4711 -1.2308
10978TIP3    H254350   0.720   4.068  10.987  0.9494  0.1800 -0.3344
10979TIP3   OH254351   5.914   3.711   2.934 -0.2167 -0.2350  0.0671
10979TIP3    H154352   5.851   3.681   2.869 -1.1317  0.7875  0.4526
10979TIP3    H254353   5.994   3.727   2.883  0.6960 -4.1282 -0.0168
10980TIP3   OH254354   0.336   1.992  16.509 -0.2546 -0.0649  0.2147
10980TIP3    H154355   0.289   2.062  16.464 -0.7869 -0.7789 -0.3742
10980TIP3    H254356   0.293   1.912  16.478 -0.4162 -0.5948  1.7408
10981TIP3   OH254357   3.554   4.577  11.465 -0.7819 -0.3761  0.9334
10981TIP3    H154358   3.545   4.500  11.409 -0.9205 -0.8008  1.5306
10981TIP3    H254359   3.642   4.611  11.445 -1.8431  1.1665 -1.6164
10982TIP3   OH254360   5.146   2.378   2.187  0.6648  0.1568  0.5792
10982TIP3    H154361   5.213   2.352   2.250  1.2266  0.9929  0.3507
10982TIP3    H254362   5.092   2.300   2.175  0.3365  0.0778  2.3403
10983TIP3   OH254363   3.265   3.088  10.687 -0.0622  0.2465 -0.4316
10983TIP3    H154364   3.258   3.150  10.614  0.6394  3.8380  2.2130
10983TIP3    H254365   3.204   3.121  10.753  1.1597 -1.2299  1.5769
10984TIP3   OH254366   2.304   4.510  17.338  0.4848  0.5347 -0.3831
10984TIP3    H154367   2.262   4.435  17.381  1.3282 -0.1248 -0.6663
10984TIP3    H254368   2.244   4.534  17.268 -0.9766  1.7140  1.2000
10985TIP3   OH254369   5.476   6.319  16.866 -0.5298  0.0734 -0.0306
10985TIP3    H154370   5.536   6.306  16.939 -0.0458 -1.4428 -0.6824
10985TIP3    H254371   5.518   6.277  16.791 -2.0647 -0.4048 -0.6639
10986TIP3   OH254372   2.642   4.114   4.653 -0.5732 -0.3174  0.1443
10986TIP3    H154373   2.609   4.168   4.724 -0.5862 -1.1378  0.7808
10986TIP3    H254374   2.564   4.092   4.601 -0.4567  0.9269 -0.6030
10987TIP3   OH254375   0.980   0.062  11.121  0.3783 -0.0665 -0.6011
10987TIP3    H154376   1.013   0.066  11.031  0.6882 -1.2635 -0.5512
10987TIP3    H254377   1.027  -0.011  11.161 -0.6255 -0.3083  0.1759
10988TIP3   OH254378   4.240   6.023  11.928 -0.2028 -0.1261 -0.2419
10988TIP3    H154379   4.332   6.049  11.922  0.2661 -1.5749  0.3212
10988TIP3    H254380   4.216   6.002  11.838 -0.4819  1.7439 -0.6546
10989TIP3   OH254381   6.254   3.101  15.374  0.1408  0.5460 -0.3657
10989TIP3    H154382   6.200   3.179  15.359 -0.3028  0.5052  0.9200
10989TIP3    H254383   6.338   3.135  15.406  0.1581  0.5228 -0.3863
10990TIP3   OH254384   5.917   2.353   1.474  0.3875  0.1291 -0.1807
10990TIP3    H154385   5.855   2.281   1.464  1.2191 -0.6379 -0.0473
10990TIP3    H254386   5.988   2.315   1.527  0.2554  1.4302  0.9879
10991TIP3   OH254387   6.208   4.162  13.759 -0.0727 -0.2730  0.1803
10991TIP3    H154388   6.278   4.153  13.694 -0.7430 -2.1800 -0.3206
10991TIP3    H254389   6.180   4.253  13.751  1.1115  0.0217 -0.8894
10992TIP3   OH254390   6.667   4.934  16.804 -0.3682 -0.1300 -0.6289
10992TIP3    H154391   6.691   4.927  16.712 -0.0288 -0.0846 -0.5444
10992TIP3    H254392   6.615   4.856  16.821 -2.7279  1.1431 -1.5338
10993TIP3   OH254393   4.814   5.097  12.282  0.4107 -0.0042 -0.2156
10993TIP3    H154394   4.770   5.182  12.285  2.8500  1.3592 -0.7085
10993TIP3    H254395   4.749   5.035  12.317 -1.3106  2.0894  0.5034
10994TIP3   OH254396   2.436   6.043   4.890  0.8506  0.3238 -0.0026
10994TIP3    H154397   2.436   6.051   4.985 -0.8335 -1.9347  0.2765
10994TIP3    H254398   2.373   6.109   4.861 -0.4886 -0.6081  0.6950
10995TIP3   OH254399   5.895   3.261   1.620 -0.1556 -0.4780 -0.3701
10995TIP3    H154400   5.892   3.238   1.527  0.2919  0.9841 -0.7754
10995TIP3    H254401   5.957   3.199   1.658  1.6110  0.4732 -1.5631
10996TIP3   OH254402   5.233   5.580   4.156 -0.2686 -0.4202 -0.0671
10996TIP3    H154403   5.147   5.542   4.136 -0.8189 -0.1136  1.5299
10996TIP3    H254404   5.249   5.643   4.085 -0.2340 -2.1824 -1.6836
10997TIP3   OH254405   1.508   6.045   6.447 -0.1468  0.0150  0.4170
10997TIP3    H154406   1.417   6.017   6.440 -0.1630 -0.2779  1.6199
10997TIP3    H254407   1.559   5.968   6.419 -0.2574  0.7165 -1.9025
10998TIP3   OH254408   1.071   4.873  14.628 -0.5963  0.1522 -0.1129
10998TIP3    H154409   1.024   4.845  14.550  0.2798 -0.5571 -0.4040
10998TIP3    H254410   1.003   4.902  14.689 -1.3136  0.2917 -0.9674
10999TIP3   OH254411   1.812   2.611  15.586 -0.0204 -0.3552 -0.4326
10999TIP3    H154412   1.904   2.596  15.606  0.2769  0.5272 -1.0996
10999TIP3    H254413   1.800   2.705  15.596 -1.1430 -0.5824  0.7809
11000TIP3   OH254414   2.298   1.711  15.855 -0.0493 -0.4221  0.2506
11000TIP3    H154415   2.350   1.639  15.890 -0.5385 -0.7705  0.2614
11000TIP3    H254416   2.237   1.734  15.925  0.8596  0.7773  0.6916
11001TIP3   OH254417   0.749   2.199   0.699 -0.0402 -0.0999  0.0437
11001TIP3    H154418   0.692   2.155   0.636  0.6026 -0.6783 -0.1537
11001TIP3    H254419   0.836   2.161   0.683  0.4404  0.8950  0.2143
11002TIP3   OH254420   4.089   6.023  11.701  0.2761  0.5120 -0.5085
11002TIP3    H154421   4.097   5.988  11.612  0.2664 -0.6290 -0.0700
11002TIP3    H254422   4.021   6.090  11.693  1.2283  1.3895 -1.6292
11003TIP3   OH254423   3.085   1.136  10.793 -0.1068  0.0521  0.0976
11003TIP3    H154424   3.118   1.059  10.839 -0.6795 -0.6615 -0.6477
11003TIP3    H254425   3.111   1.210  10.848 -0.3013 -0.7279  1.2740
11004TIP3   OH254426   0.075   3.407  14.866 -0.2413 -0.2525  0.1947
11004TIP3    H154427   0.050   3.374  14.780 -1.3738 -2.2228  1.2194
11004TIP3    H254428   0.170   3.391  14.871 -0.4220 -1.5766 -0.1270
11005TIP3   OH254429   1.500   3.578   3.552 -0.2645 -0.0840  0.2180
11005TIP3    H154430   1.449   3.656   3.575 -2.7159 -1.8436  1.0923
11005TIP3    H254431   1.473   3.557   3.463 -0.6747 -0.7190  0.4884
11006TIP3   OH254432   4.923   5.777   1.597  0.3923 -0.2063  0.2946
11006TIP3    H154433   4.985   5.741   1.661  0.5525  0.3793  0.4762
11006TIP3    H254434   4.894   5.859   1.636  0.7745  0.3457 -0.5547
11007TIP3   OH254435   5.299   5.035  16.397 -0.0924  0.0028 -0.1441
11007TIP3    H154436   5.250   5.063  16.320 -0.5462  1.2113  0.5494
11007TIP3    H254437   5.362   5.105  16.412  0.8154 -0.8032 -0.1143
11008TIP3   OH254438   3.618   1.195   5.269 -0.4261  0.6722 -0.0313
11008TIP3    H154439   3.636   1.148   5.188  1.1997  2.9944 -1.1282
11008TIP3    H254440   3.698   1.245   5.287 -0.7339  0.2873  3.0147
11009TIP3   OH254441   2.809   3.599   5.533  0.3629  0.0943 -0.0130
11009TIP3    H154442   2.878   3.640   5.481  1.3233 -2.0026 -0.4785
11009TIP3    H254443   2.811   3.646   5.617  1.1207  1.2411 -0.6464
11010TIP3   OH254444   0.087   1.035  10.434  0.2273 -0.5813 -0.1908
11010TIP3    H154445   0.018   1.004  10.492  0.3904  0.0976  0.3810
11010TIP3    H254446   0.082   0.977  10.357  0.2254 -1.7120  0.6356
11011TIP3   OH254447   2.820   3.843   0.731 -0.5981  1.0512  0.3408
11011TIP3    H154448   2.792   3.763   0.773  0.4535  0.1535 -0.5996
11011TIP3    H254449   2.789   3.834   0.640  0.5296  1.1560 -0.0697
11012TIP3   OH254450   0.646   5.804  13.036  0.6396 -0.0403 -0.2876
11012TIP3    H154451   0.647   5.853  12.953 -1.2070 -0.7580 -0.7822
11012TIP3    H254452   0.730   5.758  13.037  0.4755 -0.4724 -2.0829
11013TIP3   OH254453   2.325   3.655   4.524  0.2556 -0.8336  0.6784
11013TIP3    H154454   2.255   3.676   4.462  1.0076  0.9107  0.3646
11013TIP3    H254455   2.280   3.616   4.599 -0.6676 -3.2762 -1.0153
11014TIP3   OH254456   4.688   0.945  17.132 -0.1413  0.3586 -0.0545
11014TIP3    H154457   4.616   0.917  17.189 -1.7111 -0.8284 -2.4494
11014TIP3    H254458   4.730   0.864  17.105  1.3514  0.9771  0.3105
11015TIP3   OH254459   5.897   4.199  12.822  0.1140 -0.2826 -0.1776
11015TIP3    H154460   5.942   4.230  12.901 -0.7636  1.1618 -0.2224
11015TIP3    H254461   5.943   4.118  12.799  1.1767 -0.0771  1.1039
11016TIP3   OH254462   2.091   1.577   6.595  0.3721 -0.0848 -0.0576
11016TIP3    H154463   2.141   1.553   6.673 -0.0411  0.6326  0.4357
11016TIP3    H254464   2.026   1.507   6.586 -0.2732  0.3787  0.8799
11017TIP3   OH254465   0.663   5.092  14.943 -0.1904 -0.1704 -0.0673
11017TIP3    H154466   0.703   5.179  14.942 -1.3275  0.3686 -0.7813
11017TIP3    H254467   0.596   5.097  15.012  1.1319 -1.1784  1.3781
11018TIP3   OH254468   4.868   4.425  10.873 -0.0685 -0.5511 -0.1889
11018TIP3    H154469   4.861   4.333  10.849 -2.4076 -0.8904  1.4861
11018TIP3    H254470   4.796   4.440  10.933 -0.1049  2.5353 -0.8309
11019TIP3   OH254471   4.078   0.347  11.912  0.8850 -0.0091 -0.2287
11019TIP3    H154472   4.005   0.409  11.904  1.2541  0.6542  1.1822
11019TIP3    H254473   4.151   0.399  11.944  0.8267 -1.3487  2.4063
11020TIP3   OH254474   4.284   2.138   4.832 -0.4582 -0.7715  0.1095
11020TIP3    H154475   4.202   2.186   4.817 -0.3685 -1.0519 -1.3859
11020TIP3    H254476   4.352   2.203   4.817 -0.3835 -0.7103  0.6907
11021TIP3   OH254477   4.846   2.433   3.660  0.2377  0.1936 -0.1947
11021TIP3    H154478   4.847   2.440   3.755  1.8525 -0.8740 -0.0997
11021TIP3    H254479   4.803   2.350   3.642  0.5886  0.0455 -0.3586
11022TIP3   OH254480   4.409   4.993   4.612  0.3728 -0.0675 -0.1732
11022TIP3    H154481   4.438   5.073   4.656  0.2176 -1.8529  3.5170
11022TIP3    H254482   4.337   4.960   4.665  0.1785 -2.4955 -1.7514
11023TIP3   OH254483   3.362   2.221  12.992  0.7525 -0.6246  0.6321
11023TIP3    H154484   3.347   2.127  13.002 -0.3442 -0.4903  0.3149
11023TIP3    H254485   3.404   2.246  13.074  1.9557 -1.5558  0.3351
11024TIP3   OH254486   4.911   1.815   2.226 -0.9723  0.2767  0.0203
11024TIP3    H154487   4.874   1.745   2.173 -0.1728 -0.9809  1.0627
11024TIP3    H254488   4.913   1.780   2.314  1.3660  0.7955  0.2432
11025TIP3   OH254489   1.027   5.671   6.704  0.0314  0.3254  0.6218
11025TIP3    H154490   1.112   5.702   6.674  0.5403 -1.0036  0.5968
11025TIP3    H254491   0.989   5.746   6.750 -0.1433  1.9476 -1.9717
11026TIP3   OH254492   4.887   2.527   5.696 -0.6750 -0.1249 -0.2122
11026TIP3    H154493   4.912   2.443   5.733  0.2145  0.5477  0.7885
11026TIP3    H254494   4.929   2.592   5.753  0.7263  0.9845 -2.3494
11027TIP3   OH254495   0.412   0.625  13.155  0.1117  0.0679  0.1010
11027TIP3    H154496   0.320   0.615  13.180  0.1885 -0.3412  0.2271
11027TIP3    H254497   0.447   0.536  13.154  0.9571  0.3230  1.8073
11028TIP3   OH254498   3.087   3.006  14.854  0.1008 -0.0482 -0.1654
11028TIP3    H154499   3.000   3.046  14.846  0.1667  0.1410  0.0536
11028TIP3    H254500   3.093   2.946  14.780  0.5079  1.2869 -1.2465
11029TIP3   OH254501   3.107   4.286  12.119  0.2462  0.8627  0.4362
11029TIP3    H154502   3.026   4.234  12.123 -0.6055  2.0782 -0.2263
11029TIP3    H254503   3.176   4.225  12.143 -0.8145 -0.3502  0.5133
11030TIP3   OH254504   2.914   4.717  13.267 -0.1358  0.4567 -0.3084
11030TIP3    H154505   3.003   4.750  13.259  0.1229  0.2060  1.1935
11030TIP3    H254506   2.860   4.780  13.219  0.9383 -0.0075 -2.2481
11031TIP3   OH254507   5.311   1.518  12.520  0.1675  0.6831  0.7071
11031TIP3    H154508   5.220   1.511  12.493  0.5841 -1.2998 -0.3243
11031TIP3    H254509   5.344   1.596  12.475 -0.7754  0.9144  0.4069
11032TIP3   OH254510   4.593   3.878  13.003  0.4093 -0.5110 -0.0589
11032TIP3    H154511   4.669   3.866  13.060  0.4969  0.0213 -0.0584
11032TIP3    H254512   4.612   3.825  12.926  1.6044  0.9860 -0.8486
11033TIP3   OH254513   6.205   6.098   3.216 -0.1649 -0.3738  0.1817
11033TIP3    H154514   6.152   6.091   3.137 -1.7613  3.2437  0.7533
11033TIP3    H254515   6.287   6.138   3.186  0.0593 -0.8925  0.0910
11034TIP3   OH254516   5.921   0.621  10.431  0.2295 -0.5436  1.1404
11034TIP3    H154517   5.910   0.644  10.523  1.1280  1.2625  0.8447
11034TIP3    H254518   5.849   0.666  10.386 -0.1748 -1.3750  0.9190
11035TIP3   OH254519   5.740   4.168   3.049  0.0086  0.6079 -0.1406
11035TIP3    H154520   5.703   4.088   3.011  0.3829  0.3358  0.0602
11035TIP3    H254521   5.687   4.239   3.012  0.1398  0.3220 -0.8872
11036TIP3   OH254522   1.818   4.039  12.824  0.2093  0.4385 -0.5296
11036TIP3    H154523   1.896   4.011  12.872 -0.9344  0.0491  1.2125
11036TIP3    H254524   1.833   4.131  12.805  0.3924  0.8218  1.3003
11037TIP3   OH254525   6.144   6.527   0.313  0.2796 -0.2226  0.4595
11037TIP3    H154526   6.211   6.460   0.319  0.9016  0.3979  0.6046
11037TIP3    H254527   6.064   6.484   0.343  0.4589 -1.1643 -0.3841
11038TIP3   OH254528   0.523   1.059  12.254  0.3771  0.2178 -0.3418
11038TIP3    H154529   0.565   1.079  12.338  1.1053 -2.0598 -0.1111
11038TIP3    H254530   0.594   1.027  12.199 -0.5771 -1.0803 -0.8563
11039TIP3   OH254531   3.543   4.311  15.415  0.7783  0.5076  0.2888
11039TIP3    H154532   3.519   4.245  15.481 -0.3955 -0.2372 -0.8310
11039TIP3    H254533   3.633   4.334  15.437  0.8072 -0.5709  1.4635
11040TIP3   OH254534   6.639   2.316   2.400 -0.1580 -0.1129 -0.4745
11040TIP3    H154535   6.607   2.240   2.449  0.0790 -0.6700 -1.1681
11040TIP3    H254536   6.684   2.370   2.466 -0.0664 -0.7189 -0.0329
11041TIP3   OH254537   4.025   3.323   2.952  0.6022 -0.4153 -0.4471
11041TIP3    H154538   4.096   3.329   3.016 -0.4070  0.2505  0.6570
11041TIP3    H254539   3.956   3.276   2.998  0.6164 -1.8142 -1.8072
11042TIP3   OH254540   0.688   3.647   5.806 -0.2215  0.1441  0.1536
11042TIP3    H154541   0.676   3.649   5.901 -0.6996  0.0459  0.1024
11042TIP3    H254542   0.628   3.714   5.773 -2.0676 -1.6093 -0.2460
11043TIP3   OH254543   0.332   4.399   2.853  0.3755  0.1175 -0.4806
11043TIP3    H154544   0.349   4.474   2.911  0.7282 -0.9205  0.8094
11043TIP3    H254545   0.417   4.381   2.813  0.2758  0.4321 -0.8431
11044TIP3   OH254546   1.442   1.532  13.871 -0.1608 -0.9612 -0.3317
11044TIP3    H154547   1.367   1.583  13.899  0.6256  1.3479 -2.0669
11044TIP3    H254548   1.425   1.444  13.903 -2.2828  0.0570  1.6237
11045TIP3   OH254549   2.603   4.546  12.960  0.2157 -0.0850  0.1900
11045TIP3    H154550   2.573   4.515  12.875  0.0230 -2.2394  0.9671
11045TIP3    H254551   2.697   4.555  12.950 -0.0726  2.2929 -0.9668
11046TIP3   OH254552   1.771   2.327  11.717  0.1706 -0.4968  0.0635
11046TIP3    H154553   1.696   2.316  11.775  2.0947 -0.0683  2.8284
11046TIP3    H254554   1.736   2.315  11.629 -2.8590 -1.5305  1.3053
11047TIP3   OH254555   6.390   3.404  15.764  0.6923 -0.3873 -0.2316
11047TIP3    H154556   6.411   3.312  15.746  0.9698 -0.2776 -0.4697
11047TIP3    H254557   6.340   3.402  15.845  0.6093 -0.7608 -0.2925
11048TIP3   OH254558   2.543   4.039  16.876  0.1214 -0.2948 -0.4189
11048TIP3    H154559   2.620   4.076  16.832  0.9827 -0.7762  0.6308
11048TIP3    H254560   2.485   4.114  16.890  1.1750  0.4128  0.3408
11049TIP3   OH254561   6.681   1.064   3.899 -0.5805  0.3147 -0.1211
11049TIP3    H154562   6.645   1.144   3.939  1.1716  0.8507  0.4678
11049TIP3    H254563   6.629   1.052   3.820 -2.3854  0.7321  0.9453
11050TIP3   OH254564   2.286   1.884  12.876  0.0589 -0.0330 -0.3069
11050TIP3    H154565   2.214   1.881  12.812 -0.6614 -0.2228  0.4911
11050TIP3    H254566   2.250   1.841  12.954  0.8970  0.2594  0.2495
11051TIP3   OH254567   3.898   0.769   4.353  0.3116 -0.7603 -0.8353
11051TIP3    H154568   3.880   0.813   4.436 -0.5905 -1.6504 -0.5348
11051TIP3    H254569   3.980   0.722   4.367  1.4870  1.0609 -1.2795
11052TIP3   OH254570   2.957   0.375  12.497  0.3677 -0.5323 -0.2356
11052TIP3    H154571   2.881   0.428  12.524 -0.6399 -1.7793 -0.5446
11052TIP3    H254572   3.003   0.356  12.579 -0.7285 -1.3712  0.2002
11053TIP3   OH254573   1.407   4.748   4.867 -0.0058 -0.3673 -0.4415
11053TIP3    H154574   1.455   4.827   4.844 -1.4542  0.3955 -0.9661
11053TIP3    H254575   1.371   4.767   4.954 -0.1755 -0.5465 -0.4725
11054TIP3   OH254576   0.184   1.754   1.920  0.0281  0.4095  0.6079
11054TIP3    H154577   0.221   1.701   1.991  1.4220  1.1732  0.4823
11054TIP3    H254578   0.131   1.819   1.965  1.5142  1.3674  1.0378
11055TIP3   OH254579   4.295   1.046  12.153  0.8615 -0.1255 -0.2972
11055TIP3    H154580   4.314   0.954  12.135  1.0586 -0.1474  0.0228
11055TIP3    H254581   4.275   1.083  12.067 -0.5074 -0.7519 -0.2853
11056TIP3   OH254582   2.567   3.207  11.905 -0.0703 -0.3993  0.2730
11056TIP3    H154583   2.482   3.189  11.947  0.0044 -0.3924  0.4283
11056TIP3    H254584   2.607   3.120  11.895 -0.3111 -0.4507 -0.2629
11057TIP3   OH254585   6.590   5.951   3.960  0.6244 -0.1179  0.0709
11057TIP3    H154586   6.630   6.025   4.007  0.6746 -0.1273  0.0433
11057TIP3    H254587   6.499   5.951   3.989  0.5137  0.2274 -0.2642
11058TIP3   OH254588   5.450   1.547   1.849  0.3099  0.0994 -0.2518
11058TIP3    H154589   5.480   1.485   1.916  0.5371  1.2842  0.7732
11058TIP3    H254590   5.360   1.520   1.830 -0.2031  0.4868  1.4681
11059TIP3   OH254591   5.869   2.532   4.366 -0.4938 -0.3204 -0.6797
11059TIP3    H154592   5.941   2.474   4.387 -0.3710 -0.4458 -1.4183
11059TIP3    H254593   5.837   2.563   4.451  1.6620  1.2836 -0.3646
11060TIP3   OH254594   0.713   0.252   5.282 -0.4015  0.1217 -0.8580
11060TIP3    H154595   0.748   0.235   5.370 -2.1937 -1.2667 -0.3525
11060TIP3    H254596   0.643   0.316   5.296 -0.6294 -0.0306 -1.2826
11061TIP3   OH254597   1.177   4.093   1.441 -0.3337 -0.1656 -0.1123
11061TIP3    H154598   1.170   4.125   1.531 -0.5311 -0.3617 -0.0545
11061TIP3    H254599   1.270   4.088   1.423 -0.2978  0.2531 -0.0558
11062TIP3   OH254600   1.769   6.004  11.208 -0.5094 -0.0111  0.0360
11062TIP3    H154601   1.711   6.063  11.161 -2.1157 -1.6746 -0.2187
11062TIP3    H254602   1.843   5.991  11.149  0.0591  1.9778  0.2644
11063TIP3   OH254603   2.730   4.961   5.683  0.5903  0.3575  0.2577
11063TIP3    H154604   2.681   4.990   5.605  0.1101  0.8800  0.7395
11063TIP3    H254605   2.747   5.042   5.731 -0.0000 -0.0600  1.1958
11064TIP3   OH254606   4.049   1.410  16.996 -0.1232  0.1762 -0.3472
11064TIP3    H154607   4.074   1.500  16.975 -0.5965  0.5637  0.6631
11064TIP3    H254608   4.119   1.378  17.053  0.3553 -0.3110 -1.2033
11065TIP3   OH254609   1.663   3.177  16.970 -0.5226 -1.0273 -0.2229
11065TIP3    H154610   1.642   3.217  16.886  2.4046  0.8842 -0.1769
11065TIP3    H254611   1.585   3.191  17.024 -1.2611  0.6281 -1.6429
11066TIP3   OH254612   4.961   4.138  13.395 -0.1952  0.1244  0.3868
11066TIP3    H154613   5.051   4.114  13.375 -0.2004 -0.9392  1.4893
11066TIP3    H254614   4.955   4.129  13.490 -0.2752  4.4248  0.9522
11067TIP3   OH254615   3.622   3.260  12.921  0.1288  0.0244 -0.0891
11067TIP3    H154616   3.615   3.196  12.992  1.7521  0.6175  0.6521
11067TIP3    H254617   3.687   3.222  12.861  3.2463  2.0706  1.7242
11068TIP3   OH254618   3.573   0.855   4.629 -0.1509 -0.4889 -0.1008
11068TIP3    H154619   3.550   0.860   4.722  2.1879 -2.2525  0.6738
11068TIP3    H254620   3.545   0.768   4.602  0.9711 -0.7447 -0.4814
11069TIP3   OH254621   5.521   0.472  12.930 -0.1643  0.0056  0.1214
11069TIP3    H154622   5.471   0.476  12.848 -0.3334  0.2517  0.2390
11069TIP3    H254623   5.520   0.561  12.964 -0.9474 -0.2823  0.9061
11070TIP3   OH254624   0.441   3.059   4.940  0.1711  0.0435 -0.1858
11070TIP3    H154625   0.513   3.028   4.886 -0.6542 -0.7365 -0.8678
11070TIP3    H254626   0.462   3.028   5.028  1.0540  0.5121 -0.2199
11071TIP3   OH254627   5.215   4.311  13.620  0.2384  0.3440 -0.1764
11071TIP3    H154628   5.207   4.220  13.590 -0.9119  0.7814 -1.3368
11071TIP3    H254629   5.285   4.309  13.684 -1.1448 -1.7591  1.4309
11072TIP3   OH254630   1.850   6.648  12.373 -0.0939 -0.0630  0.4454
11072TIP3    H154631   1.844   6.569  12.426  1.0331 -0.5906 -0.1639
11072TIP3    H254632   1.760   6.673  12.356 -0.4670 -0.9078  1.1118
11073TIP3   OH254633   1.376   0.417   1.622  0.0301  0.2441  0.2693
11073TIP3    H154634   1.433   0.343   1.603  0.1518  0.4814 -0.3141
11073TIP3    H254635   1.404   0.485   1.562  1.6165  1.6853  2.4801
11074TIP3   OH254636   1.194   3.206   5.277 -0.0460  0.3887  0.5515
11074TIP3    H154637   1.157   3.294   5.282  1.8954  1.2055  1.7577
11074TIP3    H254638   1.279   3.212   5.322  1.5396 -1.3720 -1.8854
11075TIP3   OH254639   1.013   3.736   5.823 -0.1261  0.9050 -0.4846
11075TIP3    H154640   0.987   3.645   5.807  0.1526  1.2020 -3.0012
11075TIP3    H254641   1.104   3.730   5.852 -0.0639  0.3930 -0.7768
11076TIP3   OH254642   1.632   6.755   5.726  0.0031  0.2712 -0.6050
11076TIP3    H154643   1.633   6.659   5.727 -1.5781  0.2275 -0.4221
11076TIP3    H254644   1.674   6.778   5.643  0.3794 -0.5782 -0.6632
11077TIP3   OH254645   0.854   0.811   6.293 -0.7503 -0.1932  0.4812
11077TIP3    H154646   0.945   0.832   6.314 -0.3658 -2.9034  1.9760
11077TIP3    H254647   0.802   0.871   6.348  0.0862  1.1295 -0.1225
11078TIP3   OH254648   3.491   1.217  13.472  0.1986  0.1021 -0.6362
11078TIP3    H154649   3.572   1.231  13.521 -0.9844 -0.1556  1.5257
11078TIP3    H254650   3.426   1.269  13.518 -1.1687 -0.8108 -1.4550
11079TIP3   OH254651   0.744   2.405  13.019  0.2380  0.2418  0.3507
11079TIP3    H154652   0.650   2.395  13.007  0.3682 -3.5808  1.0392
11079TIP3    H254653   0.754   2.471  13.087 -2.1273 -1.0948  2.1018
11080TIP3   OH254654   2.551   1.823  16.356  0.1607  0.3376 -0.4713
11080TIP3    H154655   2.604   1.860  16.427  0.8876 -1.1977 -0.1630
11080TIP3    H254656   2.519   1.740  16.391  1.4797 -1.0375 -2.2803
11081TIP3   OH254657   4.632   3.224  12.861  0.4614 -0.6096 -0.1845
11081TIP3    H154658   4.564   3.182  12.912  0.9714  0.0548  1.1073
11081TIP3    H254659   4.713   3.208  12.911  1.0467 -0.3026 -1.0087
11082TIP3   OH254660   2.560   4.176   4.340 -0.2358 -0.0756 -0.3384
11082TIP3    H154661   2.469   4.177   4.370  0.5741 -0.3051  2.3482
11082TIP3    H254662   2.583   4.083   4.336  0.5374  0.0181  1.2954
11083TIP3   OH254663   4.749   2.615  16.479 -0.0826  0.3335 -0.1927
11083TIP3    H154664   4.716   2.535  16.437 -0.2284  0.5144 -0.4225
11083TIP3    H254665   4.691   2.629  16.554 -0.3946  0.5343 -0.4753
11084TIP3   OH254666   2.729   6.320   4.189 -0.1110 -0.3454  0.3640
11084TIP3    H154667   2.634   6.321   4.203  0.0428 -0.8946  1.5448
11084TIP3    H254668   2.762   6.387   4.248  0.1396  0.7857 -1.0137
11085TIP3   OH254669   2.361   4.227  11.758  0.2725 -0.3755  0.1191
11085TIP3    H154670   2.383   4.136  11.778  1.2476  0.0051  0.8461
11085TIP3    H254671   2.430   4.278  11.801 -1.3070  0.8030  1.3658
11086TIP3   OH254672   3.296   5.342   0.771  0.2636 -0.7100 -0.1090
11086TIP3    H154673   3.298   5.326   0.677  1.5325 -0.4379 -0.1524
11086TIP3    H254674   3.336   5.264   0.810 -0.7810 -1.0797  0.2622
11087TIP3   OH254675   2.382   2.372  15.804 -0.0353 -0.9220  0.2818
11087TIP3    H154676   2.467   2.375  15.759 -0.2928  2.8399 -0.2543
11087TIP3    H254677   2.403   2.386  15.896  0.0204 -1.3981  0.3412
11088TIP3   OH254678   6.181   6.703  16.822  0.2348 -0.4671  0.2533
11088TIP3    H154679   6.267   6.686  16.784  0.9854 -1.7150  2.3724
11088TIP3    H254680   6.193   6.781  16.875 -0.3661  0.2535 -0.6363
11089TIP3   OH254681   3.313   1.182   0.357  0.0413 -0.3891  0.3219
11089TIP3    H154682   3.368   1.260   0.348 -1.5025  0.6880 -0.0829
11089TIP3    H254683   3.293   1.156   0.268 -0.0471 -0.8292  0.4693
11090TIP3   OH254684   1.562   1.588  14.301 -0.2512 -0.2421  0.2392
11090TIP3    H154685   1.623   1.605  14.372 -0.6339 -3.3460  1.4638
11090TIP3    H254686   1.481   1.632  14.327  0.2335  0.4044  0.6588
11091TIP3   OH254687   6.230   0.913   1.963 -0.0128 -0.2003 -0.5756
11091TIP3    H154688   6.252   0.841   1.905  3.9083 -2.6859  3.3810
11091TIP3    H254689   6.304   0.974   1.956  0.5105 -0.5107  1.5396
11092TIP3   OH254690   0.617   3.183   5.818  0.0862 -0.4725 -0.1291
11092TIP3    H154691   0.676   3.128   5.766 -1.1224 -0.8801 -1.1335
11092TIP3    H254692   0.649   3.272   5.805 -1.8626 -0.1315 -4.1674
11093TIP3   OH254693   0.989   4.366   2.153 -0.5206  0.7664 -0.4442
11093TIP3    H154694   0.949   4.451   2.132 -0.1276  1.0152 -0.2048
11093TIP3    H254695   1.081   4.387   2.169 -0.8744  0.6886  1.9962
11094TIP3   OH254696   1.569   1.965   5.287 -0.1023 -0.1685 -0.1930
11094TIP3    H154697   1.530   1.888   5.245 -0.0327 -0.2748 -0.0637
11094TIP3    H254698   1.506   1.991   5.353  0.3128 -0.7065  0.4308
11095TIP3   OH254699   6.617   4.336   1.587  0.2497 -0.0080 -0.1629
11095TIP3    H154700   6.632   4.270   1.655 -1.8173 -1.7115 -1.1965
11095TIP3    H254701   6.658   4.299   1.509 -0.5388  0.1384 -0.6564
11096TIP3   OH254702   4.410   1.835  13.094 -0.4412  0.0593  0.4642
11096TIP3    H154703   4.404   1.750  13.051 -0.5072 -0.3699  1.2986
11096TIP3    H254704   4.365   1.823  13.178 -0.6596  0.9867  0.4932
11097TIP3   OH254705   3.680   5.231   3.907 -0.2469  0.0765 -0.3396
11097TIP3    H154706   3.594   5.222   3.949  0.2702 -1.8474  0.4016
11097TIP3    H254707   3.660   5.252   3.816 -1.4479  1.5292  0.2215
11098TIP3   OH254708   4.410   6.412   2.972 -0.0367  0.3625 -0.1688
11098TIP3    H154709   4.494   6.409   3.016 -0.5463 -1.1022  0.7513
11098TIP3    H254710   4.363   6.485   3.013 -1.1226 -1.9168  2.9927
11099TIP3   OH254711   1.153   1.885  11.182  0.1384  0.2344  0.4962
11099TIP3    H154712   1.240   1.882  11.142  0.5163  0.0626  1.2941
11099TIP3    H254713   1.110   1.959  11.140 -0.4585 -1.4570 -2.1113
11100TIP3   OH254714   1.252   0.923   5.974  0.1217  0.3717 -0.1843
11100TIP3    H154715   1.280   0.900   6.063 -0.4417  0.0511 -0.0852
11100TIP3    H254716   1.333   0.939   5.927  0.5502 -1.7835 -0.2444
11101TIP3   OH254717   4.090   1.237   3.530 -0.0173  0.3324 -0.1240
11101TIP3    H154718   4.134   1.152   3.529  2.6691  1.5781  1.3479
11101TIP3    H254719   4.050   1.245   3.444 -2.4020 -3.3275  0.4277
11102TIP3   OH254720   4.364   1.571  16.372  0.4508  0.4272  0.0125
11102TIP3    H154721   4.357   1.520  16.454 -2.0408  0.3944 -0.1254
11102TIP3    H254722   4.349   1.506  16.303  2.4353  0.4795 -0.5278
11103TIP3   OH254723   4.360   4.489   4.483 -0.0707 -0.2994 -0.5305
11103TIP3    H154724   4.283   4.546   4.476  0.0100  0.5269  3.2797
11103TIP3    H254725   4.331   4.416   4.538  1.6342 -0.4089  0.2813
11104TIP3   OH254726   3.643   2.315   3.043  0.0136 -0.2448  0.0307
11104TIP3    H154727   3.633   2.378   3.115  0.7216 -0.8180  0.6456
11104TIP3    H254728   3.676   2.367   2.970 -0.3650  0.2791  0.2250
11105TIP3   OH254729   6.467   0.400   5.718  0.0863  0.3494  0.1716
11105TIP3    H154730   6.452   0.352   5.799 -0.8120  0.7346  0.2454
11105TIP3    H254731   6.469   0.492   5.746 -0.5733  0.5061 -0.2856
11106TIP3   OH254732   6.455   5.542   2.629  0.5192 -0.1179 -0.3394
11106TIP3    H154733   6.512   5.612   2.598 -0.4777  0.5295 -0.7640
11106TIP3    H254734   6.507   5.495   2.694  1.7381  0.0769 -1.1579
11107TIP3   OH254735   3.398   0.308   3.743  0.7669 -0.2025  0.2168
11107TIP3    H154736   3.383   0.395   3.707 -0.1095 -0.8154 -0.9611
11107TIP3    H254737   3.446   0.262   3.674 -0.9533 -1.4063 -0.2507
11108TIP3   OH254738   0.444   2.857  11.245 -0.5381 -0.2358  0.0501
11108TIP3    H154739   0.426   2.811  11.162  0.4838  1.1324 -0.9747
11108TIP3    H254740   0.540   2.857  11.252 -0.6135 -0.4621  1.3364
11109TIP3   OH254741   5.610   0.479  15.306  0.3671 -0.1267  0.6758
11109TIP3    H154742   5.674   0.541  15.340  0.5310 -0.3255  0.7352
11109TIP3    H254743   5.636   0.464  15.215 -0.2333  0.6152  0.3706
11110TIP3   OH254744   6.451   1.722   3.128  0.6003 -0.0331  0.2156
11110TIP3    H154745   6.414   1.676   3.052  1.3789 -2.2030  1.0732
11110TIP3    H254746   6.377   1.732   3.188  0.2634  0.5557 -0.2769
11111TIP3   OH254747   6.607   4.051   3.752 -0.0155 -0.1692  0.1541
11111TIP3    H154748   6.522   4.070   3.792  0.3950  0.9832  0.4956
11111TIP3    H254749   6.648   4.136   3.741  0.2121 -0.5195 -2.0353
11112TIP3   OH254750   3.646   6.083   0.619 -0.4408  0.3949  0.5888
11112TIP3    H154751   3.733   6.080   0.659  0.0956  0.8421 -0.4968
11112TIP3    H254752   3.658   6.135   0.539 -1.6344  0.1670  0.2370
11113TIP3   OH254753   5.097   1.878  12.246 -0.1631  0.0108  0.0600
11113TIP3    H154754   5.029   1.922  12.298 -0.4904  0.5364 -0.7941
11113TIP3    H254755   5.100   1.927  12.164 -0.0236 -1.1256 -0.6326
11114TIP3   OH254756   5.351   4.739  16.125  0.0821 -0.0347 -0.0110
11114TIP3    H154757   5.264   4.773  16.148  0.6601  0.6181  1.3407
11114TIP3    H254758   5.377   4.790  16.048 -0.3570  0.4035  0.1239
11115TIP3   OH254759   6.025   6.713  12.219 -0.4493  0.6237 -0.6737
11115TIP3    H154760   6.118   6.694  12.235 -1.0169 -1.3309  0.6995
11115TIP3    H254761   6.005   6.666  12.138 -0.9766 -1.9295  0.8207
11116TIP3   OH254762   5.689   0.628   1.581 -0.0785  0.0889 -0.5498
11116TIP3    H154763   5.709   0.674   1.662 -1.2872 -0.1741 -0.0807
11116TIP3    H254764   5.694   0.695   1.513 -1.4652  0.8860  0.0805
11117TIP3   OH254765   2.945   4.977   4.931  0.0609  0.2391 -0.3957
11117TIP3    H154766   2.999   5.000   5.007  0.7124 -0.5434 -0.6020
11117TIP3    H254767   2.886   5.051   4.920  0.5078  0.7263  0.3801
11118TIP3   OH254768   2.180   2.231  16.868 -0.6910 -0.6872 -0.3200
11118TIP3    H154769   2.252   2.288  16.840 -0.7214 -0.6597 -0.3432
11118TIP3    H254770   2.152   2.188  16.788 -0.1685 -1.3114 -0.1711
11119TIP3   OH254771   1.852   1.774   6.306  0.0127  0.4137 -0.5385
11119TIP3    H154772   1.943   1.745   6.306 -0.1742 -0.1894  0.1380
11119TIP3    H254773   1.851   1.848   6.245  1.2903  1.4850  0.6752
11120TIP3   OH254774   3.381   6.183   4.799  0.6305 -0.1608 -0.2943
11120TIP3    H154775   3.391   6.133   4.718 -0.5753 -0.8241 -0.0571
11120TIP3    H254776   3.317   6.133   4.850  0.7433  0.6928  0.7120
11121TIP3   OH254777   6.195   6.474  15.624 -0.2880  0.1817  0.3091
11121TIP3    H154778   6.290   6.472  15.633  0.1108  1.7968 -2.6436
11121TIP3    H254779   6.170   6.381  15.623  1.3137 -0.2868  0.5146
11122TIP3   OH254780   1.000   5.779  14.099  0.4419  0.3735 -0.0114
11122TIP3    H154781   1.090   5.812  14.102  0.7686 -0.4672 -0.3130
11122TIP3    H254782   0.980   5.757  14.190  0.2188  1.3711  0.1969
11123TIP3   OH254783   3.453   1.728  13.869  0.1064 -0.2019 -0.1298
11123TIP3    H154784   3.512   1.796  13.900  1.2920 -1.2334 -0.0393
11123TIP3    H254785   3.448   1.665  13.942 -0.3074 -0.6170 -0.5065
11124TIP3   OH254786   2.258   6.703  15.973  0.0057 -0.1483  0.7871
11124TIP3    H154787   2.204   6.719  16.050 -0.4082 -0.4219  0.5566
11124TIP3    H254788   2.232   6.771  15.911  0.3766  0.1049  0.9040
11125TIP3   OH254789   1.151   5.692  15.018  0.1417  0.9906  0.4428
11125TIP3    H154790   1.064   5.669  15.050  0.3770  0.9933  1.0953
11125TIP3    H254791   1.136   5.722  14.928 -0.3305 -0.4688  0.0078
11126TIP3   OH254792   6.533   1.444  13.093  0.5107  0.3138 -0.0097
11126TIP3    H154793   6.560   1.404  13.175  1.2145 -0.2487 -0.5039
11126TIP3    H254794   6.525   1.371  13.032  1.5179  0.8781 -0.8430
11127TIP3   OH254795   2.669   0.142   5.642 -0.3248 -0.3178  1.2123
11127TIP3    H154796   2.584   0.103   5.664 -0.1265 -0.0410  2.5410
11127TIP3    H254797   2.654   0.236   5.649 -0.7873 -0.0744 -1.9231
11128TIP3   OH254798   4.143   2.529   2.477  0.1859  0.7385 -0.1196
11128TIP3    H154799   4.096   2.597   2.427  0.1559  2.3420  1.9475
11128TIP3    H254800   4.097   2.448   2.455 -2.6769  2.0128  0.6224
11129TIP3   OH254801   5.329   5.468  15.907 -0.2900  0.5643  0.4269
11129TIP3    H154802   5.382   5.536  15.867 -1.6540  0.9043 -0.8885
11129TIP3    H254803   5.379   5.388  15.894  1.0761  1.1967  1.5075
11130TIP3   OH254804   4.923   0.253   2.818  0.5847 -0.0209  0.1594
11130TIP3    H154805   4.981   0.229   2.745  2.0990  0.4282  1.1588
11130TIP3    H254806   4.851   0.190   2.812  0.0753  0.6933 -2.3514
11131TIP3   OH254807   0.802   0.841   5.603  0.4111 -0.0517 -0.1055
11131TIP3    H154808   0.751   0.763   5.583  0.1671  0.0418  0.1549
11131TIP3    H254809   0.850   0.860   5.522  1.6988 -1.3875  0.2896
11132TIP3   OH254810   5.553   5.552  16.270 -0.7950  0.1540  0.3801
11132TIP3    H154811   5.534   5.574  16.361  0.4783  1.0263  0.4510
11132TIP3    H254812   5.471   5.517  16.237 -1.3645  0.0935  1.7799
11133TIP3   OH254813   0.252   1.610  15.370  0.4869 -0.0032 -0.0053
11133TIP3    H154814   0.231   1.699  15.396  1.9485  0.2230  0.4981
11133TIP3    H254815   0.348   1.605  15.376  0.4510 -1.5339 -0.2327
11134TIP3   OH254816   4.038   5.668  14.394 -0.5839  0.0448 -0.1100
11134TIP3    H154817   3.997   5.691  14.477 -2.5158 -0.7798 -0.7860
11134TIP3    H254818   3.975   5.611  14.351  1.3093 -1.3340 -1.2098
11135TIP3   OH254819   5.966   2.131  14.724 -0.3223  0.3810 -0.2690
11135TIP3    H154820   5.982   2.110  14.816  0.5103  0.1592 -0.4529
11135TIP3    H254821   5.881   2.175  14.724 -0.0362  0.9725  0.6961
11136TIP3   OH254822   4.339   2.221   1.426  0.3835 -0.5312  0.2366
11136TIP3    H154823   4.301   2.136   1.402 -1.1576 -0.2897  1.7406
11136TIP3    H254824   4.343   2.269   1.343  0.6395 -1.8034 -0.5198
11137TIP3   OH254825   5.896   5.496   3.110  0.6038  0.0410  0.0919
11137TIP3    H154826   5.824   5.463   3.163  0.8487 -0.6681 -0.0102
11137TIP3    H254827   5.868   5.480   3.020  0.0443  1.5342 -0.0308
11138TIP3   OH254828   2.728   3.263   2.325  0.1840 -0.3693  0.3157
11138TIP3    H154829   2.674   3.256   2.246  0.0182 -2.2663  0.5452
11138TIP3    H254830   2.764   3.352   2.322 -0.6345 -0.0533 -1.3513
11139TIP3   OH254831   3.739   6.119   0.138  0.1165  0.6273  0.7849
11139TIP3    H154832   3.704   6.071   0.213  0.7795 -1.4189 -0.1574
11139TIP3    H254833   3.676   6.102   0.067  1.8391 -1.4483 -0.3716
11140TIP3   OH254834   3.608   0.477  15.361 -0.7501 -0.3381  0.3804
11140TIP3    H154835   3.641   0.465  15.272 -0.5999 -1.6222  0.6021
11140TIP3    H254836   3.594   0.389  15.394 -0.2973  0.1049  1.8287
11141TIP3   OH254837   2.582   3.619   4.377  0.0495 -0.2994  0.2982
11141TIP3    H154838   2.499   3.618   4.423 -0.2380  2.5856  0.0500
11141TIP3    H254839   2.648   3.629   4.446 -0.3030  2.9264  0.3171
11142TIP3   OH254840   4.440   4.177  11.782 -0.4827 -0.6538  0.0944
11142TIP3    H154841   4.449   4.197  11.689 -1.5704 -3.1005 -0.6373
11142TIP3    H254842   4.347   4.189  11.800 -0.4377 -1.0656  0.6226
11143TIP3   OH254843   1.852   3.537   3.578 -0.0953  0.3261  0.0377
11143TIP3    H154844   1.908   3.487   3.637 -0.7840 -0.8149 -0.2331
11143TIP3    H254845   1.896   3.621   3.568  0.7630  0.0165  1.0380
11144TIP3   OH254846   4.844   2.010   0.320  0.2587  0.0379 -0.0133
11144TIP3    H154847   4.827   2.104   0.316 -1.3192 -0.0942  1.7352
11144TIP3    H254848   4.881   1.996   0.408  1.4652 -0.8637 -0.6349
11145TIP3   OH254849   4.768   6.546   4.732 -0.1036  0.1933  0.1991
11145TIP3    H154850   4.798   6.637   4.740 -1.2218  0.5359  0.6840
11145TIP3    H254851   4.848   6.496   4.716  0.7046  1.0931  1.2740
11146TIP3   OH254852   0.446   0.749   1.512 -0.9505 -0.2277  0.1851
11146TIP3    H154853   0.418   0.817   1.451  0.0011  2.5470  2.6343
11146TIP3    H254854   0.409   0.775   1.596 -2.1024 -3.8385  0.9844
11147TIP3   OH254855   2.795   4.495   4.780 -0.4508  0.1217  0.3991
11147TIP3    H154856   2.808   4.589   4.795 -0.2437  0.1674 -0.0446
11147TIP3    H254857   2.866   4.470   4.721  0.8419 -0.8182  2.2815
11148TIP3   OH254858   6.573   1.813   6.311  0.1608  0.0731  0.2236
11148TIP3    H154859   6.554   1.904   6.291  1.6078 -0.0645 -2.1428
11148TIP3    H254860   6.531   1.798   6.396 -1.7444  2.3570 -0.2155
11149TIP3   OH254861   6.555   5.670   5.274 -0.1260  0.3126 -0.0951
11149TIP3    H154862   6.550   5.670   5.178 -0.1835 -0.4859 -0.0980
11149TIP3    H254863   6.586   5.758   5.296  4.0872 -0.7016 -1.0514
11150TIP3   OH254864   3.628   5.404  15.853 -0.2010 -0.2518  0.6692
11150TIP3    H154865   3.550   5.413  15.907 -1.2966 -0.8954 -0.7178
11150TIP3    H254866   3.602   5.341  15.785  1.2062  0.2730 -0.3927
11151TIP3   OH254867   1.576   3.861  11.949  0.3178 -0.3519 -0.6533
11151TIP3    H154868   1.670   3.875  11.938  0.9827 -1.8123  2.1526
11151TIP3    H254869   1.552   3.916  12.023 -1.3097  0.7280 -1.9113
11152TIP3   OH254870   3.995   2.602   5.084 -0.0029  0.0510 -0.1721
11152TIP3    H154871   4.073   2.547   5.092 -0.0750  0.1237  1.5388
11152TIP3    H254872   3.923   2.546   5.115  0.0529  1.2875  2.5073
11153TIP3   OH254873   4.142   4.926  16.103  0.4218  0.4466 -0.0428
11153TIP3    H154874   4.101   4.845  16.070 -0.2051  0.9798 -0.6186
11153TIP3    H254875   4.227   4.928  16.060 -0.4144  1.1777 -1.8113
11154TIP3   OH254876   6.340   2.775  14.087 -0.4002  0.1372 -0.0216
11154TIP3    H154877   6.262   2.753  14.138 -0.2906 -0.8019 -0.2418
11154TIP3    H254878   6.395   2.696  14.093  1.0283  1.1727  1.0550
11155TIP3   OH254879   2.697   6.062   5.658  0.5351  0.4184  0.1406
11155TIP3    H154880   2.783   6.103   5.645  0.2023  0.6836 -1.5798
11155TIP3    H254881   2.683   6.011   5.578 -0.7961  0.1746  0.4992
11156TIP3   OH254882   4.587   4.198   3.537  0.0946  0.6062 -1.0092
11156TIP3    H154883   4.638   4.272   3.572 -1.9970  1.7597 -0.1877
11156TIP3    H254884   4.499   4.234   3.525 -0.5552 -1.2970 -2.3684
11157TIP3   OH254885   0.924   5.949  17.202 -0.1247 -0.3387 -0.0357
11157TIP3    H154886   0.834   5.916  17.207 -0.9708  1.6492 -0.9547
11157TIP3    H254887   0.941   5.985  17.289 -1.7536  2.7463 -0.8345
11158TIP3   OH254888   5.990   3.433  15.699 -0.3728  0.6586 -0.1456
11158TIP3    H154889   6.055   3.489  15.742  0.6192  0.1454 -0.9217
11158TIP3    H254890   5.993   3.351  15.748 -0.3183  0.5818 -0.2767
11159TIP3   OH254891   1.263   6.205   4.105 -0.0814  0.3086  0.1616
11159TIP3    H154892   1.188   6.250   4.066  0.1973 -0.2426 -1.0959
11159TIP3    H254893   1.318   6.275   4.141 -0.2147  0.8936 -0.7328
11160TIP3   OH254894   1.065   2.253  11.492  0.1236  0.1040  0.7515
11160TIP3    H154895   1.082   2.207  11.574 -0.8499 -0.1244  0.8379
11160TIP3    H254896   1.038   2.185  11.431 -0.7321  0.4683  0.7081
11161TIP3   OH254897   2.927   5.254  13.365  0.0104 -0.3381 -0.1063
11161TIP3    H154898   2.848   5.302  13.391 -0.1856 -1.2380  1.0274
11161TIP3    H254899   2.907   5.222  13.277 -0.8864 -0.5027  0.1376
11162TIP3   OH254900   1.679   1.137  12.842 -0.1998 -0.0397  0.1822
11162TIP3    H154901   1.658   1.168  12.930  1.4099  1.0615  0.2251
11162TIP3    H254902   1.769   1.104  12.850 -0.5368 -1.2612 -0.7484
11163TIP3   OH254903   1.787   3.272   0.724 -0.3860  0.2378 -0.0420
11163TIP3    H154904   1.750   3.299   0.809  1.4652  1.7453  0.3616
11163TIP3    H254905   1.790   3.177   0.728 -0.6809  0.2648  1.4334
11164TIP3   OH254906   4.845   4.095  16.146  0.4530 -0.1738 -0.2018
11164TIP3    H154907   4.855   4.189  16.154 -1.4984  0.0882 -0.2930
11164TIP3    H254908   4.897   4.058  16.217  1.1811  0.9641 -0.1314
11165TIP3   OH254909   2.566   3.289   2.095  0.4374  0.1112  0.2895
11165TIP3    H154910   2.504   3.358   2.076 -0.3206 -0.7830 -0.5633
11165TIP3    H254911   2.522   3.208   2.069  0.8381 -0.8360  2.2970
11166TIP3   OH254912   0.878   6.537  15.404  0.2279 -0.5562  0.2272
11166TIP3    H154913   0.835   6.505  15.483  0.9512 -0.0921  0.8213
11166TIP3    H254914   0.880   6.461  15.345 -1.4386 -0.5647  0.1530
11167TIP3   OH254915   4.109   6.013  11.392  0.1094  0.7481  0.2917
11167TIP3    H154916   4.197   5.999  11.356 -0.4084 -1.2541 -0.3620
11167TIP3    H254917   4.050   5.992  11.319 -0.9443  2.6140  0.5353
11168TIP3   OH254918   0.835   5.345   6.470  0.4426  0.3879  0.4363
11168TIP3    H154919   0.874   5.433   6.468  1.8162 -0.1192  2.2913
11168TIP3    H254920   0.878   5.302   6.544 -0.8477 -1.5647  0.1024
11169TIP3   OH254921   4.189   4.240  16.386  0.3413  0.2854 -0.0724
11169TIP3    H154922   4.098   4.213  16.377 -0.1247  1.1436  1.6611
11169TIP3    H254923   4.233   4.198  16.312 -1.1024 -1.6742  0.0691
11170TIP3   OH254924   0.861   4.948  14.288  0.0657 -0.5079 -0.0582
11170TIP3    H154925   0.799   4.974  14.220 -0.5777 -1.1542  0.2612
11170TIP3    H254926   0.806   4.924  14.363  0.5702 -2.8010 -0.3353
11171TIP3   OH254927   4.377   5.453   4.227  0.0502 -0.3995  0.3283
11171TIP3    H154928   4.344   5.506   4.299  0.1878 -0.3009  0.3176
11171TIP3    H254929   4.299   5.433   4.175  0.0124 -0.1320  0.2814
11172TIP3   OH254930   3.589   2.696  12.418 -0.3103  0.7301  0.7103
11172TIP3    H154931   3.638   2.770  12.454  0.2528 -0.0364  1.5719
11172TIP3    H254932   3.499   2.711  12.446 -0.5409  1.9694 -0.5899
11173TIP3   OH254933   1.761   2.490   2.848 -0.4647  0.4507  0.0058
11173TIP3    H154934   1.681   2.444   2.874  0.2668 -1.0294 -0.2624
11173TIP3    H254935   1.737   2.583   2.850 -1.8812  0.0996  0.9550
11174TIP3   OH254936   2.798   2.456  12.090  0.6211 -0.1360  0.0443
11174TIP3    H154937   2.781   2.389  12.024  1.5560  0.0703 -0.4322
11174TIP3    H254938   2.858   2.414  12.152  0.9429  0.1397 -0.0728
11175TIP3   OH254939   2.426   1.235   0.660 -0.6167 -0.6071  0.3674
11175TIP3    H154940   2.368   1.209   0.589 -1.2088 -1.8880  1.2825
11175TIP3    H254941   2.474   1.155   0.682 -1.2246 -0.5218  2.1139
11176TIP3   OH254942   5.239   4.595  16.468  0.0415 -0.1406 -0.3007
11176TIP3    H154943   5.200   4.594  16.381  0.9685 -2.6149 -0.7615
11176TIP3    H254944   5.165   4.591  16.528 -0.5418 -0.7496 -1.0465
11177TIP3   OH254945   1.807   0.117  15.277 -0.4362  0.1782  1.1431
11177TIP3    H154946   1.872   0.138  15.210 -0.9447  1.5271  1.0462
11177TIP3    H254947   1.728   0.094  15.228 -0.0888 -1.3881  1.2632
11178TIP3   OH254948   1.486   1.129   2.408 -0.2162 -0.0011 -0.4180
11178TIP3    H154949   1.546   1.058   2.427  0.0217  0.4951  0.8292
11178TIP3    H254950   1.441   1.103   2.328 -0.2651 -1.6292  0.1078
11179TIP3   OH254951   6.457   0.991  10.990 -0.3410  0.1040  0.2454
11179TIP3    H154952   6.377   1.024  10.950 -0.4248  0.5984  0.8128
11179TIP3    H254953   6.526   1.014  10.928 -0.8602 -2.4777 -1.4880
11180TIP3   OH254954   2.845   3.987  16.001 -0.6520  0.3778 -0.3015
11180TIP3    H154955   2.939   3.975  15.993 -0.6045 -0.3662  1.0753
11180TIP3    H254956   2.834   4.081  16.015 -0.0813  0.4262 -0.1578
11181TIP3   OH254957   4.989   2.037  13.458 -0.7279  0.0213  0.4624
11181TIP3    H154958   4.982   2.132  13.467 -1.0105  0.2364 -1.4768
11181TIP3    H254959   4.904   2.010  13.422 -0.4094 -0.8669  0.3501
11182TIP3   OH254960   5.410   6.322   2.291  0.4196 -0.1127 -0.0682
11182TIP3    H154961   5.493   6.316   2.244  0.7632  2.1491  0.1674
11182TIP3    H254962   5.345   6.343   2.224  0.0509 -1.4726 -0.1860
11183TIP3   OH254963   3.511   2.939  16.669  0.3839 -0.4119 -0.1131
11183TIP3    H154964   3.438   2.898  16.714  2.4501 -1.6667  2.3732
11183TIP3    H254965   3.508   3.031  16.696 -0.7274 -0.2467 -0.7441
11184TIP3   OH254966   3.950   5.756   6.184 -0.0810 -0.4304 -0.0255
11184TIP3    H154967   4.007   5.764   6.261 -0.0160 -0.8793 -0.0260
11184TIP3    H254968   3.881   5.695   6.211 -1.3318  1.1112  0.4252
11185TIP3   OH254969   5.823   4.338  13.747  0.0682  0.6706  0.8053
11185TIP3    H154970   5.840   4.245  13.730  1.0968  0.2293  3.6156
11185TIP3    H254971   5.748   4.360  13.691  0.2207 -1.6558 -0.4198
11186TIP3   OH254972   5.989   2.290   0.510  0.1149  0.6415  0.3905
11186TIP3    H154973   5.938   2.350   0.565 -1.2383  1.0072 -1.1964
11186TIP3    H254974   5.925   2.251   0.452  1.1411 -1.5888  0.6602
11187TIP3   OH254975   4.391   0.665   2.588 -0.1418 -0.4028 -0.3941
11187TIP3    H154976   4.428   0.624   2.667  1.7283  1.7122 -0.0717
11187TIP3    H254977   4.449   0.637   2.517  0.5600  0.8250 -0.3275
11188TIP3   OH254978   3.957   3.110  16.325 -0.2879 -0.3476  0.0241
11188TIP3    H154979   4.027   3.175  16.317 -0.0624 -0.6240 -0.3031
11188TIP3    H254980   3.909   3.115  16.242 -0.8740  0.0834  0.3816
11189TIP3   OH254981   2.515   2.812  12.144 -0.3485 -0.6473 -0.4605
11189TIP3    H154982   2.428   2.845  12.119 -1.4568 -1.3076  2.1788
11189TIP3    H254983   2.519   2.724  12.105 -1.4061 -1.0841  0.3545
11190TIP3   OH254984   3.513   2.115  12.560 -0.1615  0.1736 -0.6607
11190TIP3    H154985   3.600   2.152  12.546  0.2644 -0.9795 -1.2615
11190TIP3    H254986   3.498   2.123  12.654  1.3063 -1.0411 -0.2674
11191TIP3   OH254987   0.345   3.295   1.815  0.4196  0.3630  0.0116
11191TIP3    H154988   0.307   3.355   1.751 -0.6207 -0.2124  0.0686
11191TIP3    H254989   0.411   3.246   1.765 -0.4952 -0.1918 -0.6841
11192TIP3   OH254990   1.531   3.565  14.368  0.2025  0.2414 -0.5339
11192TIP3    H154991   1.602   3.602  14.421 -0.2826 -1.7774  1.7017
11192TIP3    H254992   1.534   3.471  14.386 -3.1648  0.0732 -0.1134
11193TIP3   OH254993   0.924   1.996   0.975 -0.0883 -0.4697  0.0573
11193TIP3    H154994   0.927   2.039   0.890  0.6650 -0.0905  0.2629
11193TIP3    H254995   0.832   1.975   0.989 -0.3798  0.5097 -0.3377
11194TIP3   OH254996   5.725   5.281   0.396  0.0084  0.0862  0.0081
11194TIP3    H154997   5.814   5.250   0.379  0.1516  0.2470  0.4521
11194TIP3    H254998   5.669   5.217   0.352  0.3397 -0.0853 -0.1700
11195TIP3   OH254999   1.835   1.044  12.335 -0.1736 -0.1917 -0.1901
11195TIP3    H155000   1.754   0.994  12.330 -0.6399  0.6331 -0.9400
11195TIP3    H255001   1.885   1.000  12.405 -0.7668 -1.4010 -0.4940
11196TIP3   OH255002   1.651   3.231  14.144  0.3981 -0.0543  0.5087
11196TIP3    H155003   1.654   3.307  14.087 -1.6741 -0.1677  0.1766
11196TIP3    H255004   1.558   3.207  14.148  0.9065 -2.1599  1.1331
11197TIP3   OH255005   3.611   3.883  15.662 -0.8054 -0.0954 -0.8423
11197TIP3    H155006   3.576   3.957  15.712 -0.6113  0.0656 -0.9414
11197TIP3    H255007   3.603   3.911  15.570  0.0805  0.1753 -0.8495
11198TIP3   OH255008   2.476   0.059   0.883 -0.0603  0.1114 -0.3582
11198TIP3    H155009   2.465  -0.001   0.810 -0.7368 -2.0794  1.4157
11198TIP3    H255010   2.563   0.039   0.917 -0.3264  0.0477  0.3024
11199TIP3   OH255011   3.955   2.508  13.972  0.7336  0.6422  0.4242
11199TIP3    H155012   3.943   2.562  14.050  2.9007  0.2176  1.1245
11199TIP3    H255013   3.888   2.539  13.911 -0.9499  1.0659  2.3752
11200TIP3   OH255014   0.835   6.158  13.535 -0.1225 -0.0636  0.0174
11200TIP3    H155015   0.920   6.139  13.575 -0.9612 -0.1118  1.8835
11200TIP3    H255016   0.805   6.237  13.580 -1.0026  0.0444 -0.7269
11201TIP3   OH255017   0.788   1.853  12.293  0.1743 -0.3064 -0.5997
11201TIP3    H155018   0.878   1.870  12.266  0.0096  1.5253 -0.1781
11201TIP3    H255019   0.786   1.871  12.387 -0.2926 -1.9894 -0.2488
11202TIP3   OH255020   6.690   3.145  13.045  0.5942  0.2898  0.2913
11202TIP3    H155021   6.673   3.104  12.960  0.4610 -2.0163  1.3498
11202TIP3    H255022   6.701   3.238  13.025 -0.2481 -0.0563 -2.1236
11203TIP3   OH255023   5.868   4.113   5.047  0.4845 -0.3548 -0.1093
11203TIP3    H155024   5.910   4.030   5.068  0.7852 -0.1675  0.0406
11203TIP3    H255025   5.803   4.091   4.980 -0.3384 -0.9209  0.8520
11204TIP3   OH255026   6.186   5.851  15.784  0.3052  0.4152  0.1853
11204TIP3    H155027   6.118   5.896  15.835  1.5698  0.6170  1.7586
11204TIP3    H255028   6.250   5.920  15.764  0.3159  0.1197 -0.8563
11205TIP3   OH255029   2.648   1.067  15.943  0.3032  0.1909  0.5843
11205TIP3    H155030   2.622   1.088  15.853  0.3782 -0.6006  0.3762
11205TIP3    H255031   2.723   1.124  15.960  1.3671 -0.8379 -0.4559
11206TIP3   OH255032   0.207   4.475   4.498  0.1939  0.3973 -0.2893
11206TIP3    H155033   0.248   4.549   4.452  1.5844 -0.3948 -0.3779
11206TIP3    H255034   0.150   4.516   4.563  0.5453  1.5472 -0.6784
11207TIP3   OH255035   6.232   1.172  12.197  0.2038  0.3173  0.0204
11207TIP3    H155036   6.199   1.110  12.133  0.5776  0.6933 -0.5422
11207TIP3    H255037   6.326   1.172  12.185  0.4927 -1.0226  1.8713
11208TIP3   OH255038   3.560   2.862   4.757  0.1622 -0.9456  0.1413
11208TIP3    H155039   3.572   2.875   4.851  1.1985 -0.2606 -0.0734
11208TIP3    H255040   3.556   2.951   4.721  3.2005 -1.1080 -0.8607
11209TIP3   OH255041   5.945   5.452  16.029  0.2359 -0.0774 -0.3465
11209TIP3    H155042   5.951   5.410  16.115  1.4745 -0.2460 -0.4836
11209TIP3    H255043   6.025   5.505  16.023 -1.1690  2.1877 -0.2678
11210TIP3   OH255044   6.192   6.214   0.736  0.1782 -0.2157  0.5714
11210TIP3    H155045   6.173   6.307   0.740 -1.7420 -0.5023 -0.7258
11210TIP3    H255046   6.254   6.205   0.663  2.6084  0.2973  2.4590
11211TIP3   OH255047   4.273   5.753  16.044  0.2245  0.2316  0.0531
11211TIP3    H155048   4.263   5.847  16.033  0.1124  0.2567  0.3635
11211TIP3    H255049   4.213   5.730  16.114  1.1833  0.1413  0.8740
11212TIP3   OH255050   2.774   1.461  11.826  0.4571 -0.6300 -0.3909
11212TIP3    H155051   2.750   1.496  11.741  2.4197 -0.6282 -0.9952
11212TIP3    H255052   2.722   1.381  11.835 -0.0605 -0.4148 -1.4041
11213TIP3   OH255053   3.364   3.172  14.157 -0.5003  0.5888  0.3350
11213TIP3    H155054   3.396   3.249  14.109 -1.4039  1.1644  0.6131
11213TIP3    H255055   3.324   3.117  14.090 -0.0002  0.4325  0.1583
11214TIP3   OH255056   3.330   4.333   2.274 -0.0984 -0.5070  0.2601
11214TIP3    H155057   3.404   4.300   2.325  0.6330 -1.8414 -1.5402
11214TIP3    H255058   3.346   4.300   2.185 -1.8724  0.7885 -0.5965
11215TIP3   OH255059   4.587   4.366   4.801  0.6089  0.5200  0.4704
11215TIP3    H155060   4.557   4.450   4.766  0.9800  0.1082 -0.8789
11215TIP3    H255061   4.570   4.303   4.732 -1.5451 -0.9414  2.1926
11216TIP3   OH255062   6.523   5.130  15.878  0.5603  0.1011 -0.1741
11216TIP3    H155063   6.542   5.067  15.947 -2.1851 -1.5310 -0.7378
11216TIP3    H255064   6.566   5.095  15.801  0.8803  0.1246 -0.0074
11217TIP3   OH255065   3.874   6.336   6.799 -0.5267  0.5922  0.1254
11217TIP3    H155066   3.913   6.423   6.797 -0.5184  0.6977  2.4335
11217TIP3    H255067   3.948   6.277   6.813 -0.8354  0.5284  1.6312
11218TIP3   OH255068   3.285   0.144   3.929  0.5767 -0.4498 -0.4925
11218TIP3    H155069   3.336   0.208   3.879  1.3577 -1.4261 -0.9784
11218TIP3    H255070   3.194   0.161   3.905  0.4896  2.0271  1.1777
11219TIP3   OH255071   4.411   5.425  16.426 -0.7076 -0.1991  0.8619
11219TIP3    H155072   4.317   5.434  16.439 -0.7945 -0.8457  0.7217
11219TIP3    H255073   4.445   5.403  16.513 -0.5436  1.0119  1.1273
11220TIP3   OH255074   4.483   5.616  15.749  0.5866 -0.0294 -0.5899
11220TIP3    H155075   4.416   5.680  15.774 -0.1074 -1.5698  1.7838
11220TIP3    H255076   4.442   5.531  15.767  2.1430 -1.1115 -1.9063
11221TIP3   OH255077   6.629   6.400  15.233  0.1147 -0.9501  0.1351
11221TIP3    H155078   6.674   6.389  15.317 -0.5966  3.1818  1.2757
11221TIP3    H255079   6.543   6.437  15.257 -0.0675  0.4727 -2.3608
11222TIP3   OH255080   0.643   6.059  13.937 -0.2219  0.2888 -0.9091
11222TIP3    H155081   0.607   6.133  13.986  0.5930  0.0796  0.0588
11222TIP3    H255082   0.567   6.011  13.906 -0.9192 -1.0233  2.4038
11223TIP3   OH255083   0.565   3.235  17.249  0.0083  0.4435  0.6086
11223TIP3    H155084   0.625   3.212  17.320  0.8076  1.0601  0.1600
11223TIP3    H255085   0.591   3.324  17.224  1.0356 -0.3992 -1.6937
11224TIP3   OH255086   3.684   2.802  16.067 -0.1986  0.6444 -0.2689
11224TIP3    H155087   3.768   2.775  16.104 -0.7957 -0.1673  0.5424
11224TIP3    H255088   3.643   2.721  16.037 -0.4677  1.0931 -1.1685
11225TIP3   OH255089   2.853   1.816  17.194 -0.5698 -0.2837  0.2044
11225TIP3    H155090   2.901   1.840  17.115 -0.0524 -2.3436 -0.1752
11225TIP3    H255091   2.842   1.898  17.242  1.9216  0.5387 -0.4848
11226TIP3   OH255092   0.704   0.953   0.859  0.2939 -0.1382 -0.7137
11226TIP3    H155093   0.749   0.965   0.943 -2.6612 -1.2127  1.2306
11226TIP3    H255094   0.713   0.860   0.840 -0.0240 -0.1279 -0.9309
11227TIP3   OH255095   1.218   2.576  14.601 -0.4655  0.4066  0.2044
11227TIP3    H155096   1.155   2.596  14.531 -0.3220 -1.0385 -0.3919
11227TIP3    H255097   1.303   2.585  14.559 -0.3895 -2.2307 -0.4450
11228TIP3   OH255098   1.574   4.672   2.114  0.2687 -0.5859 -0.0747
11228TIP3    H155099   1.503   4.730   2.087  1.4096  0.8150 -0.1973
11228TIP3    H255100   1.638   4.730   2.154  1.5286 -1.7454 -0.3429
11229TIP3   OH255101   6.680   0.706   1.168  0.0820 -0.0268 -0.3194
11229TIP3    H155102   6.720   0.785   1.204  1.8475 -0.2328 -1.6911
11229TIP3    H255103   6.641   0.735   1.085 -0.4728 -0.3371 -0.1748
11230TIP3   OH255104   6.375   1.091   5.650 -0.3484 -0.0073  0.3575
11230TIP3    H155105   6.365   1.152   5.723 -0.7198 -0.7027  0.9001
11230TIP3    H255106   6.391   1.006   5.691 -1.3925 -0.5650 -0.3366
11231TIP3   OH255107   1.246   3.013  13.023  0.3473  0.7287  0.5674
11231TIP3    H155108   1.178   2.946  13.007  1.3800 -0.1435 -0.3087
11231TIP3    H255109   1.298   2.977  13.095  1.3453  0.2265 -0.3882
11232TIP3   OH255110   2.874   0.994   5.750  0.0931  0.0331  0.7049
11232TIP3    H155111   2.863   1.084   5.719  1.0487  0.9989  2.9188
11232TIP3    H255112   2.786   0.956   5.748 -0.6680  1.6600  1.5037
11233TIP3   OH255113   5.502   6.423   1.125  0.5291 -0.1349 -0.1271
11233TIP3    H155114   5.482   6.480   1.200 -0.5789 -1.3758  0.5505
11233TIP3    H255115   5.583   6.379   1.150  0.3131 -0.3387  0.2147
11234TIP3   OH255116   0.113   3.970  15.131  0.2942  0.5632 -0.7252
11234TIP3    H155117   0.176   3.951  15.200 -0.3058  0.3038 -0.2311
11234TIP3    H255118   0.054   3.894  15.131 -0.8325  1.4024 -0.2254
11235TIP3   OH255119   2.301   6.130  14.384 -0.0207 -0.0937 -0.0411
11235TIP3    H155120   2.383   6.092  14.417 -0.1272 -1.5677 -1.3749
11235TIP3    H255121   2.325   6.169  14.300 -0.4562  0.6230  0.1537
11236TIP3   OH255122   1.222   5.126   0.710  0.6709 -0.0983  0.1323
11236TIP3    H155123   1.208   5.201   0.651 -0.5021 -1.1707 -1.0458
11236TIP3    H255124   1.181   5.053   0.664  3.7329 -1.9754  0.1808
11237TIP3   OH255125   3.051   1.014   2.021  0.2713  0.4206  0.0632
11237TIP3    H155126   3.132   1.059   1.996 -0.4828  1.1279 -1.2537
11237TIP3    H255127   2.983   1.058   1.969 -0.9684 -0.0926  1.2053
11238TIP3   OH255128   6.552   6.316  11.774  0.0296 -0.2036 -0.2437
11238TIP3    H155129   6.614   6.312  11.846 -1.4159 -1.0276  1.0414
11238TIP3    H255130   6.486   6.380  11.802 -1.4428 -1.7358 -0.0037
11239TIP3   OH255131   2.428   3.897  17.240  0.6458 -0.3900 -0.2318
11239TIP3    H155132   2.486   3.833  17.198  0.3409 -0.8933  0.1024
11239TIP3    H255133   2.340   3.865  17.222  0.3957  1.0820 -1.8704
11240TIP3   OH255134   6.267   0.015   0.778 -0.4391 -0.9783  0.0993
11240TIP3    H155135   6.329  -0.056   0.789 -0.2473 -0.8464 -0.1237
11240TIP3    H255136   6.243   0.013   0.685 -0.0630 -0.4521 -0.0150
11241TIP3   OH255137   4.549   0.083   5.145  0.2772  0.4536 -0.3250
11241TIP3    H155138   4.563   0.013   5.082  0.2556  0.2376 -0.0897
11241TIP3    H255139   4.461   0.068   5.179  0.9779 -0.5549  1.1509
11242TIP3   OH255140   2.225   3.245   0.592  0.4926  0.0105  0.3780
11242TIP3    H155141   2.173   3.197   0.657  0.3128 -0.2987  0.0093
11242TIP3    H255142   2.193   3.213   0.508 -1.9409  3.0770 -0.0408
11243TIP3   OH255143   4.592   5.719  15.276 -0.2341 -0.5997 -0.5208
11243TIP3    H155144   4.532   5.731  15.349 -0.6594  1.1096 -1.1164
11243TIP3    H255145   4.537   5.728  15.198  0.5613 -0.3744 -1.0679
11244TIP3   OH255146   1.956   1.307  11.287 -0.6024 -0.1992  0.3846
11244TIP3    H155147   1.860   1.299  11.282 -0.4785 -2.4529  0.8040
11244TIP3    H255148   1.970   1.397  11.316 -2.6107  0.1007  0.6114
11245TIP3   OH255149   4.951   3.346  13.192  0.3435 -0.6384 -0.0507
11245TIP3    H155150   5.041   3.325  13.165  0.2007 -1.0754 -0.2002
11245TIP3    H255151   4.938   3.436  13.164  1.0965 -0.2144  0.9308
11246TIP3   OH255152   1.104   5.531   2.537  0.4623  0.2770  0.2169
11246TIP3    H155153   1.069   5.545   2.449  2.2110  1.3655 -0.3630
11246TIP3    H255154   1.029   5.543   2.595 -0.7215 -0.4389 -1.0957
11247TIP3   OH255155   4.748   6.663  15.853  0.3289  1.0413  0.0766
11247TIP3    H155156   4.802   6.689  15.778  1.1204 -1.1725 -0.1963
11247TIP3    H255157   4.658   6.679  15.824  0.4380 -1.9833 -2.3868
11248TIP3   OH255158   3.958   2.150   1.229 -0.1635 -0.2524  0.3877
11248TIP3    H155159   4.026   2.143   1.295  0.3694 -1.3062 -0.2570
11248TIP3    H255160   3.930   2.060   1.213 -0.1930 -0.0296 -0.9063
11249TIP3   OH255161   4.223   1.188  17.165  0.5053 -0.3800  0.2976
11249TIP3    H155162   4.317   1.194  17.150  0.4729 -1.1633 -0.3440
11249TIP3    H255163   4.186   1.171  17.078 -0.0812 -1.4008  0.7214
11250TIP3   OH255164   2.057   5.351  16.873  0.3603 -0.0907  0.3171
11250TIP3    H155165   2.087   5.266  16.905  1.6218  1.3901  3.5476
11250TIP3    H255166   2.114   5.370  16.798  1.2652 -1.3408  0.6584
11251TIP3   OH255167   3.380   0.569  16.193 -0.3438  0.2361 -0.1451
11251TIP3    H155168   3.360   0.593  16.283 -2.1796 -1.4926 -0.0075
11251TIP3    H255169   3.472   0.542  16.195 -0.6740 -0.9491  1.5247
11252TIP3   OH255170   4.226   6.734  13.177 -0.4675 -0.9938 -0.4077
11252TIP3    H155171   4.303   6.791  13.182 -0.3216 -1.2514  0.4679
11252TIP3    H255172   4.257   6.656  13.132  0.0546 -1.4995  0.7938
11253TIP3   OH255173   5.033   2.143   0.969 -0.1809 -0.3020  0.0656
11253TIP3    H155174   5.095   2.133   1.041  1.1663 -0.0138 -1.0036
11253TIP3    H255175   5.082   2.192   0.903 -1.7041  0.2920 -0.6575
11254TIP3   OH255176   4.954   4.721  12.417 -0.1883 -0.2089 -0.1973
11254TIP3    H155177   4.859   4.731  12.419 -0.2350 -0.7653  1.1155
11254TIP3    H255178   4.988   4.809  12.437 -0.5006 -0.7339  2.9811
11255TIP3   OH255179   5.757   3.596  14.559  0.0482  0.6530 -0.2603
11255TIP3    H155180   5.797   3.613  14.474  0.3575 -0.0610 -0.2651
11255TIP3    H255181   5.825   3.552  14.609 -0.5127  0.0090 -0.0507
11256TIP3   OH255182   5.349   3.209  14.185 -0.2077  0.3512  0.1373
11256TIP3    H155183   5.342   3.167  14.271 -1.4853 -0.8877 -0.5250
11256TIP3    H255184   5.399   3.147  14.132 -1.1185  0.1624 -0.5326
11257TIP3   OH255185   0.714   1.517  14.390  0.5191 -0.2684 -0.6976
11257TIP3    H155186   0.669   1.470  14.321  0.5125 -0.8558 -0.3009
11257TIP3    H255187   0.666   1.600  14.398 -1.7455 -1.6391  1.0134
11258TIP3   OH255188   3.777   1.427   3.638  0.4646  0.3167  0.1962
11258TIP3    H155189   3.777   1.522   3.628  2.5870  0.2388 -1.1235
11258TIP3    H255190   3.867   1.404   3.658 -0.2433 -1.3549  1.7658
11259TIP3   OH255191   5.468   6.044   1.519 -0.7027 -0.5280  0.1827
11259TIP3    H155192   5.538   6.001   1.567  0.3924  0.0787 -0.8089
11259TIP3    H255193   5.432   5.977   1.461 -0.1105 -0.5424 -0.1744
11260TIP3   OH255194   3.395   3.234  12.227 -0.0515 -0.3753 -0.1618
11260TIP3    H155195   3.331   3.293  12.185  2.0551  2.0599 -0.1933
11260TIP3    H255196   3.369   3.233  12.319 -0.4939  0.0984 -0.2714
11261TIP3   OH255197   3.276   4.379  16.832  0.4603  0.3500  0.3102
11261TIP3    H155198   3.363   4.348  16.854  1.3648  3.0920  1.0305
11261TIP3    H255199   3.231   4.388  16.916 -0.1856 -0.1096  0.0260
11262TIP3   OH255200   1.559   3.953  12.730  0.4092  0.1966 -0.0196
11262TIP3    H155201   1.626   4.001  12.779  1.8657  0.9494 -2.5466
11262TIP3    H255202   1.533   4.014  12.660 -0.2172 -1.4367 -1.2581
11263TIP3   OH255203   3.776   5.765  12.062 -0.2529  0.4161 -0.1633
11263TIP3    H155204   3.758   5.697  12.128 -2.9417  0.7003 -0.4681
11263TIP3    H255205   3.690   5.785  12.025  0.7805  2.4078 -1.6747
11264TIP3   OH255206   2.491   5.562   3.677  0.2487 -0.5846 -0.2085
11264TIP3    H155207   2.503   5.644   3.724  0.4164  0.0107 -1.2624
11264TIP3    H255208   2.396   5.550   3.673  0.2373 -0.7625  0.4688
11265TIP3   OH255209   0.954   4.018   6.175  0.3812  0.5929 -0.8158
11265TIP3    H155210   1.009   3.943   6.153  2.0284  1.8062 -0.9923
11265TIP3    H255211   0.883   3.981   6.228  0.1568 -1.3387 -2.3410
11266TIP3   OH255212   4.255   0.586   0.592 -0.1081  0.8290 -0.1658
11266TIP3    H155213   4.202   0.610   0.516 -1.4201  1.4361  0.9071
11266TIP3    H255214   4.211   0.509   0.629  0.8416  0.1918 -0.3159
11267TIP3   OH255215   0.596   3.890   5.476 -0.5052  0.3321 -0.2683
11267TIP3    H155216   0.642   3.955   5.423  0.5955  1.3667  1.8471
11267TIP3    H255217   0.503   3.903   5.454 -0.2780  2.3390 -0.2422
11268TIP3   OH255218   3.657   0.825   2.437  0.0467 -0.3686 -0.1505
11268TIP3    H155219   3.584   0.778   2.397 -0.5127 -0.8323  1.3527
11268TIP3    H255220   3.734   0.773   2.413 -0.3262 -0.9093 -0.1946
11269TIP3   OH255221   3.389   5.482  15.989 -0.3861 -0.2299 -0.3542
11269TIP3    H155222   3.344   5.398  15.993 -4.0567  1.5363  0.1135
11269TIP3    H255223   3.334   5.536  15.931  1.9220  1.7974 -0.8100
11270TIP3   OH255224   4.673   5.251  12.609 -0.4098 -0.2822  0.0927
11270TIP3    H155225   4.628   5.178  12.651 -2.5052 -0.0587 -1.5467
11270TIP3    H255226   4.603   5.313  12.589  0.3452 -0.3717 -3.6031
11271TIP3   OH255227   6.125   1.708   2.412 -0.7045  0.0740 -0.1133
11271TIP3    H155228   6.136   1.751   2.327 -0.2539 -0.6628 -0.4416
11271TIP3    H255229   6.037   1.732   2.440 -0.4158  1.3057 -0.2205
11272TIP3   OH255230   4.844   6.110  12.836 -0.4972 -0.5004 -0.1728
11272TIP3    H155231   4.778   6.061  12.788 -1.4136  0.0834  0.4584
11272TIP3    H255232   4.926   6.063  12.819 -0.5220  0.3467 -3.2583
11273TIP3   OH255233   1.951   4.774  15.473 -0.9968 -0.1478  0.0393
11273TIP3    H155234   1.926   4.763  15.564 -0.5736 -0.5333  0.1140
11273TIP3    H255235   1.961   4.685  15.440  2.2887 -0.1288  0.5846
11274TIP3   OH255236   1.231   4.976  15.035  0.3557  0.3971 -0.0344
11274TIP3    H155237   1.317   5.008  15.008 -0.1958  0.1500 -2.2297
11274TIP3    H255238   1.169   5.026  14.982 -0.9025  0.6930  1.6425
11275TIP3   OH255239   2.323   2.811   5.409 -0.1648 -0.2269  0.1464
11275TIP3    H155240   2.360   2.890   5.447 -0.0561  0.1899 -0.8194
11275TIP3    H255241   2.307   2.754   5.485  0.3735  0.4465  0.7825
11276TIP3   OH255242   2.468   5.462   5.834  0.4302  0.0390  0.1854
11276TIP3    H155243   2.502   5.515   5.762  1.8087 -1.8547 -0.6472
11276TIP3    H255244   2.440   5.525   5.900 -1.1503  1.8643 -2.0787
11277TIP3   OH255245   6.119   1.399  16.317 -0.3342 -0.1630  0.2593
11277TIP3    H155246   6.128   1.305  16.333 -0.0954 -0.1246  0.3469
11277TIP3    H255247   6.143   1.410  16.225 -0.3364 -0.1835  0.2547
11278TIP3   OH255248   6.280   0.380  14.699  0.1114  0.2797  0.4332
11278TIP3    H155249   6.218   0.452  14.689 -0.6713 -0.5407 -1.0527
11278TIP3    H255250   6.226   0.307  14.732 -0.1062 -0.8403 -2.1319
11279TIP3   OH255251   6.625   1.291   2.354 -0.4539  0.4240 -0.1979
11279TIP3    H155252   6.568   1.265   2.281  1.6492 -0.4090 -1.6810
11279TIP3    H255253   6.569   1.289   2.431 -2.0202 -2.1386 -1.2705
11280TIP3   OH255254   4.180   0.883   1.197 -0.0647 -0.1272  0.2236
11280TIP3    H155255   4.157   0.949   1.262 -1.0935 -1.5286  1.3283
11280TIP3    H255256   4.120   0.811   1.213  1.0664 -1.3841 -0.9065
11281TIP3   OH255257   3.726   5.086  13.655  0.5385  0.6442  0.1206
11281TIP3    H155258   3.716   4.999  13.693 -1.0292  1.0790  0.7489
11281TIP3    H255259   3.643   5.130  13.672  1.4340  2.4054  0.1566
11282TIP3   OH255260   5.159   4.530  15.401  0.7323 -0.0064 -0.4638
11282TIP3    H155261   5.175   4.469  15.329  1.6469  0.7887 -0.9477
11282TIP3    H255262   5.149   4.615  15.359 -0.8489  0.1675  0.1760
11283TIP3   OH255263   2.150   3.766   2.509  0.6371 -0.8489 -0.4668
11283TIP3    H155264   2.090   3.734   2.576  0.7469  0.7501  0.4507
11283TIP3    H255265   2.095   3.815   2.449  1.0793  2.0117  1.2452
11284TIP3   OH255266   3.503   2.928  15.846  0.1303  0.4456 -0.0254
11284TIP3    H155267   3.571   2.912  15.911  0.3802 -1.2058 -0.6500
11284TIP3    H255268   3.441   2.986  15.890  1.9678  2.0791  0.5162
11285TIP3   OH255269   0.510   5.023  16.745  0.1083 -0.2768 -0.5725
11285TIP3    H155270   0.510   5.094  16.680  0.4679  0.1023 -0.1615
11285TIP3    H255271   0.590   5.036  16.795 -0.0775 -0.6787 -0.1665
11286TIP3   OH255272   0.885   4.456   0.437  0.3946 -0.1175 -0.1529
11286TIP3    H155273   0.921   4.500   0.360  2.6581 -0.2428  0.7357
11286TIP3    H255274   0.959   4.406   0.471 -1.3128 -2.3227  0.5203
11287TIP3   OH255275   3.633   3.923  15.381 -0.1857  0.4611 -0.5409
11287TIP3    H155276   3.709   3.980  15.373 -1.0988  1.5287 -2.3901
11287TIP3    H255277   3.655   3.847  15.328 -0.4074  0.8103 -1.1503
11288TIP3   OH255278   4.409   0.938   4.041  0.1757  0.1826 -0.3437
11288TIP3    H155279   4.475   0.870   4.040 -1.8106 -1.8472 -0.8902
11288TIP3    H255280   4.330   0.896   4.006 -1.9240  1.9235  1.9267
11289TIP3   OH255281   0.473   4.723   4.120  0.3989  0.0113 -0.3052
11289TIP3    H155282   0.434   4.693   4.038 -0.6005  1.6615 -0.4725
11289TIP3    H255283   0.536   4.654   4.143  0.3356 -0.7306 -2.1764
11290TIP3   OH255284   5.679   1.466   1.224 -0.2963  0.3261 -0.2515
11290TIP3    H155285   5.747   1.532   1.216 -1.1818  1.0473 -2.6985
11290TIP3    H255286   5.616   1.487   1.155 -1.9828 -1.5086  0.6001
11291TIP3   OH255287   2.239   0.018  11.048 -0.0117  0.3530 -0.2762
11291TIP3    H155288   2.333   0.006  11.034  0.4098  1.0598  1.6727
11291TIP3    H255289   2.232   0.102  11.094 -1.5824  0.1913 -0.1680
11292TIP3   OH255290   2.090   3.794  13.928  0.0671 -0.3572  0.1837
11292TIP3    H155291   2.155   3.825  13.991  0.5183  0.5791 -0.7029
11292TIP3    H255292   2.090   3.699  13.937 -0.2572 -0.2142  1.9486
11293TIP3   OH255293   5.651   2.797  12.717 -0.1417  0.5479 -0.7904
11293TIP3    H155294   5.628   2.707  12.694 -1.2658  1.0538 -1.7268
11293TIP3    H255295   5.631   2.803  12.811 -1.6856  0.2947 -1.0759
11294TIP3   OH255296   5.021   1.820  16.057  0.0210 -0.5073 -0.2193
11294TIP3    H155297   5.007   1.913  16.037 -0.1371 -0.4404  0.2027
11294TIP3    H255298   5.090   1.819  16.123 -0.6883 -0.6270  0.5363
11295TIP3   OH255299   6.207   1.569  14.268 -0.6202 -0.1720 -0.2727
11295TIP3    H155300   6.165   1.655  14.264  0.1689  0.3593  1.5270
11295TIP3    H255301   6.287   1.584  14.319  1.3512 -1.3121 -2.8230
11296TIP3   OH255302   2.968   4.809   4.486 -1.0635  0.3163  0.0750
11296TIP3    H155303   2.921   4.726   4.489 -0.6965  0.0009 -1.8850
11296TIP3    H255304   2.918   4.866   4.544 -1.8307 -1.0063  0.7653
11297TIP3   OH255305   2.270   3.681   0.171  0.2554  0.3269  0.1030
11297TIP3    H155306   2.304   3.771   0.170  2.5467 -0.4830 -0.0285
11297TIP3    H255307   2.179   3.690   0.142  0.5172  2.5559 -0.2287
11298TIP3   OH255308   3.502   1.130   4.045 -0.6241 -0.5141 -0.0468
11298TIP3    H155309   3.511   1.223   4.063 -0.1426 -0.1564 -1.8946
11298TIP3    H255310   3.576   1.090   4.090  1.7579  0.5784 -2.6953
11299TIP3   OH255311   2.785   1.423  10.408 -0.4891  0.2486 -0.1834
11299TIP3    H155312   2.861   1.481  10.412 -1.0026  0.8627  1.5680
11299TIP3    H255313   2.798   1.362  10.481 -0.8120 -0.7732 -0.9585
11300TIP3   OH255314   4.009   2.012  15.538 -0.9950 -0.0817  0.0630
11300TIP3    H155315   3.924   1.970  15.548 -1.2492  0.2153 -0.6971
11300TIP3    H255316   3.990   2.106  15.546 -1.0110  0.0884 -1.6033
11301TIP3   OH255317   3.215   2.973  14.002 -0.2317 -0.6422 -0.8779
11301TIP3    H155318   3.193   2.880  13.998 -2.2342 -0.2059 -1.2203
11301TIP3    H255319   3.155   3.015  13.941 -0.7329  1.0864  0.6810
11302TIP3   OH255320   0.255   5.262   0.878 -0.3608  0.5221  0.3931
11302TIP3    H155321   0.288   5.352   0.886 -0.2457  0.6144 -0.8510
11302TIP3    H255322   0.260   5.243   0.784 -0.0709 -0.9107  0.6704
11303TIP3   OH255323   2.743   0.010   4.990 -0.2135  0.1549  0.4259
11303TIP3    H155324   2.737  -0.044   5.069  0.8400 -2.0818 -0.9187
11303TIP3    H255325   2.829   0.051   4.996  1.2564 -2.5070 -0.9451
11304TIP3   OH255326   5.615   5.891   5.717  0.2567  1.0611 -0.4220
11304TIP3    H155327   5.591   5.817   5.661 -1.9504  2.0028 -0.7949
11304TIP3    H255328   5.665   5.851   5.788 -1.8866 -1.0119  0.0395
11305TIP3   OH255329   3.301   4.417   5.402 -0.3270  0.2808 -0.1672
11305TIP3    H155330   3.316   4.510   5.420 -1.1952  0.1401  1.4545
11305TIP3    H255331   3.354   4.371   5.467 -0.9438 -0.3339 -0.0923
11306TIP3   OH255332   6.361   1.199  14.194  0.1335 -0.0253  0.0737
11306TIP3    H155333   6.304   1.274  14.179 -1.1891 -1.1674 -0.9525
11306TIP3    H255334   6.302   1.129  14.222  0.7049 -1.7069 -2.5082
11307TIP3   OH255335   6.488   4.477  11.749 -0.1627 -0.0329 -0.5610
11307TIP3    H155336   6.514   4.569  11.749  1.3306 -0.4258 -0.5705
11307TIP3    H255337   6.565   4.430  11.716 -0.2060 -1.4416  1.1696
11308TIP3   OH255338   6.744   3.288   6.086  0.2311  0.0094 -0.2567
11308TIP3    H155339   6.737   3.195   6.066 -0.1562  0.1832 -0.9657
11308TIP3    H255340   6.837   3.308   6.074  0.5593 -0.5584  1.1881
11309TIP3   OH255341   1.347   4.033   2.449 -0.2483 -0.3075  0.1460
11309TIP3    H155342   1.408   4.106   2.444 -1.1430  0.4711  0.2971
11309TIP3    H255343   1.272   4.067   2.497 -1.9294 -0.3841 -2.2000
11310TIP3   OH255344   5.781   0.186   2.873  0.3255 -0.1613  0.7059
11310TIP3    H155345   5.791   0.095   2.846  1.6502  0.4907 -1.2419
11310TIP3    H255346   5.696   0.189   2.916 -1.0625 -1.8073 -1.6672
11311TIP3   OH255347   5.727   2.722  16.223 -0.3570  0.0384  0.1257
11311TIP3    H155348   5.785   2.740  16.298  1.0429  2.0152 -1.3247
11311TIP3    H255349   5.780   2.667  16.165 -1.3105 -1.1940  0.3892
11312TIP3   OH255350   1.429   3.411  11.725 -0.5510 -0.5423 -0.5554
11312TIP3    H155351   1.442   3.318  11.745  0.7039 -0.8892 -2.6272
11312TIP3    H255352   1.494   3.457  11.778 -0.6000 -0.9266 -0.1561
11313TIP3   OH255353   3.099   5.398   2.329  0.5939 -0.3833 -0.3967
11313TIP3    H155354   3.076   5.418   2.420 -0.2044 -0.3212 -0.6029
11313TIP3    H255355   3.193   5.384   2.330  0.3724 -1.9293  0.7257
11314TIP3   OH255356   5.417   0.342  16.243  0.0043 -0.1791  0.9908
11314TIP3    H155357   5.379   0.288  16.312  0.8258 -0.3753  1.3030
11314TIP3    H255358   5.438   0.425  16.286 -2.7860  1.1002  0.1541
11315TIP3   OH255359   6.307   3.958  12.738  0.2829  0.4448 -0.2876
11315TIP3    H155360   6.354   3.992  12.662 -0.2741 -0.6687 -1.1717
11315TIP3    H255361   6.369   3.900  12.781 -0.8179 -2.9488 -2.8016
11316TIP3   OH255362   1.393   4.202  15.216 -0.3469  0.3911 -0.5958
11316TIP3    H155363   1.385   4.223  15.123  2.2935  1.7356 -0.6035
11316TIP3    H255364   1.472   4.247  15.244  1.1321 -3.1143  1.4334
11317TIP3   OH255365   4.831   4.778  13.211 -0.3352  0.3256 -0.3421
11317TIP3    H155366   4.779   4.837  13.156 -1.2532 -0.4657 -0.3557
11317TIP3    H255367   4.909   4.829  13.233 -0.6007  1.1595 -1.2206
11318TIP3   OH255368   5.449   1.704  12.947 -0.3920 -0.5760 -0.3512
11318TIP3    H155369   5.386   1.666  12.886 -0.0885  0.9474 -1.7027
11318TIP3    H255370   5.534   1.670  12.917 -0.4200 -1.4654  0.5466
11319TIP3   OH255371   5.423   2.361  14.124 -0.1933  0.1972  0.6067
11319TIP3    H155372   5.415   2.300  14.051 -0.2136  0.1385  0.6577
11319TIP3    H255373   5.333   2.376  14.153 -0.4169  2.1363 -0.9426
11320TIP3   OH255374   0.316   3.661  12.930 -0.6930 -0.1192  0.1360
11320TIP3    H155375   0.346   3.750  12.945  0.2058 -0.0675 -1.6906
11320TIP3    H255376   0.250   3.669  12.862 -1.3053 -0.7550  0.6471
11321TIP3   OH255377   6.317   1.494   6.386 -0.0883  0.0951  0.0052
11321TIP3    H155378   6.344   1.402   6.382  1.2913  0.3339  2.1244
11321TIP3    H255379   6.372   1.537   6.320  0.4489 -0.3571  0.1467
11322TIP3   OH255380   0.611   3.873  15.853 -0.0671 -0.2369  0.7441
11322TIP3    H155381   0.533   3.889  15.799  1.5981  0.2919 -1.6464
11322TIP3    H255382   0.674   3.938  15.823  1.9298 -1.8365  1.3065
11323TIP3   OH255383   4.855   5.313  14.650 -0.1641  0.1010 -0.3186
11323TIP3    H155384   4.780   5.370  14.668 -0.1059  0.3466 -0.8233
11323TIP3    H255385   4.816   5.232  14.617 -0.2403 -0.0894  0.2305
11324TIP3   OH255386   2.249   5.211  12.686 -0.4260  1.0259  0.9082
11324TIP3    H155387   2.266   5.118  12.701  1.5420  1.0043 -0.9689
11324TIP3    H255388   2.168   5.228  12.734 -0.7783 -1.6089  1.4344
11325TIP3   OH255389   1.402   1.562  14.988 -0.5858  0.6549  0.3659
11325TIP3    H155390   1.411   1.654  14.961 -0.4717  0.7653  0.7725
11325TIP3    H255391   1.409   1.512  14.907 -1.5655  1.0613  0.0229
11326TIP3   OH255392   0.799   3.636  11.414 -0.1074  0.3161  0.7012
11326TIP3    H155393   0.845   3.614  11.333 -0.1366  1.5046  0.3433
11326TIP3    H255394   0.867   3.662  11.475 -0.1936  0.7935  0.5974
11327TIP3   OH255395   4.214   2.056   2.749  0.1271  0.1263  0.4097
11327TIP3    H155396   4.158   1.984   2.778  1.1372 -0.5079  0.8667
11327TIP3    H255397   4.183   2.132   2.798 -0.4952 -0.1547  0.4611
11328TIP3   OH255398   6.454   0.640   0.937  0.2682  0.6583 -0.3299
11328TIP3    H155399   6.545   0.625   0.914 -0.4257  1.5856 -4.5012
11328TIP3    H255400   6.414   0.553   0.936  0.3732  0.5756 -2.8227
11329TIP3   OH255401   5.488   0.481   0.049 -0.2139 -0.4111  0.1021
11329TIP3    H155402   5.516   0.572   0.039 -1.8374  0.2845  1.3863
11329TIP3    H255403   5.447   0.459  -0.034  0.8940 -0.2732 -0.5093
11330TIP3   OH255404   5.220   6.613   3.482 -0.8255  0.3726 -0.7466
11330TIP3    H155405   5.219   6.523   3.517  0.2163 -0.0204 -1.6444
11330TIP3    H255406   5.171   6.607   3.401 -1.7042  0.8799 -0.2620
11331TIP3   OH255407   2.937   2.075  14.357 -0.0045  0.2919 -0.3626
11331TIP3    H155408   2.953   2.153  14.304  0.4652  0.8965  0.6565
11331TIP3    H255409   3.020   2.057  14.400 -0.3687 -0.2244  0.1419
11332TIP3   OH255410   3.885   5.649  13.629 -0.2300  0.6389 -0.2566
11332TIP3    H155411   3.848   5.564  13.607  0.1600 -0.0902  1.7131
11332TIP3    H255412   3.822   5.713  13.594 -0.6144 -0.4401 -1.5967
11333TIP3   OH255413   5.112   1.711   2.782 -0.5071 -0.4400  0.3223
11333TIP3    H155414   5.137   1.619   2.786 -0.5929 -0.5283 -0.8051
11333TIP3    H255415   5.047   1.721   2.850 -0.0093 -1.0562  0.9026
11334TIP3   OH255416   4.709   5.582   1.474 -0.0719 -0.0332 -0.0888
11334TIP3    H155417   4.657   5.570   1.395  0.6114 -1.5768 -0.3476
11334TIP3    H255418   4.765   5.657   1.455  1.1044 -1.2506 -1.6801
11335TIP3   OH255419   1.629   6.444   6.445  0.7500  0.0983  0.4455
11335TIP3    H155420   1.541   6.482   6.450  0.8015  0.0977  1.7086
11335TIP3    H255421   1.634   6.385   6.520  1.5649 -0.4841 -0.0559
11336TIP3   OH255422   2.617   4.467  10.654  0.0386  0.2231 -0.3006
11336TIP3    H155423   2.525   4.471  10.681  0.3629 -0.7649  1.0323
11336TIP3    H255424   2.663   4.429  10.728  1.3095 -0.7078 -1.5000
11337TIP3   OH255425   1.994   6.146   0.879  0.0019 -0.1413 -0.2260
11337TIP3    H155426   1.985   6.053   0.898  0.5127 -0.2694 -0.5824
11337TIP3    H255427   2.055   6.150   0.805  1.1200  0.5431  0.6955
11338TIP3   OH255428   2.257   6.041   5.600 -0.0116 -0.5385  0.5686
11338TIP3    H155429   2.257   6.062   5.693 -0.6415 -0.4101  0.5384
11338TIP3    H255430   2.177   6.080   5.565  0.4298 -0.2133 -0.1099
11339TIP3   OH255431   5.539   1.448  12.655  0.3849 -0.0161  0.1798
11339TIP3    H155432   5.445   1.459  12.639  0.1029 -2.3461 -0.1572
11339TIP3    H255433   5.571   1.401  12.578  1.5395 -0.4172  0.8779
11340TIP3   OH255434   6.432   3.111  14.701  0.4199  0.0098 -0.3752
11340TIP3    H155435   6.423   3.206  14.694  0.5285  0.1226  0.7988
11340TIP3    H255436   6.356   3.077  14.653  0.3434  0.6817 -0.7548
11341TIP3   OH255437   3.579   0.366  13.465 -0.3584  0.3017 -1.1738
11341TIP3    H155438   3.548   0.335  13.550  0.3151 -2.3775 -1.8047
11341TIP3    H255439   3.589   0.461  13.476 -1.5330  0.2207  1.2919
11342TIP3   OH255440   0.248   6.159  13.134  0.2122 -0.0766  0.2689
11342TIP3    H155441   0.207   6.088  13.084  0.2835  0.3073 -0.3305
11342TIP3    H255442   0.185   6.177  13.204  0.3132 -0.9153  0.5949
11343TIP3   OH255443   5.974   3.876   4.767 -0.0744 -0.2433  0.0993
11343TIP3    H155444   5.895   3.920   4.735  0.5905  1.5457  0.7893
11343TIP3    H255445   5.974   3.791   4.721 -0.9825  0.7822 -1.9542
11344TIP3   OH255446   1.252   3.259  15.565 -0.0901  0.2442 -0.3383
11344TIP3    H155447   1.338   3.297  15.546  0.2036 -0.1673  0.1257
11344TIP3    H255448   1.190   3.330  15.547  0.3640  0.6175 -0.4631
11345TIP3   OH255449   2.712   1.628   4.618 -0.1324  0.4596 -0.5941
11345TIP3    H155450   2.754   1.642   4.533  0.2331 -0.4788 -0.5769
11345TIP3    H255451   2.724   1.535   4.636  2.1380  1.0678  1.7178
11346TIP3   OH255452   6.153   3.779   1.552  0.0321  0.8877 -0.2043
11346TIP3    H155453   6.224   3.756   1.493 -1.0655 -1.1743 -0.8149
11346TIP3    H255454   6.083   3.811   1.495 -0.8392 -0.5989 -0.0092
11347TIP3   OH255455   4.880   4.608  15.981 -0.3959 -0.2046 -0.2813
11347TIP3    H155456   4.796   4.647  16.005  0.6403  1.7626  0.3735
11347TIP3    H255457   4.864   4.568  15.896 -1.8519  0.6396 -0.4453
11348TIP3   OH255458   0.995   6.086   6.222 -0.1953 -0.6161 -0.3518
11348TIP3    H155459   0.902   6.093   6.243 -0.3845 -1.3153 -0.9423
11348TIP3    H255460   1.029   6.021   6.284 -0.3874 -1.3565 -1.0044
11349TIP3   OH255461   3.340   3.656  11.800  0.0171  0.3534  0.7289
11349TIP3    H155462   3.333   3.751  11.808  2.4918  0.7347 -0.5561
11349TIP3    H255463   3.433   3.638  11.814 -0.2677 -1.7893  0.1613
11350TIP3   OH255464   1.321   1.881  16.140 -0.2217 -0.4818  0.4667
11350TIP3    H155465   1.397   1.824  16.127 -0.7926 -1.0078 -0.6258
11350TIP3    H255466   1.333   1.953  16.078 -1.1107 -1.0850 -0.4147
11351TIP3   OH255467   3.724   6.132  17.115 -0.1263  0.0050 -0.0643
11351TIP3    H155468   3.706   6.136  17.209  1.2972 -0.5866  0.2633
11351TIP3    H255469   3.805   6.182  17.103 -1.3078  1.7236 -1.3011
11352TIP3   OH255470   1.717   4.150   5.563  0.3044 -0.0138  0.1915
11352TIP3    H155471   1.733   4.121   5.473  0.8152  0.9719 -0.0498
11352TIP3    H255472   1.802   4.140   5.607  0.3271  0.5145  0.2721
11353TIP3   OH255473   5.840   2.300   4.971  0.2153 -0.1159  0.5922
11353TIP3    H155474   5.892   2.364   5.021 -0.2474 -0.0566  1.0045
11353TIP3    H255475   5.847   2.219   5.021 -0.2876 -0.0448  0.7839
11354TIP3   OH255476   0.423   1.322  13.675 -0.3555 -0.3794  0.0631
11354TIP3    H155477   0.478   1.244  13.684  0.0770  0.0636  1.5331
11354TIP3    H255478   0.485   1.393  13.663 -0.7175 -0.1568 -0.5149
11355TIP3   OH255479   0.114   6.493   4.021  0.0524  0.2185  0.0251
11355TIP3    H155480   0.103   6.482   3.926 -0.5102  1.4005 -0.0595
11355TIP3    H255481   0.048   6.435   4.059  0.1623 -0.1286 -0.2993
11356TIP3   OH255482   5.208   5.533  15.541 -0.3834 -0.6210 -0.3710
11356TIP3    H155483   5.219   5.448  15.583  1.6043  0.3395  1.2727
11356TIP3    H255484   5.209   5.514  15.447  0.5383 -2.3669 -0.0552
11357TIP3   OH255485   0.873   1.461  11.747 -0.3694 -0.2357 -0.2798
11357TIP3    H155486   0.903   1.421  11.666  3.1605 -0.9577  1.2117
11357TIP3    H255487   0.857   1.387  11.806  0.2382  0.3448  0.6388
11358TIP3   OH255488   5.111   1.875  14.425  0.4093 -0.5538  0.3268
11358TIP3    H155489   5.141   1.811  14.360  0.5389  0.5919 -0.8000
11358TIP3    H255490   5.191   1.920  14.452  0.3748 -1.1371  1.4339
11359TIP3   OH255491   2.478   6.706   4.883  0.7239  0.1207  0.2713
11359TIP3    H155492   2.496   6.644   4.954  0.2287 -1.6448 -1.0805
11359TIP3    H255493   2.530   6.674   4.810 -0.6677  0.4442 -0.9039
11360TIP3   OH255494   0.308   5.207  17.142  0.6307  0.2935  0.0127
11360TIP3    H155495   0.378   5.143  17.139  2.2030  1.9145  0.4457
11360TIP3    H255496   0.284   5.220  17.050 -0.6476 -1.8154 -0.0104
11361TIP3   OH255497   4.301   1.286  12.387  0.1306  0.0398  0.4247
11361TIP3    H155498   4.266   1.361  12.340  1.8922 -0.1022 -1.2326
11361TIP3    H255499   4.238   1.270  12.457 -1.7249  1.3214 -0.8560
11362TIP3   OH255500   5.359   2.805  12.662 -0.4356 -0.0130  0.4327
11362TIP3    H155501   5.371   2.715  12.689  2.2000 -0.5012 -1.9001
11362TIP3    H255502   5.442   2.848  12.681 -1.4525  1.8261  1.0053
11363TIP3   OH255503   0.495   0.023  11.304  0.2821  0.1795 -0.3068
11363TIP3    H155504   0.502   0.118  11.297  0.7977  0.1854  0.2175
11363TIP3    H255505   0.566  -0.010  11.247  0.0479  0.1043 -0.5585
11364TIP3   OH255506   1.166   3.740  13.267  0.5478  0.1724 -0.1653
11364TIP3    H155507   1.219   3.794  13.208  2.2240  1.1248  2.0498
11364TIP3    H255508   1.228   3.674  13.300 -0.6981 -1.1930 -0.4691
11365TIP3   OH255509   2.144   5.281  13.153  0.6370 -0.1158  0.8235
11365TIP3    H155510   2.113   5.304  13.065  0.5101 -2.1105  0.2871
11365TIP3    H255511   2.095   5.338  13.211 -0.9740 -0.2932 -0.2837
11366TIP3   OH255512   3.371   5.835  12.431 -0.0136  0.0270 -0.2474
11366TIP3    H155513   3.317   5.911  12.451 -0.4250  0.0734 -1.4942
11366TIP3    H255514   3.360   5.821  12.337 -1.9696 -3.0696  0.2928
11367TIP3   OH255515   0.746   0.400  14.079 -0.2357 -0.3394  0.4435
11367TIP3    H155516   0.692   0.348  14.138  0.3974 -1.8905 -0.2645
11367TIP3    H255517   0.685   0.437  14.015 -0.6311 -0.7409  0.5896
11368TIP3   OH255518   6.322   2.416  15.347  0.5586  0.1018  0.3196
11368TIP3    H155519   6.393   2.447  15.402  1.1681 -0.4189 -0.1481
11368TIP3    H255520   6.364   2.391  15.265  0.3991 -3.2643  1.1149
11369TIP3   OH255521   3.970   4.119   3.513 -0.3469 -0.1968  0.3062
11369TIP3    H155522   4.064   4.118   3.531 -0.4898 -0.5187  1.1028
11369TIP3    H255523   3.962   4.081   3.426  0.1373 -2.0669  1.0208
11370TIP3   OH255524   2.369   2.645  16.641 -0.1637  0.5838  0.2971
11370TIP3    H155525   2.345   2.727  16.685 -2.8196 -0.3955  0.8228
11370TIP3    H255526   2.339   2.657  16.551 -0.7154  0.1253  0.4196
11371TIP3   OH255527   6.573   4.774  16.322 -0.6770  0.5102  0.3865
11371TIP3    H155528   6.478   4.762  16.325 -0.4667 -1.3073  2.4131
11371TIP3    H255529   6.608   4.688  16.302  0.5738  1.0166  0.2962
11372TIP3   OH255530   5.370   4.208  11.409  0.1839 -0.3644  0.4088
11372TIP3    H155531   5.433   4.216  11.338  1.5535 -2.8826  1.2499
11372TIP3    H255532   5.291   4.173  11.368  0.2966  0.0269 -0.1557
11373TIP3   OH255533   1.136   2.388   1.980  0.5618  0.7294 -0.7591
11373TIP3    H155534   1.047   2.414   1.957 -0.2822  0.0043  1.3853
11373TIP3    H255535   1.143   2.297   1.953 -0.3220 -0.0260  1.3134
11374TIP3   OH255536   2.349   5.415   2.064 -0.1116  0.5583 -0.3538
11374TIP3    H155537   2.350   5.480   1.993 -0.7860  0.4165 -0.4993
11374TIP3    H255538   2.413   5.449   2.127  0.9190  0.3963 -1.2700
11375TIP3   OH255539   2.535   1.193   2.883 -0.0956  0.6061  0.7918
11375TIP3    H155540   2.515   1.203   2.976 -0.7649  1.4208  0.5735
11375TIP3    H255541   2.452   1.165   2.844  0.0275  0.8371  0.3574
11376TIP3   OH255542   0.219   3.001   2.783  0.4495 -0.8150  0.4202
11376TIP3    H155543   0.293   2.942   2.801 -0.0283 -1.3844  0.5672
11376TIP3    H255544   0.153   2.945   2.743  0.3255 -0.1797 -0.2886
11377TIP3   OH255545   1.083   2.077   2.333  0.1475  0.1042  0.0155
11377TIP3    H155546   1.178   2.067   2.342  0.2134 -1.1154 -1.5712
11377TIP3    H255547   1.070   2.171   2.320  1.0858  0.3467  0.7207
11378TIP3   OH255548   2.808   6.177   7.027  0.6644 -0.0341 -0.3244
11378TIP3    H155549   2.863   6.211   6.956  0.9272  0.5240  0.1470
11378TIP3    H255550   2.865   6.117   7.075  1.8711  2.6685  1.9230
11379TIP3   OH255551   2.206   2.356  12.023 -0.0674  0.0224 -0.2658
11379TIP3    H155552   2.260   2.298  11.968 -1.4767 -2.0947  0.4461
11379TIP3    H255553   2.254   2.364  12.105  0.9604  1.3421 -0.9609
11380TIP3   OH255554   6.394   0.960   4.035 -0.1373  1.3543 -0.3826
11380TIP3    H155555   6.340   0.883   4.019  0.6627  0.6887  0.0612
11380TIP3    H255556   6.351   1.004   4.108  0.2158  0.5352  0.3289
11381TIP3   OH255557   0.951   3.670   3.769  0.1381  0.3683 -0.6695
11381TIP3    H155558   0.923   3.578   3.769 -0.7471  0.6148 -0.0865
11381TIP3    H255559   1.022   3.674   3.706  2.4957 -1.4156  1.6558
11382TIP3   OH255560   5.029   1.648  15.807 -0.3288  0.5146 -0.0494
11382TIP3    H155561   5.077   1.682  15.883  0.5218 -1.1271  0.1915
11382TIP3    H255562   4.979   1.723  15.775  0.8814  1.7837  0.8913
11383TIP3   OH255563   6.249   4.970  14.957 -0.5304 -1.0142  0.2822
11383TIP3    H155564   6.253   4.974  14.862  0.4592  1.6088  0.3525
11383TIP3    H255565   6.335   4.999  14.987 -1.1621 -0.7136  1.9625
11384TIP3   OH255566   5.025   0.869   4.727 -0.8396  0.2647  0.7862
11384TIP3    H155567   5.042   0.775   4.739 -0.9041  0.1402  0.0055
11384TIP3    H255568   4.989   0.875   4.638  0.8289  1.2239  0.1178
11385TIP3   OH255569   2.041   6.749   4.312 -0.4982 -0.2224  0.2184
11385TIP3    H155570   2.015   6.766   4.222  2.0790  0.4288 -0.4919
11385TIP3    H255571   2.047   6.836   4.352 -3.1665 -0.5549  1.5976
11386TIP3   OH255572   2.654   4.551   2.672  0.0830 -0.2973 -0.1812
11386TIP3    H155573   2.634   4.571   2.581 -1.2372  0.9695  0.3533
11386TIP3    H255574   2.630   4.630   2.720 -0.2579 -1.3121  1.3894
11387TIP3   OH255575   5.801   2.235  12.035  0.5741  0.0520 -0.4426
11387TIP3    H155576   5.807   2.267  11.944 -0.8177  0.1374 -0.5320
11387TIP3    H255577   5.752   2.153  12.028  1.2308 -0.4016  0.1539
11388TIP3   OH255578   3.861   4.782   4.952  0.1176 -0.5520  0.2479
11388TIP3    H155579   3.930   4.790   5.017  0.0367 -0.1898  0.2939
11388TIP3    H255580   3.891   4.835   4.878  0.5034 -1.4657 -0.2730
11389TIP3   OH255581   5.230   3.959   0.964  0.1597 -0.2464  0.2144
11389TIP3    H155582   5.186   4.042   0.944  1.0170  0.2223  0.2051
11389TIP3    H255583   5.261   3.970   1.054  1.8104  0.1619 -0.3752
11390TIP3   OH255584   6.712   4.815  15.088  0.3813 -0.1625  0.0902
11390TIP3    H155585   6.792   4.787  15.043  0.6722 -0.8230  0.9719
11390TIP3    H255586   6.664   4.734  15.104 -0.6927  0.2696 -0.8047
11391TIP3   OH255587   0.658   3.407  13.869 -0.7947  0.4024  0.0338
11391TIP3    H155588   0.582   3.460  13.897 -1.7186 -1.8443  2.1512
11391TIP3    H255589   0.726   3.430  13.932 -1.5384 -1.5408  1.6754
11392TIP3   OH255590   6.616   0.848  14.321 -0.8445 -0.0845 -0.5881
11392TIP3    H155591   6.639   0.780  14.384  0.2193  0.2566 -0.5922
11392TIP3    H255592   6.592   0.799  14.242 -2.0717 -0.5105  0.0053
11393TIP3   OH255593   2.459   2.117   1.976 -0.0959 -0.0621 -0.3906
11393TIP3    H155594   2.500   2.195   2.014 -0.3055  0.2290 -0.7611
11393TIP3    H255595   2.365   2.133   1.984 -0.1847 -1.0949  1.2386
11394TIP3   OH255596   5.999   2.199   4.121  0.0179  0.0263 -0.1825
11394TIP3    H155597   6.050   2.132   4.077  2.0712  1.3000  0.1199
11394TIP3    H255598   5.951   2.152   4.189  0.3839 -1.2935 -0.8033
11395TIP3   OH255599   4.854   5.475   5.150 -0.1190 -0.1893 -0.0422
11395TIP3    H155600   4.949   5.483   5.160 -0.1353 -0.1782  0.0978
11395TIP3    H255601   4.835   5.384   5.170  0.0836 -0.6507 -1.7852
11396TIP3   OH255602   2.547   5.188   4.871  0.3877  0.2375  0.0543
11396TIP3    H155603   2.491   5.146   4.937 -1.2678  0.0079 -1.3936
11396TIP3    H255604   2.489   5.199   4.795  1.8535  1.6732 -0.9209
11397TIP3   OH255605   3.639   4.853   0.426  0.5621 -0.2179  0.1064
11397TIP3    H155606   3.582   4.779   0.407 -0.4314  0.7303 -0.7373
11397TIP3    H255607   3.723   4.813   0.448  0.5128 -1.5815 -1.8577
11398TIP3   OH255608   6.658   1.707   0.922 -0.0653 -0.3069  0.2729
11398TIP3    H155609   6.585   1.755   0.884  0.0629 -0.1491  0.2237
11398TIP3    H255610   6.670   1.745   1.009  0.0273 -0.2580  0.2392
11399TIP3   OH255611   5.845   1.921  15.601 -0.2517 -0.2151  0.2046
11399TIP3    H155612   5.759   1.888  15.627  0.3684 -2.0009  0.1622
11399TIP3    H255613   5.899   1.911  15.680  0.2234 -0.2792 -0.1265
11400TIP3   OH255614   1.815   3.746   3.072 -0.5151 -0.0881  0.1887
11400TIP3    H155615   1.885   3.769   3.011 -0.7250 -1.4956 -0.6073
11400TIP3    H255616   1.745   3.808   3.052 -0.3421 -0.1287 -0.5495
11401TIP3   OH255617   3.154   1.189  16.674  0.5057  0.5394 -0.4781
11401TIP3    H155618   3.235   1.232  16.702 -0.3410  0.5449  2.2625
11401TIP3    H255619   3.087   1.256  16.681 -0.2898 -0.3388  0.6630
11402TIP3   OH255620   5.906   2.607   1.528 -0.0927 -0.4477 -0.0135
11402TIP3    H155621   5.908   2.661   1.449  2.2032 -0.1790  0.1487
11402TIP3    H255622   5.900   2.517   1.495  1.3237 -0.3663 -0.5634
11403TIP3   OH255623   2.992   1.402  12.417  0.0410 -0.2364 -0.3755
11403TIP3    H155624   3.042   1.412  12.498  1.7492 -0.6126 -1.3416
11403TIP3    H255625   2.973   1.491  12.389  1.1525 -0.0562 -0.5740
11404TIP3   OH255626   5.436   3.278  16.036  0.4338 -0.4833 -0.1843
11404TIP3    H155627   5.407   3.354  16.086 -2.2505 -1.9314  0.6343
11404TIP3    H255628   5.429   3.306  15.944  0.9939  0.7229  0.1173
11405TIP3   OH255629   4.632   4.172  16.921  0.1816  0.1252  0.4148
11405TIP3    H155630   4.538   4.163  16.931  0.4032 -1.7328  1.2320
11405TIP3    H255631   4.660   4.217  17.001 -0.0604  1.2559 -0.1193
11406TIP3   OH255632   1.613   4.935   1.046  0.1295  0.1210  0.4382
11406TIP3    H155633   1.670   4.876   0.997  1.2383 -0.5760  2.4250
11406TIP3    H255634   1.525   4.909   1.021  0.6137 -1.5951  0.3434
11407TIP3   OH255635   6.575   2.085  11.146  0.4083  0.4439 -0.0987
11407TIP3    H155636   6.553   2.146  11.076  1.6080  1.1544  0.1288
11407TIP3    H255637   6.526   2.117  11.222 -0.7890 -0.2517 -0.5413
11408TIP3   OH255638   0.470   6.534   5.093 -0.6078  0.6065  0.3433
11408TIP3    H155639   0.528   6.605   5.120  0.5911  0.4353 -1.6252
11408TIP3    H255640   0.392   6.545   5.148 -0.2677  3.1304  0.4316
11409TIP3   OH255641   0.608   0.440  13.838 -0.6936  0.3128 -0.1669
11409TIP3    H155642   0.587   0.502  13.769  1.3114  0.5249 -0.6550
11409TIP3    H255643   0.615   0.355  13.794  1.1577  0.5385 -0.4047
11410TIP3   OH255644   5.348   4.548   5.686  0.3226 -0.0214 -0.0133
11410TIP3    H155645   5.385   4.476   5.735  0.8963  0.8244  0.8345
11410TIP3    H255646   5.342   4.516   5.596 -1.2118 -1.7613  0.6622
11411TIP3   OH255647   4.726   1.919  13.801  0.3282  0.0219 -0.7105
11411TIP3    H155648   4.750   1.995  13.748 -0.3669  1.0613  0.3970
11411TIP3    H255649   4.807   1.894  13.845  0.2381  1.1619  0.1502
11412TIP3   OH255650   4.702   2.541   4.533 -0.1190 -0.0084 -0.2831
11412TIP3    H155651   4.775   2.479   4.527 -0.3401 -0.3892  0.9029
11412TIP3    H255652   4.652   2.527   4.452 -0.8883 -2.2970  0.5310
11413TIP3   OH255653   1.328   5.178  14.824 -0.2965 -0.3255  0.3077
11413TIP3    H155654   1.254   5.238  14.839  0.3184  1.1030 -1.8035
11413TIP3    H255655   1.307   5.136  14.741  1.0186 -0.2671 -0.0767
11414TIP3   OH255656   2.374   4.650   4.127 -0.3145 -0.6088 -0.1196
11414TIP3    H155657   2.394   4.570   4.176  0.7236  0.1759  0.7813
11414TIP3    H255658   2.460   4.686   4.103 -0.7407  0.5361  0.0073
11415TIP3   OH255659   1.369   3.752  11.380 -0.0852 -0.8109  0.3222
11415TIP3    H155660   1.306   3.720  11.445  1.2412  0.3184  2.2533
11415TIP3    H255661   1.451   3.710  11.404  0.7885  0.8571  0.3893
11416TIP3   OH255662   5.952   6.467   4.241  0.4646 -0.3215 -0.1610
11416TIP3    H155663   6.002   6.519   4.304  1.2139 -1.0180 -0.1659
11416TIP3    H255664   5.986   6.494   4.156  1.1825 -1.1100 -0.1475
11417TIP3   OH255665   4.181   5.077  16.335  0.6948 -0.3778  0.1689
11417TIP3    H155666   4.244   5.140  16.301 -1.0966  0.3784 -2.0060
11417TIP3    H255667   4.173   5.011  16.266 -0.1455 -0.9958  0.8266
11418TIP3   OH255668   3.392   4.451   6.079  0.1522 -0.0106 -0.0979
11418TIP3    H155669   3.458   4.437   6.146 -1.0982 -0.4417  1.0780
11418TIP3    H255670   3.322   4.499   6.123  0.5755  2.4025 -1.8654
11419TIP3   OH255671   2.415   2.516   4.968  0.0412 -0.4660  0.0323
11419TIP3    H155672   2.355   2.441   4.973 -1.6532  0.8144  0.1481
11419TIP3    H255673   2.371   2.584   5.019  1.8281  0.4349  0.4412
11420TIP3   OH255674   1.843   0.432   0.733  0.4726  0.6151 -0.1623
11420TIP3    H155675   1.766   0.456   0.785  0.9554  2.5780 -0.2793
11420TIP3    H255676   1.825   0.342   0.704 -0.0798 -0.3560  2.8569
11421TIP3   OH255677   5.960   0.830   3.916  0.0134  0.1542  0.5791
11421TIP3    H155678   5.958   0.752   3.860 -0.4651  0.3299  0.3426
11421TIP3    H255679   5.868   0.855   3.924  0.1054  0.2784  1.2419
11422TIP3   OH255680   4.109   2.295   1.929 -0.3174 -0.5073  0.0899
11422TIP3    H155681   4.168   2.356   1.973 -1.4659  0.1715  0.7129
11422TIP3    H255682   4.162   2.258   1.858  1.5594 -1.5790  1.9256
11423TIP3   OH255683   3.251   4.156   2.664  0.3614 -0.7867  0.7489
11423TIP3    H155684   3.246   4.250   2.686  1.0956 -0.7510  0.7983
11423TIP3    H255685   3.302   4.118   2.736  1.1140 -1.0095  0.1094
11424TIP3   OH255686   6.532   4.695   5.007  0.0478  0.0144  0.8380
11424TIP3    H155687   6.537   4.727   5.097  0.9493 -1.2111  1.2450
11424TIP3    H255688   6.590   4.754   4.958 -1.3018  1.3847  0.8009
11425TIP3   OH255689   2.876   6.567   5.646 -0.2901 -0.3784 -0.1075
11425TIP3    H155690   2.949   6.626   5.631 -1.1179  0.7265  0.0935
11425TIP3    H255691   2.887   6.537   5.737  0.2377 -0.7006 -0.2734
11426TIP3   OH255692   6.108   5.197  16.731 -0.5554 -0.2284 -0.4578
11426TIP3    H155693   6.105   5.122  16.672 -1.2839  0.7653 -1.7430
11426TIP3    H255694   6.102   5.159  16.819 -2.0783 -1.6022 -1.1104
11427TIP3   OH255695   1.739   3.754   0.189  0.4378  0.0235 -0.0441
11427TIP3    H155696   1.696   3.831   0.226 -0.8622 -0.7125  0.0578
11427TIP3    H255697   1.804   3.728   0.254 -0.2667  0.0690  0.6864
11428TIP3   OH255698   1.308   0.252  15.017 -0.3392  0.0082 -0.2461
11428TIP3    H155699   1.291   0.329  15.071 -0.5459 -0.5091  0.4327
11428TIP3    H255700   1.226   0.238  14.969  0.2999  1.3402 -1.8482
11429TIP3   OH255701   5.534   2.052  13.586 -0.2037  0.5028 -0.3196
11429TIP3    H155702   5.466   1.988  13.564  1.0888 -1.4871  1.1379
11429TIP3    H255703   5.539   2.050  13.682  0.4662  2.2079 -0.2780
11430TIP3   OH255704   4.598   5.984   5.751  0.3151  0.1747 -0.3070
11430TIP3    H155705   4.677   5.966   5.802 -0.1040 -1.7924 -0.2716
11430TIP3    H255706   4.540   6.028   5.813  0.8446  0.3366  0.0847
11431TIP3   OH255707   4.091   3.048   2.009  0.5435  0.1101  0.1389
11431TIP3    H155708   4.068   3.132   2.048  1.5295  0.1704  0.6385
11431TIP3    H255709   4.183   3.059   1.983  0.7679 -0.9086  0.4715
11432TIP3   OH255710   2.266   2.615   2.916 -0.6798 -0.6250 -0.1887
11432TIP3    H155711   2.235   2.681   2.978 -2.4004 -1.4200 -0.1437
11432TIP3    H255712   2.222   2.534   2.943 -0.8461 -1.1671 -1.9302
11433TIP3   OH255713   3.076   3.392   2.976  0.8177  0.6438  0.5399
11433TIP3    H155714   3.162   3.353   2.991  0.6458 -0.2584 -0.6276
11433TIP3    H255715   3.064   3.387   2.881 -1.2268 -0.8431  0.7967
11434TIP3   OH255716   6.241   0.006   0.146 -0.2415  0.0616 -0.0046
11434TIP3    H155717   6.282  -0.029   0.067  1.3676 -0.4018  1.0048
11434TIP3    H255718   6.221  -0.071   0.199 -3.6953  0.1290 -0.9660
11435TIP3   OH255719   3.570   3.889   2.672  0.3144  0.1971 -0.6450
11435TIP3    H155720   3.611   3.810   2.708 -0.8841 -0.3170 -0.3408
11435TIP3    H255721   3.562   3.872   2.578 -0.3652 -0.2612 -0.5135
11436TIP3   OH255722   3.654   6.532   2.486 -0.2686  0.5004  0.5499
11436TIP3    H155723   3.671   6.626   2.485 -0.6477  0.5812 -1.3062
11436TIP3    H255724   3.734   6.494   2.523 -0.6700  1.6049  2.7039
11437TIP3   OH255725   2.966   5.049   6.514  0.0541  0.1495  0.2928
11437TIP3    H155726   3.008   5.131   6.490  0.3494 -0.3372 -0.9682
11437TIP3    H255727   2.874   5.072   6.529  0.1869  0.7462  0.2011
11438TIP3   OH255728   3.278   3.543  17.266  0.2035 -0.0562 -1.0083
11438TIP3    H155729   3.196   3.590  17.248  0.8250  0.2341 -3.4495
11438TIP3    H255730   3.309   3.516  17.180  2.8317  0.0642 -0.1693
11439TIP3   OH255731   4.876   5.595  14.235  0.0637 -0.0937  0.6067
11439TIP3    H155732   4.843   5.537  14.167  2.4397  1.2898 -1.9433
11439TIP3    H255733   4.961   5.558  14.260  0.3796  0.7900  0.8965
11440TIP3   OH255734   6.509   2.286   6.468 -0.5205  0.8594 -0.4214
11440TIP3    H155735   6.593   2.307   6.425  0.2090 -0.7267  0.1349
11440TIP3    H255736   6.500   2.351   6.537  0.0605  1.2824 -0.7340
11441TIP3   OH255737   0.937   0.733  16.647  0.0513  0.0548 -0.1676
11441TIP3    H155738   1.015   0.678  16.638  1.0672  1.7017 -3.0237
11441TIP3    H255739   0.970   0.822  16.635 -1.9494  1.0537  1.2676
11442TIP3   OH255740   5.015   1.786   3.814 -0.2652  0.5154 -0.6392
11442TIP3    H155741   4.978   1.802   3.727 -0.4205 -0.9215 -0.8601
11442TIP3    H255742   5.051   1.697   3.809  1.4799  1.1236  0.1776
11443TIP3   OH255743   0.295   2.405  13.452  0.3681  0.6488 -0.0045
11443TIP3    H155744   0.278   2.412  13.545 -0.5334 -1.9493  0.1043
11443TIP3    H255745   0.219   2.359  13.416  0.5405  1.8387 -2.1084
11444TIP3   OH255746   2.575   1.689  11.951  0.4405 -0.1043  0.4147
11444TIP3    H155747   2.561   1.605  11.994  0.8585 -0.0406  0.6882
11444TIP3    H255748   2.507   1.746  11.986  1.9882  0.5198  2.5734
11445TIP3   OH255749   5.889   5.866   0.925 -0.3580  0.1235  0.0975
11445TIP3    H155750   5.826   5.929   0.890 -1.1415 -0.6674  0.0849
11445TIP3    H255751   5.907   5.806   0.852 -0.2470 -0.1691  0.3654
11446TIP3   OH255752   0.049   5.024  15.871  0.0038 -0.4002 -0.1108
11446TIP3    H155753   0.116   5.066  15.817  0.1266  0.7042  0.8689
11446TIP3    H255754   0.015   4.953  15.816  0.5957  0.2577 -1.3691
11447TIP3   OH255755   2.114   2.137  14.554 -0.3018  0.5841 -0.0539
11447TIP3    H155756   2.187   2.133  14.617  0.4849 -0.9247 -1.0018
11447TIP3    H255757   2.042   2.177  14.604  0.6030  0.4029  1.4764
11448TIP3   OH255758   5.579   6.025  13.970 -0.2463  0.8396  0.4493
11448TIP3    H155759   5.532   6.065  14.044  0.5914  3.5599 -0.3754
11448TIP3    H255760   5.517   6.031  13.897  0.0724  1.1830  0.1985
11449TIP3   OH255761   5.988   0.122  11.863  0.2705 -0.0288  0.0426
11449TIP3    H155762   6.053   0.069  11.909 -0.7055 -1.4360 -0.1481
11449TIP3    H255763   6.010   0.111  11.771 -0.9056 -1.4744 -0.0973
11450TIP3   OH255764   3.044   4.575   5.596  0.0473 -0.3269 -0.6212
11450TIP3    H155765   3.023   4.656   5.549 -1.1155 -1.4099 -2.0712
11450TIP3    H255766   3.137   4.582   5.615  0.1928  0.9143 -1.6128
11451TIP3   OH255767   3.218   4.980   6.642  0.2153 -0.2345 -0.3169
11451TIP3    H155768   3.134   4.976   6.596  1.1415 -3.1214 -1.9611
11451TIP3    H255769   3.218   4.904   6.700  0.6717  1.2263  1.7232
11452TIP3   OH255770   5.827   1.645   4.938  0.4174  0.5454 -0.0769
11452TIP3    H155771   5.855   1.614   5.024  1.5222 -1.0034 -0.9575
11452TIP3    H255772   5.731   1.650   4.945  0.2954 -1.5914  0.6138
11453TIP3   OH255773   5.121   4.134  17.091 -0.4545  0.5256 -0.4080
11453TIP3    H155774   5.082   4.066  17.037 -0.6369  0.7542 -0.5655
11453TIP3    H255775   5.147   4.089  17.171 -1.3022  0.4263 -0.1842
11454TIP3   OH255776   5.868   1.337  11.005  0.0049  0.1599 -0.2995
11454TIP3    H155777   5.933   1.269  10.985 -1.9693 -1.7635 -0.5395
11454TIP3    H255778   5.825   1.355  10.922 -1.8499 -0.9595  0.3407
11455TIP3   OH255779   2.041   6.084   5.019 -0.1110 -0.3296 -0.0366
11455TIP3    H155780   2.068   6.110   4.931 -2.4871  0.2998 -0.6497
11455TIP3    H255781   2.004   5.996   5.007  1.0320 -0.9227  0.6601
11456TIP3   OH255782   3.710   5.090   4.906 -0.5878 -0.0224 -0.1391
11456TIP3    H155783   3.793   5.120   4.945 -0.7005 -0.6421  0.6131
11456TIP3    H255784   3.730   5.078   4.813 -0.2477  1.2777 -0.2577
11457TIP3   OH255785   0.019   3.577  16.508 -0.2102 -0.5913 -0.3844
11457TIP3    H155786  -0.009   3.621  16.589  0.9316  1.5919 -1.0870
11457TIP3    H255787  -0.038   3.501  16.501  0.6284 -1.7382  3.2528
11458TIP3   OH255788   3.294   4.958  17.087  0.0823 -0.6236  0.6301
11458TIP3    H155789   3.258   5.035  17.044 -0.5596 -0.6763  1.0515
11458TIP3    H255790   3.306   4.894  17.016  2.1645  0.3781 -0.0024
11459TIP3   OH255791   6.489   3.260  12.757 -0.1852 -0.1593  0.7253
11459TIP3    H155792   6.548   3.188  12.780 -0.1121  0.3075  2.0338
11459TIP3    H255793   6.445   3.229  12.677 -0.6369 -1.9320  1.6103
11460TIP3   OH255794   6.428   5.466  11.164  0.5093 -0.1433 -0.0433
11460TIP3    H155795   6.363   5.401  11.191 -0.8274  1.1221 -0.0841
11460TIP3    H255796   6.376   5.544  11.143  1.9893  0.6529 -0.8759
11461TIP3   OH255797   4.540   3.821  17.188  0.1136 -0.1643 -0.0175
11461TIP3    H155798   4.454   3.820  17.146 -0.6661 -0.3551  1.5219
11461TIP3    H255799   4.524   3.787  17.276  1.5643  0.8090  0.6639
11462TIP3   OH255800   2.523   6.711   4.238 -0.5822 -0.4402 -0.2868
11462TIP3    H155801   2.589   6.656   4.195  0.0418  0.5786 -0.6707
11462TIP3    H255802   2.559   6.725   4.326  0.3352  1.1138 -0.8866
11463TIP3   OH255803   5.006   2.284  13.014 -0.2082 -0.2563 -0.4436
11463TIP3    H155804   5.030   2.191  13.016 -1.5441 -0.8245 -3.7497
11463TIP3    H255805   5.090   2.330  13.014  0.5001 -1.4652  0.6516
11464TIP3   OH255806   1.631   4.571   1.580  0.0911  0.1432  0.2102
11464TIP3    H155807   1.619   4.528   1.665  0.2810 -0.4952 -0.0770
11464TIP3    H255808   1.601   4.506   1.516  0.6650  0.3286 -0.2575
11465TIP3   OH255809   3.774   3.055   2.048 -0.5367  0.0925 -0.7127
11465TIP3    H155810   3.813   3.113   1.982  0.7556 -1.5736 -1.4712
11465TIP3    H255811   3.695   3.022   2.006  0.7913 -1.7464 -1.9365
11466TIP3   OH255812   2.075   2.559   3.129 -0.1167 -0.6575  0.2319
11466TIP3    H155813   2.077   2.476   3.177 -0.7197 -1.6943 -1.4847
11466TIP3    H255814   1.987   2.594   3.145 -0.0286 -0.5775  0.5550
11467TIP3   OH255815   1.969   1.195  16.910 -0.0565  0.1101  0.1253
11467TIP3    H155816   1.898   1.205  16.974 -0.5676 -1.5392 -0.1379
11467TIP3    H255817   2.037   1.146  16.957  0.8463  1.4882  0.3064
11468TIP3   OH255818   6.312   1.324   4.709  0.4515  0.4971  0.2577
11468TIP3    H155819   6.241   1.389   4.714  0.7531  0.7599  1.4649
11468TIP3    H255820   6.348   1.321   4.798  1.3581 -0.3115 -0.1189
11469TIP3   OH255821   3.829   1.405   4.509  0.3437  0.5652  0.6599
11469TIP3    H155822   3.749   1.388   4.460 -0.1165 -1.1320  1.9064
11469TIP3    H255823   3.860   1.489   4.477 -1.9133  1.2407  0.1107
11470TIP3   OH255824   5.142   0.571   0.224 -0.2460 -0.0165  0.2392
11470TIP3    H155825   5.157   0.486   0.183  0.2096  0.0134  0.3308
11470TIP3    H255826   5.162   0.556   0.317 -0.0839  0.2063  0.2419
11471TIP3   OH255827   0.153   1.146  16.401 -0.3343 -0.1182 -0.4944
11471TIP3    H155828   0.184   1.060  16.432  1.8611  0.1428 -1.7607
11471TIP3    H255829   0.105   1.182  16.476  0.3110 -1.6625  0.7235
11472TIP3   OH255830   0.888   1.276  11.485 -0.3787  0.2566  0.4021
11472TIP3    H155831   0.896   1.251  11.393  1.3384  0.7890  0.3739
11472TIP3    H255832   0.921   1.200  11.533 -2.0066 -0.3383  0.6579
11473TIP3   OH255833   2.548   3.527   4.689  0.2596 -0.0321 -0.3584
11473TIP3    H155834   2.601   3.607   4.691  0.0883  0.0889 -0.6031
11473TIP3    H255835   2.465   3.552   4.729  0.7752 -0.5186  1.0967
11474TIP3   OH255836   1.206   3.887  13.951  0.1386  0.0381  0.4240
11474TIP3    H155837   1.298   3.913  13.942 -0.5735  2.3915 -0.7102
11474TIP3    H255838   1.166   3.957  14.002 -0.9892 -1.1346  1.2140
11475TIP3   OH255839   3.475   2.826  11.863  0.5637 -0.0376 -0.4840
11475TIP3    H155840   3.536   2.753  11.872  0.4497 -0.5322 -2.9907
11475TIP3    H255841   3.496   2.884  11.936  0.7312 -2.4691  1.5427
11476TIP3   OH255842   2.484   6.011   4.482  0.8990 -0.0709  0.6133
11476TIP3    H155843   2.548   6.047   4.421 -0.2750 -0.0709 -0.6574
11476TIP3    H255844   2.460   6.084   4.538  1.6642  0.0362  0.8172
11477TIP3   OH255845   3.351   4.386   5.820  0.4314 -0.1600  0.1249
11477TIP3    H155846   3.359   4.359   5.912  1.4907 -1.5925 -0.3550
11477TIP3    H255847   3.425   4.344   5.776 -0.8625 -0.6838 -1.6682
11478TIP3   OH255848   4.132   5.905   4.118 -0.3794 -0.4893  0.1316
11478TIP3    H155849   4.109   5.909   4.211 -2.6304 -0.7967 -0.3453
11478TIP3    H255850   4.060   5.950   4.073  0.9241  0.1253 -1.4361
11479TIP3   OH255851   0.024   0.221   3.940  0.7582 -0.1477  0.0067
11479TIP3    H155852   0.070   0.142   3.969  0.4215 -0.1168  0.6536
11479TIP3    H255853  -0.055   0.189   3.897  0.6720 -0.1755  0.1801
11480TIP3   OH255854   0.203   6.445   0.488 -0.4972 -0.3431  0.2888
11480TIP3    H155855   0.288   6.465   0.447 -0.7674  1.3013  0.4632
11480TIP3    H255856   0.171   6.369   0.439  0.5239 -0.2415 -0.5942
11481TIP3   OH255857   4.846   0.598   2.203  0.2851 -0.4297  0.5055
11481TIP3    H155858   4.802   0.681   2.190  0.0017 -0.8559 -1.6235
11481TIP3    H255859   4.933   0.622   2.236 -0.3476  0.5956  1.4755
11482TIP3   OH255860   0.191   5.541   4.310  0.2543  0.4556  0.2443
11482TIP3    H155861   0.236   5.457   4.320  0.1970  0.4946  0.8618
11482TIP3    H255862   0.235   5.599   4.372  0.7913  1.0948 -0.7172
11483TIP3   OH255863   0.424   5.623   1.672 -0.4382  0.4164 -0.3650
11483TIP3    H155864   0.509   5.620   1.715 -0.4020  1.2944 -0.3537
11483TIP3    H255865   0.444   5.643   1.580 -0.6648  1.7583 -0.1513
11484TIP3   OH255866   1.557   5.025   6.088 -0.4291 -0.2970  0.0861
11484TIP3    H155867   1.594   5.032   6.176  1.8570  0.6101 -0.8783
11484TIP3    H255868   1.484   5.087   6.088  0.2078  0.4850  1.0533
11485TIP3   OH255869   5.495   3.986   3.835  0.2593  0.7447  0.0607
11485TIP3    H155870   5.425   3.958   3.894  0.5009 -0.3105 -0.1299
11485TIP3    H255871   5.569   4.004   3.892 -0.2152  2.0931  0.2870
11486TIP3   OH255872   6.560   5.035   0.126 -0.5081  0.0166  0.9284
11486TIP3    H155873   6.465   5.036   0.110 -0.5170 -1.4407  0.7675
11486TIP3    H255874   6.579   4.944   0.149  0.9849  0.1095  0.1475
11487TIP3   OH255875   5.512   5.188   4.461  0.0795  0.2719  0.0354
11487TIP3    H155876   5.508   5.203   4.555 -0.0212  2.8972 -0.3070
11487TIP3    H255877   5.581   5.247   4.430  0.6953 -1.1585 -1.4498
11488TIP3   OH255878   2.871   6.239   2.729 -0.1006  0.4711  0.0771
11488TIP3    H155879   2.834   6.230   2.816 -0.4249 -0.4099 -0.1347
11488TIP3    H255880   2.949   6.185   2.730  1.1000  2.1480  0.4538
11489TIP3   OH255881   1.400   3.119   3.243  0.7246 -0.5008  0.4252
11489TIP3    H155882   1.329   3.180   3.222  1.5920  0.6736  0.7779
11489TIP3    H255883   1.391   3.103   3.337 -0.4253 -2.1777  0.0759
11490TIP3   OH255884   0.216   4.639   0.651  0.0350  0.2331  0.2329
11490TIP3    H155885   0.217   4.719   0.703 -1.8810  1.2119 -1.1122
11490TIP3    H255886   0.229   4.568   0.714 -1.2111  1.4177  1.8847
11491TIP3   OH255887   2.627   5.399  13.297  0.0178 -0.0340 -0.3590
11491TIP3    H155888   2.626   5.456  13.373 -0.2341 -1.5607  0.8207
11491TIP3    H255889   2.570   5.443  13.233 -0.4959  0.8264  0.6722
11492TIP3   OH255890   2.937   3.836   0.253 -0.0310 -0.1202 -0.5207
11492TIP3    H155891   2.909   3.844   0.162 -0.9546  2.2020 -0.0993
11492TIP3    H255892   2.861   3.798   0.298 -1.1398  2.4259 -0.0891
11493TIP3   OH255893   6.091   6.211  15.619 -0.1873 -0.1521  0.2165
11493TIP3    H155894   6.028   6.205  15.691  0.1928 -0.2456  0.5430
11493TIP3    H255895   6.037   6.225  15.542 -0.5312  2.2544  0.7887
11494TIP3   OH255896   6.421   0.131  14.375 -0.2615  0.5669  0.4627
11494TIP3    H155897   6.483   0.058  14.378  1.1223  1.6209 -0.7013
11494TIP3    H255898   6.364   0.111  14.301 -1.3196 -0.3673  1.4882
11495TIP3   OH255899   5.188   4.989  16.622  0.2130 -0.1461 -0.1873
11495TIP3    H155900   5.157   5.075  16.649  1.1332  0.3670 -0.7043
11495TIP3    H255901   5.218   5.001  16.532  5.1519  0.3868  1.2322
11496TIP3   OH255902   6.554   6.349   6.546 -0.3198 -0.5687  0.3329
11496TIP3    H155903   6.597   6.409   6.606 -0.9225 -1.6122  1.8885
11496TIP3    H255904   6.612   6.344   6.470  0.8883  0.1642  1.1764
11497TIP3   OH255905   4.114   5.236   0.929 -0.3515  0.2517 -0.3210
11497TIP3    H155906   4.032   5.187   0.931  0.1377 -0.6853 -1.4422
11497TIP3    H255907   4.132   5.258   1.020 -1.8166  0.4346 -0.0670
11498TIP3   OH255908   3.020   3.093  16.916  0.1728 -0.0615 -0.4485
11498TIP3    H155909   3.033   3.181  16.881 -0.1126  1.2279  2.3943
11498TIP3    H255910   2.933   3.096  16.955  0.3909 -1.4329  0.1779
11499TIP3   OH255911   2.183   3.481   2.001  0.1311 -0.0392 -0.2940
11499TIP3    H155912   2.242   3.408   1.980  0.7449  0.2043  0.5457
11499TIP3    H255913   2.237   3.542   2.051 -0.5800  0.6533 -0.3484
11500TIP3   OH255914   5.233   5.076  14.770  0.2018  0.5188  0.3299
11500TIP3    H155915   5.151   5.028  14.773 -0.9824  2.4154 -0.2439
11500TIP3    H255916   5.263   5.079  14.861  0.3624 -1.2951  0.3744
11501TIP3   OH255917   1.936   0.151  10.769  0.2625  0.0264 -0.5549
11501TIP3    H155918   2.019   0.123  10.731  0.1759 -1.2981  0.1846
11501TIP3    H255919   1.937   0.116  10.858 -0.7700  0.6410 -0.2870
11502TIP3   OH255920   1.381   4.389  17.036 -0.2929  0.3928  0.3089
11502TIP3    H155921   1.473   4.405  17.014 -0.5261  2.2824  0.5978
11502TIP3    H255922   1.386   4.329  17.111  0.6549 -0.2406 -0.2270
11503TIP3   OH255923   6.330   5.400  11.675 -0.0190 -0.3905 -0.3165
11503TIP3    H155924   6.321   5.309  11.646  0.0248  0.1926 -2.3292
11503TIP3    H255925   6.320   5.452  11.595  1.2047  1.3198  0.5700
11504TIP3   OH255926   5.729   2.150  11.257 -0.2117  0.1058 -0.2315
11504TIP3    H155927   5.767   2.235  11.237 -0.7676  0.2794 -0.5795
11504TIP3    H255928   5.702   2.156  11.349 -1.1756  0.6662 -0.5425
11505TIP3   OH255929   1.010   3.801   3.132  0.3707 -0.2588  0.3504
11505TIP3    H155930   0.982   3.733   3.071 -1.6474 -0.5600  1.5011
11505TIP3    H255931   1.096   3.772   3.162  0.8985 -0.6940 -1.4273
11506TIP3   OH255932   2.218   3.545  13.690  0.0637  0.3130 -0.2228
11506TIP3    H155933   2.285   3.479  13.711 -1.3739 -1.0247  0.4031
11506TIP3    H255934   2.157   3.541  13.764 -0.3635  1.9820 -0.4545
11507TIP3   OH255935   3.119   1.134  13.558  0.4497 -0.4359 -0.3272
11507TIP3    H155936   3.149   1.043  13.556  0.3860 -0.4385 -1.4653
11507TIP3    H255937   3.036   1.130  13.606  0.5115 -0.9615 -0.2558
11508TIP3   OH255938   1.706   0.311  14.352 -0.4522  0.5646  0.5835
11508TIP3    H155939   1.776   0.278  14.408  0.3052  3.1506  1.2920
11508TIP3    H255940   1.644   0.238  14.345  1.7704 -1.4454  0.7733
11509TIP3   OH255941   4.619   1.259   0.748 -0.5253 -0.5164  0.4276
11509TIP3    H155942   4.679   1.222   0.683  0.4951 -0.3815  1.2764
11509TIP3    H255943   4.532   1.230   0.719  0.1513 -3.0205  0.6579
11510TIP3   OH255944   3.591   6.207   6.080 -0.0891 -1.3800 -0.2417
11510TIP3    H155945   3.621   6.170   6.163  0.6725  1.7777  1.0284
11510TIP3    H255946   3.646   6.165   6.014  0.8372 -2.3048  1.0624
11511TIP3   OH255947   4.633   2.632   1.555  0.1864  0.7705 -0.2293
11511TIP3    H155948   4.676   2.577   1.621  1.1039  1.2661 -0.3957
11511TIP3    H255949   4.557   2.581   1.527  0.3107  0.1460  0.5319
11512TIP3   OH255950   1.340   3.090  11.673 -0.1893 -0.4236 -0.3381
11512TIP3    H155951   1.377   3.024  11.615 -1.4481 -1.3204 -0.1633
11512TIP3    H255952   1.384   3.076  11.757 -0.4578 -1.0620 -0.2993
11513TIP3   OH255953   3.854   2.438  13.390 -0.6397 -0.2287 -0.3571
11513TIP3    H155954   3.799   2.369  13.352  0.3954 -1.3044  0.0268
11513TIP3    H255955   3.913   2.391  13.449 -1.1136  1.2094  1.3412
11514TIP3   OH255956   3.947   0.589  13.082  0.2074  0.3047 -0.0473
11514TIP3    H155957   3.959   0.495  13.097 -4.0533 -0.6646 -1.4499
11514TIP3    H255958   3.990   0.605  12.997  1.6138 -0.0995  0.5482
11515TIP3   OH255959   6.144   6.480   3.194 -0.0290 -0.0248  0.1910
11515TIP3    H155960   6.107   6.393   3.213  0.6550 -0.8088 -1.7812
11515TIP3    H255961   6.108   6.502   3.108  0.2925  1.3978  0.4042
11516TIP3   OH255962   1.825   4.295   1.721 -0.4200 -0.1110 -0.2865
11516TIP3    H155963   1.748   4.297   1.778 -0.7719 -0.5712 -0.7376
11516TIP3    H255964   1.850   4.387   1.711 -0.2166 -0.0336  0.7827
11517TIP3   OH255965   5.721   3.318  12.710  0.7108 -0.1858  0.0773
11517TIP3    H155966   5.709   3.227  12.736  2.4917 -0.7841 -1.0347
11517TIP3    H255967   5.710   3.318  12.615  1.3829  0.6275 -0.0107
11518TIP3   OH255968   4.063   1.714  15.880 -0.3473  0.7068 -0.2951
11518TIP3    H155969   4.002   1.755  15.940 -0.7433  0.6611 -0.6580
11518TIP3    H255970   4.021   1.631  15.856 -0.1369  0.6667 -0.5318
11519TIP3   OH255971   0.879   3.842  16.747  0.6199 -0.0307  0.1052
11519TIP3    H155972   0.869   3.891  16.828  0.3708 -0.2775  0.2217
11519TIP3    H255973   0.851   3.753  16.768 -1.1002  0.2869 -0.6849
11520TIP3   OH255974   3.147   0.144  14.428  0.0942  0.1162  0.1905
11520TIP3    H155975   3.110   0.119  14.343  0.2604 -2.3366  0.7733
11520TIP3    H255976   3.160   0.239  14.421  0.6469 -0.0771 -2.7295
11521TIP3   OH255977   5.237   2.011  12.844  0.3598  0.0704 -0.0906
11521TIP3    H155978   5.287   2.073  12.897 -0.4310  0.6425 -0.0004
11521TIP3    H255979   5.273   1.926  12.866  0.0551  0.2979  1.3711
11522TIP3   OH255980   5.257   3.243   4.528  0.1023 -0.5017 -0.0463
11522TIP3    H155981   5.213   3.322   4.497 -0.2732  0.5461  2.8201
11522TIP3    H255982   5.346   3.249   4.491 -0.2961  0.5842 -0.8792
11523TIP3   OH255983   3.324   1.525  16.563  0.1360 -1.1020  0.5737
11523TIP3    H155984   3.308   1.534  16.469  1.9012  1.5934  0.4073
11523TIP3    H255985   3.383   1.450  16.570 -0.7045 -1.8757 -0.3588
11524TIP3   OH255986   4.140   4.993   5.913 -0.7378  0.2222  0.0288
11524TIP3    H155987   4.049   4.978   5.887 -1.2361  0.2202  1.6247
11524TIP3    H255988   4.175   4.905   5.928 -0.6741  0.2485  0.0342
11525TIP3   OH255989   5.581   1.163  15.942 -0.1828  0.1032  0.3377
11525TIP3    H155990   5.514   1.181  16.008 -2.9644  2.4315 -2.7297
11525TIP3    H255991   5.606   1.250  15.910  3.2597 -0.8062  0.2573
11526TIP3   OH255992   5.842   0.322  12.018  0.1833 -0.0684  0.3265
11526TIP3    H155993   5.906   0.261  11.981  1.4812  0.2101  2.0463
11526TIP3    H255994   5.887   0.406  12.023 -0.6217  0.3567  0.7254
11527TIP3   OH255995   1.504   2.873  13.866 -0.2172 -0.3045  0.3452
11527TIP3    H155996   1.517   2.785  13.831  0.7176 -1.2324  2.8006
11527TIP3    H255997   1.587   2.918  13.850 -0.4505 -0.0857 -0.2794
11528TIP3   OH255998   6.685   5.753  16.591  0.2209  0.4627 -0.1327
11528TIP3    H155999   6.740   5.831  16.600 -0.5259  1.2206 -1.6462
11528TIP3    H256000   6.714   5.712  16.510 -0.3961  0.0007 -0.1328
11529TIP3   OH256001   5.608   3.269   5.143 -0.2528  0.1460 -0.3758
11529TIP3    H156002   5.551   3.239   5.073 -0.0231  0.8914 -0.8983
11529TIP3    H256003   5.697   3.251   5.111 -0.1015  1.4999 -0.7789
11530TIP3   OH256004   2.593   1.605  13.231 -0.5939 -0.6750  0.4551
11530TIP3    H156005   2.554   1.519  13.239 -0.5981 -0.8513 -1.1415
11530TIP3    H256006   2.631   1.623  13.317  1.5801 -3.3275  0.1574
11531TIP3   OH256007   0.910   6.096   0.111 -0.0303  0.2252  0.1702
11531TIP3    H156008   0.879   6.127   0.196 -0.6236  2.4995 -0.8037
11531TIP3    H256009   0.989   6.046   0.130 -0.7336 -0.2243  2.1286
11532TIP3   OH256010   5.337   4.773   3.179  0.7573 -0.2296  0.3067
11532TIP3    H156011   5.366   4.708   3.243  0.5037  1.7665  2.6102
11532TIP3    H256012   5.325   4.853   3.230  0.9570  1.6337 -2.3519
11533TIP3   OH256013   2.602   6.647   1.527 -0.4535 -0.5971  0.5907
11533TIP3    H156014   2.561   6.615   1.607 -1.9185  0.3960  0.2886
11533TIP3    H256015   2.550   6.723   1.503  1.5799  0.7076  0.1174
11534TIP3   OH256016   1.237   2.046  13.879  0.4463 -0.9001 -0.5673
11534TIP3    H156017   1.212   2.050  13.971 -0.6643 -0.4379 -0.8670
11534TIP3    H256018   1.310   2.106  13.870 -0.5750  0.4229 -0.3159
11535TIP3   OH256019   0.175   6.747   1.034 -0.0848 -0.4344  0.2330
11535TIP3    H156020   0.118   6.739   0.957  0.5099  0.4818 -0.3274
11535TIP3    H256021   0.175   6.660   1.073 -0.4101 -0.9195 -0.8076
11536TIP3   OH256022   1.980   4.128  14.707 -0.2557 -0.1677  0.3255
11536TIP3    H156023   1.947   4.216  14.692  1.6170  0.6647  0.8870
11536TIP3    H256024   2.075   4.137  14.711  0.0393 -2.3258 -0.3213
11537TIP3   OH256025   4.661   1.985  16.753  0.6974 -0.3366  0.2843
11537TIP3    H156026   4.704   1.995  16.838  1.4077  3.5981 -0.3266
11537TIP3    H256027   4.574   2.024  16.765  0.2489 -1.0980 -0.4291
11538TIP3   OH256028   5.408   5.359  17.192  0.2072  0.2756 -0.0465
11538TIP3    H156029   5.414   5.435  17.250 -0.0075 -0.4122  0.8916
11538TIP3    H256030   5.481   5.303  17.218 -1.8014 -1.5998  1.8734
11539TIP3   OH256031   2.707   1.875  15.812 -0.1572 -0.1088  0.0341
11539TIP3    H156032   2.718   1.781  15.823 -0.6993 -0.0054  1.7169
11539TIP3    H256033   2.612   1.889  15.818  0.0031  0.6577  0.9202
11540TIP3   OH256034   2.017   4.584  12.665 -0.1641 -0.3498  0.5520
11540TIP3    H156035   1.948   4.621  12.719  0.7569 -1.3688  2.5347
11540TIP3    H256036   1.998   4.615  12.576 -0.8572  2.7316  1.6508
11541TIP3   OH256037   5.699   2.343  13.824  0.0107 -0.3265 -0.2497
11541TIP3    H156038   5.772   2.332  13.763  0.4633  0.2395  0.1791
11541TIP3    H256039   5.675   2.435  13.816 -1.8137 -0.8429 -1.6543
11542TIP3   OH256040   1.620   2.786   3.210  0.3770  0.5141  0.9907
11542TIP3    H156041   1.651   2.868   3.248  1.2478  0.3012  0.7597
11542TIP3    H256042   1.536   2.770   3.253  1.0817  0.5478  2.4668
11543TIP3   OH256043   0.710   4.552   5.776  0.2397 -0.3289 -0.1701
11543TIP3    H156044   0.628   4.522   5.816  0.6807 -0.2705  0.7943
11543TIP3    H256045   0.751   4.472   5.743 -0.7985 -0.2286 -1.8598
11544TIP3   OH256046   1.073   5.950   0.551  0.1359  0.5554  0.2099
11544TIP3    H156047   1.123   5.998   0.617  0.6186  0.5925 -0.1876
11544TIP3    H256048   0.995   6.004   0.536  0.4784  1.0104  0.0641
11545TIP3   OH256049   1.567   4.213  15.855 -0.3854  0.9740  0.6752
11545TIP3    H156050   1.660   4.229  15.837 -0.7304  2.1537 -0.1719
11545TIP3    H256051   1.556   4.119  15.844  0.5675  0.9209  0.1126
11546TIP3   OH256052   0.433   0.656   0.471 -0.2101 -0.0775 -0.0510
11546TIP3    H156053   0.443   0.647   0.566 -0.6055 -0.9124 -0.0787
11546TIP3    H256054   0.369   0.726   0.460 -1.6197 -1.2432  0.3610
11547TIP3   OH256055   5.719   4.667  10.828 -0.2422 -0.3736 -0.2368
11547TIP3    H156056   5.730   4.746  10.775  0.7069  0.4157  1.0430
11547TIP3    H256057   5.663   4.695  10.901  0.0467 -0.8810  0.1901
11548TIP3   OH256058   2.768   5.112  15.150  0.3566 -0.0650  0.0726
11548TIP3    H156059   2.839   5.176  15.145  1.7563 -1.4306  1.2418
11548TIP3    H256060   2.704   5.151  15.210  0.3649  0.9492 -0.5570
11549TIP3   OH256061   1.916   2.920   0.884  0.0190 -0.5093 -0.4748
11549TIP3    H156062   1.909   2.945   0.976 -0.7151 -0.8111 -0.4405
11549TIP3    H256063   1.848   2.971   0.840 -1.2326 -2.0997 -0.4679
11550TIP3   OH256064   5.437   2.841   5.657  0.0403  0.0207  0.6371
11550TIP3    H156065   5.527   2.834   5.625  0.2649 -0.0266  1.2557
11550TIP3    H256066   5.424   2.762   5.710 -0.7829 -0.5840 -0.4291
11551TIP3   OH256067   5.023   0.941   0.589 -0.4354 -0.3091  0.2460
11551TIP3    H156068   5.102   0.996   0.583  1.4822 -2.9359 -0.8151
11551TIP3    H256069   5.026   0.905   0.678 -1.2601  0.6763  0.6826
11552TIP3   OH256070   3.551   0.424  17.176  0.1320 -0.5780  0.0786
11552TIP3    H156071   3.530   0.505  17.222  2.6293 -0.9728  2.1263
11552TIP3    H256072   3.614   0.451  17.109  1.8223 -0.9250  1.4875
11553TIP3   OH256073   2.118   3.280   5.646 -0.1407  0.2561  0.9255
11553TIP3    H156074   2.079   3.212   5.591  1.0587  0.3413 -0.0724
11553TIP3    H256075   2.067   3.277   5.727 -0.9202 -0.9680  0.4245
11554TIP3   OH256076   4.889   4.380   2.249  0.2859  0.3862  0.4705
11554TIP3    H156077   4.951   4.307   2.252  0.8169  0.8564  2.0999
11554TIP3    H256078   4.803   4.339   2.239  0.8000 -0.2701 -1.8981
11555TIP3   OH256079   6.335   3.158   0.288  0.0631 -0.6441 -0.3650
11555TIP3    H156080   6.241   3.139   0.289 -0.1840  0.5337  0.2488
11555TIP3    H256081   6.375   3.081   0.329 -0.5917 -1.2642 -0.8442
11556TIP3   OH256082   5.578   3.098  15.132  0.4262 -0.5218  0.4330
11556TIP3    H156083   5.596   3.052  15.214 -0.9413 -0.1905  0.9407
11556TIP3    H256084   5.485   3.119  15.136  0.7073  1.0291 -0.4367
11557TIP3   OH256085   2.113   5.784   2.664 -0.0579  0.0586  0.0039
11557TIP3    H156086   2.090   5.871   2.632 -1.9963 -1.4728 -3.4616
11557TIP3    H256087   2.203   5.770   2.634  0.3561  0.9258  0.8135
11558TIP3   OH256088   3.155   0.356   4.077 -0.0053 -0.4273  0.3670
11558TIP3    H156089   3.241   0.314   4.079 -0.3121 -1.0649  0.4707
11558TIP3    H256090   3.098   0.292   4.033 -0.6775 -0.5145  1.3243
11559TIP3   OH256091   0.403   5.631  14.630  0.0565  0.0713 -0.4175
11559TIP3    H156092   0.412   5.573  14.706  2.6091 -0.3070 -0.9160
11559TIP3    H256093   0.420   5.718  14.665 -0.5087  0.1276 -0.2673
11560TIP3   OH256094   3.665   1.879  13.634  0.9536  0.0916  0.3243
11560TIP3    H156095   3.743   1.868  13.689  0.3734 -0.6137  1.0377
11560TIP3    H256096   3.693   1.853  13.546  1.4493 -0.4385  0.6321
11561TIP3   OH256097   3.959   3.474   1.949  0.1970 -0.3890 -0.4088
11561TIP3    H156098   4.048   3.449   1.925  0.0231 -2.3208  0.7880
11561TIP3    H256099   3.931   3.533   1.879  1.6137 -1.5098 -1.9964
11562TIP3   OH256100   6.283   0.736   4.461  0.0058  0.0825  0.3140
11562TIP3    H156101   6.221   0.686   4.408  0.8149 -0.6764  0.0646
11562TIP3    H256102   6.245   0.735   4.549  0.1835 -1.3018  0.3903
11563TIP3   OH256103   4.214   2.342   5.634  0.6049  0.3509 -0.1085
11563TIP3    H156104   4.248   2.309   5.551 -0.0313  0.1492 -0.2925
11563TIP3    H256105   4.123   2.366   5.615  0.0924 -0.7626  0.7891
11564TIP3   OH256106   1.028   3.242  16.657  0.2624 -0.2342  0.2415
11564TIP3    H156107   1.017   3.153  16.624  2.2988 -0.4742  0.0995
11564TIP3    H256108   1.121   3.260  16.646 -0.3279  2.4551 -1.0458
11565TIP3   OH256109   3.932   1.280   5.286  0.2652 -0.4130  0.3189
11565TIP3    H156110   3.934   1.239   5.373  0.7494 -1.8743 -0.3555
11565TIP3    H256111   3.984   1.361   5.297  0.8645 -0.9043  1.2358
11566TIP3   OH256112   0.444   5.414  14.139 -0.0140 -0.0407 -0.1089
11566TIP3    H156113   0.448   5.478  14.210 -0.8028 -0.0461 -0.0509
11566TIP3    H256114   0.534   5.383  14.130  0.3971  1.1078 -0.1710
11567TIP3   OH256115   4.186   2.068   0.101  0.2579 -0.5636  0.4836
11567TIP3    H156116   4.187   2.041   0.193 -0.9870  0.0085  0.6900
11567TIP3    H256117   4.117   2.134   0.096  0.8797  0.0275 -0.7027
11568TIP3   OH256118   4.090   3.723  16.872  0.0117  0.4052 -0.1354
11568TIP3    H156119   4.131   3.654  16.819 -2.7667 -0.2300 -1.6680
11568TIP3    H256120   4.060   3.787  16.807 -0.0615  1.5887  1.0306
11569TIP3   OH256121   4.982   2.698   1.555  0.2889 -0.1055 -0.0356
11569TIP3    H156122   4.980   2.701   1.459  0.7354  1.0925 -0.0220
11569TIP3    H256123   4.905   2.647   1.579 -0.4354  0.4928 -1.0046
11570TIP3   OH256124   5.337   1.571   3.558  0.0297  0.2384  0.2742
11570TIP3    H156125   5.319   1.662   3.581 -0.5123 -0.0196  0.9083
11570TIP3    H256126   5.269   1.550   3.493 -0.9881 -0.2457  1.4644
11571TIP3   OH256127   2.651   1.761  16.097 -0.3023 -0.2924 -0.5182
11571TIP3    H156128   2.590   1.792  16.164 -0.0366  0.5087 -0.6270
11571TIP3    H256129   2.669   1.839  16.043  0.3581 -0.6504 -0.8365
11572TIP3   OH256130   4.741   4.998   3.837 -0.2726  0.2997  0.2307
11572TIP3    H156131   4.664   4.963   3.792  0.1532 -1.6863  0.9267
11572TIP3    H256132   4.708   5.032   3.920 -0.3431 -1.4253  0.9582
11573TIP3   OH256133   5.174   4.637  15.885  0.4539  0.4012 -0.2862
11573TIP3    H156134   5.178   4.605  15.794  0.1143  1.6719 -0.7737
11573TIP3    H256135   5.202   4.728  15.879 -0.0164  0.6257  0.8205
11574TIP3   OH256136   1.709   5.833   3.292  0.5607  0.1239  0.2752
11574TIP3    H156137   1.728   5.745   3.259  0.7148 -0.3284  1.4893
11574TIP3    H256138   1.692   5.820   3.386  2.9623  1.6734  1.0243
11575TIP3   OH256139   4.610   5.392   3.970 -0.2656  0.8851  0.2193
11575TIP3    H156140   4.579   5.324   4.030 -0.4863  1.0787  0.3273
11575TIP3    H256141   4.693   5.358   3.935 -0.2847  0.6425  0.4100
11576TIP3   OH256142   5.060   3.360   5.022 -0.0837 -0.2595  0.9381
11576TIP3    H156143   5.151   3.389   5.027 -0.4471  0.7629  2.0541
11576TIP3    H256144   5.036   3.375   4.930  0.8907 -0.6650  0.5987
11577TIP3   OH256145   1.654   3.827   4.115  0.5252  0.0529  0.0229
11577TIP3    H156146   1.565   3.805   4.143  0.7630 -1.7306 -0.5385
11577TIP3    H256147   1.656   3.923   4.118 -0.9336  0.0906  1.4736
11578TIP3   OH256148   0.928   5.156  11.815  0.1007 -0.4527  0.4710
11578TIP3    H156149   0.982   5.178  11.739 -0.5896 -0.3205  0.0015
11578TIP3    H256150   0.843   5.132  11.777  0.1295 -1.6859  1.1153
11579TIP3   OH256151   0.004   3.369   3.169  0.0803 -0.2885  0.2340
11579TIP3    H156152   0.012   3.378   3.264  0.7717  0.1035  0.1494
11579TIP3    H256153   0.063   3.436   3.134 -0.6367 -0.0080 -0.4788
11580TIP3   OH256154   2.268   6.336  11.798 -0.2092  0.4144 -0.7093
11580TIP3    H156155   2.240   6.317  11.887  0.1728  0.6154 -0.5443
11580TIP3    H256156   2.204   6.291  11.742 -0.7774  0.7635 -0.3413
11581TIP3   OH256157   1.037   2.716  12.032 -0.4323 -0.1189  0.1912
11581TIP3    H156158   1.007   2.800  11.997  0.2461 -0.1446 -0.4592
11581TIP3    H256159   1.001   2.650  11.973 -1.2686 -0.3255  0.9074
11582TIP3   OH256160   1.086   3.683  12.785 -0.5061 -0.4747  0.1190
11582TIP3    H156161   1.041   3.701  12.702  0.2294  0.1907 -0.1529
11582TIP3    H256162   1.144   3.758  12.797  1.2746 -1.7763 -0.0619
11583TIP3   OH256163   5.428   2.119  16.225  0.0560  0.1256  0.7367
11583TIP3    H156164   5.477   2.174  16.286 -0.0593  0.2638  0.7032
11583TIP3    H256165   5.336   2.138  16.243  0.0284  1.2433 -0.4638
11584TIP3   OH256166   3.477   3.652   5.158 -0.3715  0.0052 -0.1562
11584TIP3    H156167   3.495   3.558   5.152 -0.6838 -0.0614 -0.0935
11584TIP3    H256168   3.547   3.686   5.213 -0.4093 -0.2370  0.0456
11585TIP3   OH256169   6.162   3.333  15.237  0.6898 -0.2105  0.4801
11585TIP3    H156170   6.216   3.379  15.301  0.1492  1.4491 -0.2248
11585TIP3    H256171   6.072   3.353  15.262  0.4683  1.0977 -1.1978
11586TIP3   OH256172   4.567   4.828  14.588 -0.1654 -0.0849 -0.5315
11586TIP3    H156173   4.560   4.816  14.493  0.0788  1.9098 -0.8504
11586TIP3    H256174   4.545   4.921  14.602 -1.6565 -0.6864  1.5516
11587TIP3   OH256175   4.865   5.669  14.543  0.2284 -0.6099  0.1270
11587TIP3    H156176   4.930   5.599  14.544  2.2850  1.1877  0.9920
11587TIP3    H256177   4.785   5.628  14.509  1.8305 -2.8961 -1.1281
11588TIP3   OH256178   2.252   4.632  13.664  0.3555  0.0603 -0.3295
11588TIP3    H156179   2.316   4.702  13.651  2.6416 -1.9411 -0.5055
11588TIP3    H256180   2.296   4.569  13.721 -2.2728 -0.4721  1.3096
11589TIP3   OH256181   4.294   5.182  13.020 -0.5808  0.5675  0.2379
11589TIP3    H156182   4.214   5.188  12.969 -0.0694 -1.6620 -0.9735
11589TIP3    H256183   4.341   5.263  13.002 -1.4570  0.8153 -1.0254
11590TIP3   OH256184   3.976   6.638   4.292 -0.1307  0.2604 -0.0691
11590TIP3    H156185   4.052   6.626   4.235 -0.6571 -0.6540 -0.5951
11590TIP3    H256186   3.999   6.714   4.346  1.6581 -0.7130  0.6145
11591TIP3   OH256187   4.670   6.084  10.634 -0.6456 -0.1822 -0.0930
11591TIP3    H156188   4.742   6.124  10.586 -0.6044 -0.8685 -0.6278
11591TIP3    H256189   4.659   6.139  10.711  0.3529  0.0256 -0.0805
11592TIP3   OH256190   0.157   3.147   0.162  0.9452 -0.4000  0.2668
11592TIP3    H156191   0.205   3.126   0.082  0.5588  2.1699 -0.7408
11592TIP3    H256192   0.065   3.148   0.136  0.8158  0.5065  0.7140
11593TIP3   OH256193   3.151   0.030  16.216 -0.2979 -0.0160  0.5723
11593TIP3    H156194   3.074  -0.022  16.236  0.4322 -0.7166  1.7020
11593TIP3    H256195   3.121   0.121  16.220 -1.3191 -0.3050 -0.2535
11594TIP3   OH256196   4.969   3.226  17.276  0.5961  0.3004  0.0101
11594TIP3    H156197   4.941   3.140  17.307  0.9311 -0.8839 -2.6333
11594TIP3    H256198   5.064   3.228  17.292  0.2758  1.1657  2.0840
11595TIP3   OH256199   4.211   0.774  16.781 -0.6936 -0.0936  0.5099
11595TIP3    H156200   4.205   0.788  16.876  0.6224  1.1325  0.4444
11595TIP3    H256201   4.289   0.720  16.769 -1.1429 -0.6802  0.1411
11596TIP3   OH256202   2.988   2.157  11.625  0.0475  0.0456  0.2068
11596TIP3    H156203   3.000   2.219  11.553  0.9852 -1.0277 -0.5874
11596TIP3    H256204   2.904   2.115  11.608  0.4797 -0.5405 -0.5493
11597TIP3   OH256205   0.754   3.291   4.031 -0.1255 -0.1636  0.7520
11597TIP3    H156206   0.747   3.381   4.061  0.5744  0.6914 -1.4254
11597TIP3    H256207   0.672   3.250   4.059 -2.0928  2.1266 -1.1187
11598TIP3   OH256208   1.192   2.190  13.513 -0.5921  0.3622 -0.1205
11598TIP3    H156209   1.185   2.207  13.607 -0.9059  0.8321 -0.2265
11598TIP3    H256210   1.221   2.099  13.507  0.9449  0.7787  0.4663
11599TIP3   OH256211   1.965   4.877   1.083  0.7971 -0.1498  0.2246
11599TIP3    H156212   1.887   4.887   1.028  0.6549  1.1066  0.6437
11599TIP3    H256213   1.985   4.783   1.077 -1.3719 -0.7330  0.9785
11600TIP3   OH256214   1.062   5.987  14.340  0.0665 -0.2069 -0.0806
11600TIP3    H156215   1.000   6.060  14.329  0.0965 -0.1777 -0.0580
11600TIP3    H256216   1.026   5.936  14.413  1.6481  1.4732  2.0038
11601TIP3   OH256217   4.208   5.736  15.378  0.2353  0.4861 -0.3757
11601TIP3    H156218   4.171   5.755  15.465 -1.1935  0.5512 -0.9692
11601TIP3    H256219   4.153   5.666  15.344  0.8880  0.3569 -1.1788
11602TIP3   OH256220   5.831   6.642   1.635 -0.4319 -0.0807  0.0605
11602TIP3    H156221   5.875   6.643   1.720 -2.1027  0.7097  0.9682
11602TIP3    H256222   5.823   6.734   1.610  0.8135 -0.3362 -1.4101
11603TIP3   OH256223   1.684   1.438   2.471 -0.6177 -0.2342  0.1375
11603TIP3    H156224   1.760   1.496   2.469 -0.2593 -0.6803  0.5766
11603TIP3    H256225   1.618   1.484   2.522 -0.4397 -0.0951  0.2390
11604TIP3   OH256226   5.575   4.441  11.538  0.2400 -0.6452  0.3370
11604TIP3    H156227   5.640   4.450  11.607  1.6409  0.7345 -1.0831
11604TIP3    H256228   5.505   4.502  11.562  0.9762  0.2357  0.2573
11605TIP3   OH256229   3.044   6.036  14.747  0.3031  0.0043  1.3035
11605TIP3    H156230   3.021   6.027  14.840 -2.3044 -0.2797  0.7044
11605TIP3    H256231   3.038   5.947  14.713  0.7433  0.1874  0.7416
11606TIP3   OH256232   6.543   5.561   0.521  0.3529 -0.1016  0.1642
11606TIP3    H156233   6.474   5.528   0.579 -1.2359 -0.5099 -1.7971
11606TIP3    H256234   6.587   5.482   0.489  0.9354  0.0948  0.4674
11607TIP3   OH256235   4.423   5.857   3.350 -0.1531  0.0622 -0.5922
11607TIP3    H156236   4.481   5.918   3.306 -0.5154  0.7606 -0.1171
11607TIP3    H256237   4.412   5.894   3.438  0.1383 -1.0181 -0.0825
11608TIP3   OH256238   2.014   4.298   1.483  0.0533 -0.1077 -0.0927
11608TIP3    H156239   1.950   4.280   1.552 -0.5347 -0.0059 -0.5990
11608TIP3    H256240   2.048   4.385   1.505  0.6051 -0.4925  0.6162
11609TIP3   OH256241   2.868   0.081   4.715  0.1957 -0.4328  0.1846
11609TIP3    H156242   2.959   0.086   4.744  0.0306  2.9873  0.5324
11609TIP3    H256243   2.819   0.063   4.794  0.3676  1.0569  0.6653
11610TIP3   OH256244   0.176   6.388  16.148 -0.2317  0.3427 -0.4233
11610TIP3    H156245   0.143   6.478  16.153  0.4967  0.5547  1.2058
11610TIP3    H256246   0.100   6.334  16.171  0.0983  0.7632  1.9715
11611TIP3   OH256247   0.926   0.165  14.647 -0.4976 -0.5577  0.1791
11611TIP3    H156248   0.853   0.107  14.670  0.2277 -1.8623 -0.7427
11611TIP3    H256249   0.988   0.110  14.600  0.9330  0.6217  0.6050
11612TIP3   OH256250   2.763   3.436  15.471  0.1914  0.1432 -0.0430
11612TIP3    H156251   2.795   3.356  15.430  0.4014  1.0818 -1.8137
11612TIP3    H256252   2.713   3.406  15.547  0.0955 -1.6787 -0.7803
11613TIP3   OH256253   5.040   2.756  14.613 -0.0196  0.5604  0.0567
11613TIP3    H156254   5.110   2.728  14.555 -0.3572  1.9844 -1.0857
11613TIP3    H256255   5.076   2.832  14.659 -0.9778  1.6527 -0.9547
11614TIP3   OH256256   1.603   5.101   5.278  0.0335 -0.3272  0.3543
11614TIP3    H156257   1.606   5.195   5.291 -0.2031 -0.4351  1.2938
11614TIP3    H256258   1.622   5.064   5.365 -0.2186 -1.1378  0.0776
11615TIP3   OH256259   5.261   0.291  14.260  0.2669 -0.4090  0.7978
11615TIP3    H156260   5.184   0.294  14.204  0.5013 -0.8844  0.4411
11615TIP3    H256261   5.264   0.201  14.292 -0.1592 -0.0134  2.0055
11616TIP3   OH256262   1.409   0.639   5.035 -0.7450  0.0064 -0.4267
11616TIP3    H156263   1.392   0.701   4.965  1.1466 -0.1458 -1.0650
11616TIP3    H256264   1.491   0.597   5.011 -0.1024 -0.1560  1.8006
11617TIP3   OH256265   1.091   1.770  15.973 -0.3090 -0.6258 -0.4878
11617TIP3    H156266   1.003   1.808  15.964  0.1224  0.4271 -0.4099
11617TIP3    H256267   1.149   1.846  15.982  0.7880 -1.2526 -1.9136
11618TIP3   OH256268   4.435   5.228   4.745 -0.2315 -0.7126 -0.1498
11618TIP3    H156269   4.387   5.187   4.817 -0.3094 -1.1166 -0.4316
11618TIP3    H256270   4.372   5.290   4.707 -0.5509 -1.2719 -0.5445
11619TIP3   OH256271   3.034   0.884  13.822 -0.6787 -0.0900 -0.4134
11619TIP3    H156272   3.068   0.959  13.871  0.2022 -0.7940  0.0649
11619TIP3    H256273   3.065   0.807  13.869 -2.3817 -0.7803 -0.3408
11620TIP3   OH256274   5.589   1.418   2.117 -0.4446  0.0497 -0.2637
11620TIP3    H156275   5.599   1.513   2.122  0.8193 -0.1151  1.2267
11620TIP3    H256276   5.551   1.394   2.202 -1.1203 -0.7462 -0.7788
11621TIP3   OH256277   6.667   5.244  13.365  0.2137  0.0151 -0.4355
11621TIP3    H156278   6.646   5.305  13.295 -0.8952 -0.4277 -0.5024
11621TIP3    H256279   6.763   5.238  13.364  0.2837  1.0763 -0.9870
11622TIP3   OH256280   0.375   2.128   2.876 -0.2842 -0.2139  0.2139
11622TIP3    H156281   0.319   2.190   2.923 -0.1393 -0.1566  0.3114
11622TIP3    H256282   0.315   2.060   2.846 -0.4736  0.0731 -0.0613
11623TIP3   OH256283   2.127   3.194  16.868 -0.2946 -1.0016 -0.0903
11623TIP3    H156284   2.065   3.122  16.860  0.5628 -1.9026  0.9989
11623TIP3    H256285   2.205   3.165  16.822 -0.4481 -0.1075 -0.9634
11624TIP3   OH256286   4.043   3.096  15.786  0.1437  0.8069 -0.4311
11624TIP3    H156287   4.055   3.184  15.822 -1.3206  0.5302  0.7968
11624TIP3    H256288   3.953   3.073  15.808  1.4245 -2.3464  2.3171
11625TIP3   OH256289   6.681   5.045   5.867 -0.0632 -0.8178  0.0417
11625TIP3    H156290   6.703   4.952   5.870  0.9280 -0.5811  0.5646
11625TIP3    H256291   6.743   5.083   5.805 -0.5051 -0.5074 -0.2209
11626TIP3   OH256292   1.461   5.731  11.451  0.2254 -0.1078 -0.1182
11626TIP3    H156293   1.417   5.674  11.389 -0.8477  0.8965 -0.3173
11626TIP3    H256294   1.458   5.684  11.534  0.6981 -0.9749 -0.5720
11627TIP3   OH256295   6.639   3.675  13.541 -0.2509 -0.2157 -0.6797
11627TIP3    H156296   6.727   3.663  13.505  0.5656 -3.0734  1.8355
11627TIP3    H256297   6.594   3.592  13.524 -0.9180 -0.4475  1.7306
11628TIP3   OH256298   2.552   5.901   2.541  0.0047  0.8382  0.0883
11628TIP3    H156299   2.588   5.840   2.478  1.0227  2.8804 -1.4407
11628TIP3    H256300   2.459   5.909   2.518 -0.1612 -0.1648  0.3743
11629TIP3   OH256301   1.847   6.059  16.857 -0.7555 -0.3999 -0.0953
11629TIP3    H156302   1.834   6.003  16.780  1.6057 -1.6122  0.3024
11629TIP3    H256303   1.858   6.147  16.820  0.2639 -0.9445 -1.1543
11630TIP3   OH256304   2.388   1.530  12.092 -0.1539 -0.4023 -0.7929
11630TIP3    H156305   2.341   1.464  12.040  1.3048 -2.7037  0.5914
11630TIP3    H256306   2.331   1.544  12.168 -0.0009 -0.8941 -0.5811
11631TIP3   OH256307   4.649   1.618  11.216  0.4525  0.0034  0.3254
11631TIP3    H156308   4.705   1.559  11.166  1.1641 -1.2076  2.4310
11631TIP3    H256309   4.608   1.563  11.281 -1.9400  1.1865 -0.0804
11632TIP3   OH256310   1.189   2.045  14.490 -0.2215  0.2069 -0.3700
11632TIP3    H156311   1.214   1.954  14.501  0.4239  0.5544  1.4038
11632TIP3    H256312   1.105   2.042  14.445  1.3494 -1.1039 -3.4493
11633TIP3   OH256313   6.491   4.646   5.893 -0.0696  0.1151  0.3519
11633TIP3    H156314   6.575   4.688   5.909  0.3792 -0.5010 -0.3373
11633TIP3    H256315   6.466   4.608   5.977  0.1824  0.5587  0.6320
11634TIP3   OH256316   1.860   2.710   0.021  0.5124  0.5598  0.3574
11634TIP3    H156317   1.780   2.755  -0.007 -0.6185 -1.1197  0.7276
11634TIP3    H256318   1.831   2.651   0.091  2.4269  1.2501  1.8179
11635TIP3   OH256319   5.973   5.065  12.390 -0.3092  0.3539 -0.0559
11635TIP3    H156320   5.908   5.121  12.349 -0.8585 -1.1816 -1.3820
11635TIP3    H256321   5.950   5.066  12.483 -2.3437 -0.2055 -0.4876
11636TIP3   OH256322   4.097   5.973   4.900  0.6990  0.1086 -0.5119
11636TIP3    H156323   4.024   6.011   4.948  0.0349  0.3913 -1.7143
11636TIP3    H256324   4.175   6.013   4.938  0.1785  0.4777  0.1767
11637TIP3   OH256325   0.560   4.803  13.264 -0.7530  0.3371 -0.4481
11637TIP3    H156326   0.597   4.856  13.334 -0.9510  1.1316 -0.9379
11637TIP3    H256327   0.625   4.807  13.194  1.3841 -3.6422  0.9776
11638TIP3   OH256328   3.125   2.660  12.321 -0.2170 -0.0718 -0.3870
11638TIP3    H156329   3.170   2.577  12.301  0.7834  0.3420  0.0685
11638TIP3    H256330   3.044   2.656  12.271 -0.4271 -1.5640  0.0269
11639TIP3   OH256331   4.574   4.351   1.850  0.1764 -0.0757 -0.5373
11639TIP3    H156332   4.555   4.435   1.807  2.6799 -0.1527 -1.9829
11639TIP3    H256333   4.655   4.368   1.900  0.3577 -1.4525 -0.3267
11640TIP3   OH256334   4.191   4.499  15.438  0.1549  0.3080  0.2563
11640TIP3    H156335   4.127   4.488  15.368  0.7826  2.3806 -0.6952
11640TIP3    H256336   4.275   4.477  15.398  0.2007 -1.8229  1.3450
11641TIP3   OH256337   0.517   1.799  11.248 -0.3691 -0.5331 -0.3083
11641TIP3    H156338   0.552   1.842  11.170 -3.8076  0.6016 -1.4201
11641TIP3    H256339   0.455   1.862  11.285 -1.8816 -2.6228  0.9598
11642TIP3   OH256340   0.238   1.709   3.757  0.4352 -0.2512 -0.1054
11642TIP3    H156341   0.232   1.774   3.687 -0.9561 -0.6842 -0.4236
11642TIP3    H256342   0.310   1.740   3.812 -0.0770  1.4935 -0.3315
11643TIP3   OH256343   2.875   5.363   3.804  0.6744 -0.6857 -0.5443
11643TIP3    H156344   2.941   5.372   3.873  0.0868  0.8260 -0.1162
11643TIP3    H256345   2.834   5.279   3.821 -0.5140  0.2795  1.9965
11644TIP3   OH256346   2.793   2.712   2.446  0.0757 -0.3746 -0.1209
11644TIP3    H156347   2.781   2.789   2.391  1.2128  0.4161  0.6877
11644TIP3    H256348   2.756   2.736   2.531  1.0641 -0.4386  0.3444
11645TIP3   OH256349   3.671   2.424   1.930  0.2427  0.3124  0.1841
11645TIP3    H156350   3.725   2.345   1.941  0.2218  0.2530 -0.1266
11645TIP3    H256351   3.690   2.453   1.840  1.6776  1.7281  0.9031
11646TIP3   OH256352   5.362   6.589   4.215  0.6639 -0.2243  1.2231
11646TIP3    H156353   5.453   6.590   4.246  1.2326 -0.2674 -0.3440
11646TIP3    H256354   5.367   6.551   4.127 -0.4526  2.4987 -0.1258
11647TIP3   OH256355   0.729   0.939  12.113  0.4584  0.3750  0.5688
11647TIP3    H156356   0.753   0.933  12.021 -0.0210 -1.7622  0.5497
11647TIP3    H256357   0.808   0.974  12.155  2.1108 -2.2099 -0.1367
11648TIP3   OH256358   0.855   2.629  15.438 -0.0912  0.1900 -0.1134
11648TIP3    H156359   0.768   2.655  15.469  0.1678 -1.6962  2.4887
11648TIP3    H256360   0.851   2.533  15.434  1.8654  0.0641  0.1222
11649TIP3   OH256361   4.366   3.249  12.405 -0.2036  0.4813 -0.3000
11649TIP3    H156362   4.388   3.199  12.484  1.9603 -0.5334 -1.4460
11649TIP3    H256363   4.383   3.340  12.429  3.6873 -0.0547 -0.4093
11650TIP3   OH256364   2.205   3.629  14.796  0.1401  0.1576 -0.5047
11650TIP3    H156365   2.247   3.597  14.716  0.4212  1.9486 -1.1080
11650TIP3    H256366   2.276   3.670  14.845  0.2580 -2.0931  1.3736
11651TIP3   OH256367   4.518   6.514  15.432  0.7952 -0.1973 -0.2717
11651TIP3    H156368   4.432   6.474  15.446  0.3456  0.1235 -1.9016
11651TIP3    H256369   4.562   6.507  15.517 -0.7257 -0.6240  0.5116
11652TIP3   OH256370   6.563   4.566   2.111  0.4774 -0.5184  0.5768
11652TIP3    H156371   6.472   4.537   2.119  0.7698 -2.0682 -1.1151
11652TIP3    H256372   6.577   4.575   2.017  1.7273  0.9514  0.8768
11653TIP3   OH256373   0.097   3.007  15.311 -0.3249 -0.1026 -0.1555
11653TIP3    H156374   0.192   3.001  15.301 -0.2514  0.5581  0.0908
11653TIP3    H256375   0.067   3.047  15.230 -0.6571 -2.3208 -1.1965
11654TIP3   OH256376   3.492   4.454   3.259 -0.1229 -0.6731  0.1286
11654TIP3    H156377   3.555   4.382   3.252  0.5755 -0.0408 -0.2300
11654TIP3    H256378   3.478   4.465   3.353  2.4163  0.9432  0.4037
11655TIP3   OH256379   3.770   3.773   4.104 -0.1718 -0.0300 -0.0330
11655TIP3    H156380   3.725   3.713   4.045  0.2911 -0.3417 -0.0699
11655TIP3    H256381   3.740   3.748   4.191  0.9130 -1.0979  0.0541
11656TIP3   OH256382   4.658   1.633  16.920 -0.2938  0.0172  0.0536
11656TIP3    H156383   4.652   1.573  16.995  1.9657 -1.1371 -0.6045
11656TIP3    H256384   4.700   1.711  16.955  0.7345 -0.5102  0.0210
11657TIP3   OH256385   6.205   0.004   0.503  0.0244  0.0729  0.4474
11657TIP3    H156386   6.145  -0.056   0.459 -0.2284  1.2135 -0.8121
11657TIP3    H256387   6.291  -0.017   0.467 -0.2768  1.5120 -1.2816
11658TIP3   OH256388   5.131   3.512   5.552  0.0349 -0.3646 -0.7163
11658TIP3    H156389   5.041   3.525   5.522 -1.0460  0.1517  2.3404
11658TIP3    H256390   5.167   3.600   5.558 -0.7696 -0.1034  1.9085
11659TIP3   OH256391   5.770   1.584  12.424  0.4569 -0.4070  0.8710
11659TIP3    H156392   5.803   1.673  12.435  2.4165 -1.1082  1.0476
11659TIP3    H256393   5.761   1.573  12.329  1.5670 -0.4612  0.7619
11660TIP3   OH256394   3.319   0.079   5.117  0.0103 -0.2868 -0.2477
11660TIP3    H156395   3.400   0.029   5.109  0.2436  0.0384  0.0382
11660TIP3    H256396   3.258   0.021   5.162  0.4814 -0.0902  0.6521
11661TIP3   OH256397   1.393   3.547   4.627 -0.0145  0.1125 -0.5602
11661TIP3    H156398   1.309   3.502   4.637 -0.5995  1.2010 -0.4608
11661TIP3    H256399   1.381   3.630   4.673 -0.0025  1.7016 -3.2108
11662TIP3   OH256400   1.357   6.354  16.446 -0.1351 -0.1697  0.4604
11662TIP3    H156401   1.361   6.424  16.381  0.2951 -0.6355 -0.0265
11662TIP3    H256402   1.442   6.310  16.440 -0.7938 -1.4250 -0.0303
11663TIP3   OH256403   1.714   0.515   4.492  0.4178 -0.9474 -0.2549
11663TIP3    H156404   1.636   0.527   4.438 -0.2326 -1.6028  0.5039
11663TIP3    H256405   1.756   0.437   4.457 -0.1461 -1.5261  0.3227
11664TIP3   OH256406   2.907   1.969  16.754 -0.4348  0.3678 -0.2536
11664TIP3    H156407   2.949   2.055  16.754 -0.1491  0.2306 -0.4081
11664TIP3    H256408   2.875   1.958  16.843  0.9774 -0.0551  0.2273
11665TIP3   OH256409   4.607   0.793   1.860 -0.2141  0.2132  0.3345
11665TIP3    H156410   4.587   0.868   1.917 -1.2679  0.1176  0.1112
11665TIP3    H256411   4.627   0.832   1.775  0.5269  0.3042  0.5395
11666TIP3   OH256412   6.092   3.434   3.594  0.0701  0.0785  0.1406
11666TIP3    H156413   6.052   3.506   3.643 -0.2721 -0.4288  0.6311
11666TIP3    H256414   6.132   3.379   3.662  1.0533  0.2360 -0.2907
11667TIP3   OH256415   2.614   0.478  13.303  0.3363 -0.1152 -0.5347
11667TIP3    H156416   2.618   0.435  13.217  0.4094 -1.4379  0.1005
11667TIP3    H256417   2.705   0.498  13.323  0.4875 -1.0804 -0.1749
11668TIP3   OH256418   3.757   6.424  11.652 -0.2814  0.2798 -0.3564
11668TIP3    H156419   3.725   6.510  11.625 -1.5512 -0.2609 -0.6342
11668TIP3    H256420   3.758   6.372  11.571 -0.4016 -0.2225 -0.0416
11669TIP3   OH256421   0.839   1.408   5.182 -0.2357  0.2084  0.3897
11669TIP3    H156422   0.860   1.454   5.263 -0.0999 -0.6277  0.8455
11669TIP3    H256423   0.856   1.316   5.202 -2.4878 -0.3034  0.1657
11670TIP3   OH256424   2.986   0.733   4.717 -0.3976 -0.2200  0.0191
11670TIP3    H156425   3.056   0.678   4.752 -1.0739 -0.7171  0.6171
11670TIP3    H256426   3.028   0.784   4.648  0.2109 -1.5931 -0.6550
11671TIP3   OH256427   4.193   4.728  13.040  0.2086 -0.0284 -0.1249
11671TIP3    H156428   4.264   4.728  12.976 -0.2897 -0.6559 -0.6818
11671TIP3    H256429   4.224   4.670  13.109 -0.1222 -1.0087 -0.7842
11672TIP3   OH256430   6.325   6.755  16.115 -0.6799  0.6370 -0.5258
11672TIP3    H156431   6.272   6.834  16.103 -1.0336  0.5031  0.1277
11672TIP3    H256432   6.262   6.689  16.145 -0.5359 -0.1029 -1.7644
11673TIP3   OH256433   4.138   3.539  11.865  0.0052 -0.2621 -0.2759
11673TIP3    H156434   4.144   3.585  11.948 -2.2906  0.9975 -0.7351
11673TIP3    H256435   4.056   3.490  11.870  0.0041 -0.4444 -1.6616
11674TIP3   OH256436   1.085   5.135   4.667 -0.1835 -0.4261  0.0941
11674TIP3    H156437   1.086   5.122   4.762 -0.7317  0.0441  0.1719
11674TIP3    H256438   1.065   5.049   4.631  0.9574 -0.8105  0.3514
11675TIP3   OH256439   4.527   2.248   1.810 -0.3091 -0.0094  0.0173
11675TIP3    H156440   4.609   2.240   1.859 -0.9652 -0.8260  1.0230
11675TIP3    H256441   4.459   2.232   1.875 -1.2360 -0.4764 -1.0361
11676TIP3   OH256442   0.936   3.863  13.144  0.2846 -0.4720  0.9287
11676TIP3    H156443   1.004   3.807  13.183  0.2558 -3.0284 -2.2508
11676TIP3    H256444   0.855   3.813  13.155  0.0368 -0.5417 -0.8726
11677TIP3   OH256445   4.649   5.791  12.998 -0.4443  0.1289 -0.6470
11677TIP3    H156446   4.650   5.879  13.035  1.7139 -1.0496  2.4550
11677TIP3    H256447   4.644   5.805  12.903  0.7644  3.5825 -0.3317
11678TIP3   OH256448   6.156   2.074  15.606  0.6374 -0.2339 -0.1258
11678TIP3    H156449   6.079   2.023  15.583 -0.5345  0.4889  1.8790
11678TIP3    H256450   6.227   2.010  15.613  0.2083 -0.9283 -1.8581
11679TIP3   OH256451   5.732   6.386   2.620  0.2259 -0.2798  0.0057
11679TIP3    H156452   5.748   6.430   2.704  0.9398  0.1208 -0.3223
11679TIP3    H256453   5.705   6.457   2.561 -1.2964 -0.7191  0.1494
11680TIP3   OH256454   3.842   3.169  11.256  0.4403  0.7673  0.4039
11680TIP3    H156455   3.833   3.102  11.188  0.3478  1.0963  0.0858
11680TIP3    H256456   3.832   3.252  11.209  1.3076  1.0271  0.6702
11681TIP3   OH256457   1.045   6.671   4.438  0.2234  0.0840 -0.2114
11681TIP3    H156458   1.056   6.610   4.511 -0.5532 -0.7337 -0.7604
11681TIP3    H256459   1.129   6.667   4.391  0.6540  0.4641  0.5005
11682TIP3   OH256460   0.804   5.513   6.806  0.2173 -0.2033 -0.1806
11682TIP3    H156461   0.875   5.564   6.768 -1.2672  1.0408 -1.4279
11682TIP3    H256462   0.725   5.551   6.769 -1.0035 -3.3816 -1.1129
11683TIP3   OH256463   3.131   1.843   0.152 -0.1888 -0.2486  0.1198
11683TIP3    H156464   3.178   1.900   0.213  1.7985 -0.2567 -1.3062
11683TIP3    H256465   3.086   1.903   0.093  1.2917 -0.1000 -0.9163
11684TIP3   OH256466   5.604   4.110  12.808 -0.6949 -0.5571 -0.0403
11684TIP3    H156467   5.637   4.049  12.874 -1.5996  0.5067  1.4613
11684TIP3    H256468   5.627   4.196  12.842 -1.4094  0.0285 -0.9999
11685TIP3   OH256469   4.029   3.553  16.138 -0.3626  0.1934 -0.1973
11685TIP3    H156470   4.054   3.642  16.162 -3.7395  1.2936 -0.2516
11685TIP3    H256471   4.029   3.505  16.221  0.9019  0.3380 -0.0841
11686TIP3   OH256472   0.495   2.783   4.086 -0.7403 -0.0318  0.0076
11686TIP3    H156473   0.515   2.706   4.140 -1.4016  0.6267  1.2178
11686TIP3    H256474   0.554   2.775   4.011  0.2279 -0.9534  0.8298
11687TIP3   OH256475   1.566   3.902   3.843 -0.1201 -0.5459  0.3475
11687TIP3    H156476   1.554   3.909   3.938  2.2335 -2.0496  0.8392
11687TIP3    H256477   1.579   3.992   3.814 -1.4092 -0.0143  1.3420
11688TIP3   OH256478   4.677   0.356  14.437  0.3731  0.9116  0.7093
11688TIP3    H156479   4.672   0.310  14.353  0.0306  1.1953  0.5761
11688TIP3    H256480   4.618   0.431  14.428  0.3528  0.9587  1.1930
11689TIP3   OH256481   3.902   3.215   3.199  0.9065 -0.5369 -0.6027
11689TIP3    H156482   3.897   3.263   3.281 -2.0617  0.5743 -1.3291
11689TIP3    H256483   3.943   3.132   3.223  1.6453  0.3954  1.6389
11690TIP3   OH256484   5.215   3.222  12.467  0.1565 -0.0344 -0.0430
11690TIP3    H156485   5.142   3.190  12.520 -0.9873 -1.9246 -2.5179
11690TIP3    H256486   5.248   3.144  12.424  1.9143  1.2003 -1.0398
11691TIP3   OH256487   3.027   6.283   1.457  1.1906  0.4621 -0.4949
11691TIP3    H156488   3.087   6.211   1.473  1.6681  0.8943 -0.3028
11691TIP3    H256489   2.972   6.254   1.384 -0.9016 -1.4783  1.7034
11692TIP3   OH256490   5.896   4.851  16.999  0.3259  0.1998  0.0724
11692TIP3    H156491   5.836   4.873  16.928  1.9241 -2.5171 -2.3331
11692TIP3    H256492   5.841   4.852  17.077 -3.1145 -2.4056 -1.9921
11693TIP3   OH256493   5.182   5.405   4.566  0.1454  0.0360 -0.6079
11693TIP3    H156494   5.186   5.332   4.627  0.5183  1.2252  0.8580
11693TIP3    H256495   5.116   5.464   4.603  0.9051  1.1247 -0.9226
11694TIP3   OH256496   0.020   1.481  11.051  0.0908  0.1947  0.5291
11694TIP3    H156497   0.039   1.542  10.979  1.4964 -0.2431  0.5199
11694TIP3    H256498   0.097   1.426  11.058 -1.3997 -2.0971  0.0675
11695TIP3   OH256499   0.164   5.703   1.176  0.3257 -0.1922  0.3657
11695TIP3    H156500   0.195   5.792   1.189 -0.6059  0.0690  0.9095
11695TIP3    H256501   0.201   5.653   1.248 -0.5987  0.1469  1.0947
11696TIP3   OH256502   1.270   0.758  14.632 -0.1189 -0.3006  0.1124
11696TIP3    H156503   1.238   0.769  14.722 -0.4181 -1.7389  0.2127
11696TIP3    H256504   1.191   0.761  14.578 -0.3204 -2.4389  0.2198
11697TIP3   OH256505   4.428   4.388   2.831  0.0594  0.0174 -0.1610
11697TIP3    H156506   4.457   4.356   2.917  2.0571 -0.8347 -1.0835
11697TIP3    H256507   4.509   4.400   2.782 -1.0456  0.4191 -1.9711
11698TIP3   OH256508   4.563   1.096  15.105 -0.1605 -0.0348  0.1448
11698TIP3    H156509   4.468   1.078  15.104 -0.0496 -0.6301  0.0235
11698TIP3    H256510   4.577   1.157  15.033 -0.6182  0.9165  0.8463
11699TIP3   OH256511   0.758   6.682  14.763  0.3410 -0.4149 -0.1884
11699TIP3    H156512   0.731   6.616  14.827 -2.5845 -0.0799 -0.9173
11699TIP3    H256513   0.775   6.632  14.683 -3.7293 -0.4057 -1.3161
11700TIP3   OH256514   0.855   5.706  14.332  0.5333  0.1066 -0.2786
11700TIP3    H156515   0.798   5.743  14.399  0.0990 -0.4499 -0.3343
11700TIP3    H256516   0.888   5.625  14.370  2.5298  1.1611  0.3661
11701TIP3   OH256517   5.916   4.817   4.814  0.0419 -0.2296  0.0297
11701TIP3    H156518   5.950   4.783   4.731  0.1823  0.4858 -0.2128
11701TIP3    H256519   5.988   4.870   4.849  0.0711 -0.7235  0.7271
11702TIP3   OH256520   4.104   4.213  11.200 -0.1887 -0.2739 -0.0092
11702TIP3    H156521   4.126   4.186  11.289  2.0685  1.8951  0.2229
11702TIP3    H256522   4.146   4.147  11.144  0.3743 -0.3850  0.5296
11703TIP3   OH256523   3.284   3.759  14.318  0.6696  0.0552 -0.2493
11703TIP3    H156524   3.331   3.683  14.284  0.5996  0.0437 -0.3213
11703TIP3    H256525   3.338   3.834  14.294  1.0958 -0.0240  0.4433
11704TIP3   OH256526   3.919   5.491   3.358 -0.0463  0.0898  0.0123
11704TIP3    H156527   3.929   5.429   3.431 -0.7470  0.2457  0.2473
11704TIP3    H256528   3.834   5.469   3.320  0.4410 -0.1895 -0.9560
11705TIP3   OH256529   3.435   6.578   0.650  0.5548  0.6820  0.0043
11705TIP3    H156530   3.477   6.517   0.710  1.3871  1.2617  0.0272
11705TIP3    H256531   3.341   6.559   0.658  0.7629 -0.1901  0.4321
11706TIP3   OH256532   0.489   1.050   3.764  0.2689  0.3186 -0.6303
11706TIP3    H156533   0.437   1.060   3.843 -0.5140 -0.3341 -1.0464
11706TIP3    H256534   0.571   1.096   3.783  0.7982 -1.2397  1.1888
11707TIP3   OH256535   3.863   4.432   2.425  0.3728  0.0681 -0.7576
11707TIP3    H156536   3.804   4.358   2.414  0.7148 -0.1843 -0.8824
11707TIP3    H256537   3.930   4.401   2.485 -0.4469  0.8364  0.6227
11708TIP3   OH256538   2.624   2.596   4.004  0.2131  0.2831 -0.0708
11708TIP3    H156539   2.572   2.535   3.952  0.4389  0.8639 -0.9970
11708TIP3    H256540   2.560   2.641   4.060 -0.3005  0.9480 -1.1589
11709TIP3   OH256541   2.954   3.916   5.720  0.3612 -0.3460  0.2444
11709TIP3    H156542   2.859   3.908   5.723  0.1456  1.4433 -0.2064
11709TIP3    H256543   2.979   3.945   5.808  0.6073 -1.5796  0.6000
11710TIP3   OH256544   6.665   0.907   5.140  0.1188  0.2331 -0.3912
11710TIP3    H156545   6.749   0.913   5.185 -0.3799 -1.4616  0.8972
11710TIP3    H256546   6.652   0.814   5.126 -2.2758  0.2690  1.0124
11711TIP3   OH256547   0.840   1.474  12.065 -0.0965 -0.3040  0.0095
11711TIP3    H156548   0.906   1.503  12.002 -0.3718 -1.5521 -0.8957
11711TIP3    H256549   0.758   1.474  12.016 -0.3508 -1.1206  0.4140
11712TIP3   OH256550   6.583   2.496  17.105  0.4166  0.3322 -0.4764
11712TIP3    H156551   6.529   2.468  17.179 -1.2272  0.7256 -1.4665
11712TIP3    H256552   6.630   2.573  17.137  1.3291 -0.6853  0.7684
11713TIP3   OH256553   4.079   0.217   3.533  0.0542  0.3679 -0.2055
11713TIP3    H156554   4.174   0.213   3.517  0.0444  0.4657 -0.2927
11713TIP3    H256555   4.051   0.126   3.535  0.2136  0.3245  0.2012
11714TIP3   OH256556   6.129   3.575  12.721 -0.5536  0.0654  0.7157
11714TIP3    H156557   6.140   3.642  12.789  0.6966  0.3876  0.2311
11714TIP3    H256558   6.217   3.539  12.708 -1.4603 -3.0744  2.3023
11715TIP3   OH256559   2.523   5.532  13.839  0.2540 -0.7300  0.3630
11715TIP3    H156560   2.447   5.590  13.837  0.4533 -0.4774 -1.0358
11715TIP3    H256561   2.488   5.444  13.825  0.2223 -0.5810 -0.5726
11716TIP3   OH256562   2.888   3.089  15.127  0.2012  0.0345  0.4871
11716TIP3    H156563   2.878   3.176  15.166  0.7940  0.4006 -0.1444
11716TIP3    H256564   2.859   3.100  15.036  1.6220 -0.0579  0.0018
11717TIP3   OH256565   6.468   0.250   0.045  0.0021 -0.1143 -0.2419
11717TIP3    H156566   6.480   0.341   0.017  0.0229  0.1153  0.4928
11717TIP3    H256567   6.376   0.231   0.027 -0.2915  0.4238  0.6376
11718TIP3   OH256568   4.799   0.003  12.697  0.0830 -0.1095  0.1948
11718TIP3    H156569   4.800   0.098  12.687  1.3312 -0.1585 -0.2443
11718TIP3    H256570   4.710  -0.016  12.728 -0.5764  1.0802 -0.8406
11719TIP3   OH256571   1.102   0.769   3.708 -0.0002  0.1786 -0.6027
11719TIP3    H156572   1.015   0.729   3.705  0.6309 -1.3304  0.0522
11719TIP3    H256573   1.086   0.863   3.698 -1.4470 -0.2737 -3.8326
11720TIP3   OH256574   5.637   5.954  12.532 -0.2472 -0.3175  0.0666
11720TIP3    H156575   5.602   6.043  12.523  0.7276  0.1370  0.5783
11720TIP3    H256576   5.564   5.897  12.507 -1.5521  0.5702  1.6332
11721TIP3   OH256577   0.835   5.176  12.891 -0.3310 -0.5891  0.2494
11721TIP3    H156578   0.878   5.233  12.827 -2.2505 -0.2120 -0.7685
11721TIP3    H256579   0.887   5.186  12.970  0.7551  0.7407 -0.5862
11722TIP3   OH256580   3.868   4.564   5.167  0.7429 -0.5356  0.1151
11722TIP3    H156581   3.951   4.610   5.159  0.0279  0.4894 -2.3896
11722TIP3    H256582   3.806   4.630   5.197  0.5853 -1.0212  0.8917
11723TIP3   OH256583   0.576   0.831  11.703 -0.3784  0.9267  0.6429
11723TIP3    H156584   0.604   0.888  11.631 -1.3226  0.0764 -0.4549
11723TIP3    H256585   0.626   0.750  11.691 -2.1045 -0.0489 -0.4499
11724TIP3   OH256586   3.388   3.949  12.525 -0.0712 -0.7033 -0.3396
11724TIP3    H156587   3.315   3.891  12.547  0.2989 -1.1145 -0.1864
11724TIP3    H256588   3.420   3.981  12.609  1.0222 -1.8776 -0.2883
11725TIP3   OH256589   6.663   4.169  16.993  0.2891  0.0826  0.4046
11725TIP3    H156590   6.712   4.115  17.056  3.1312  1.7884 -0.1516
11725TIP3    H256591   6.731   4.210  16.939 -1.9125  1.2316 -1.6647
11726TIP3   OH256592   0.482   0.414   0.664 -0.2543  0.2778 -0.3993
11726TIP3    H156593   0.559   0.469   0.669  0.5415 -0.9034  0.9072
11726TIP3    H256594   0.478   0.386   0.572 -0.0382  1.5812 -0.8176
11727TIP3   OH256595   4.248   6.097   6.345  0.2663 -0.0968 -0.0715
11727TIP3    H156596   4.317   6.163   6.342  0.3306 -0.1836 -0.4594
11727TIP3    H256597   4.227   6.089   6.438  0.9654 -0.2656  0.0751
11728TIP3   OH256598   1.468   3.602   2.985 -0.7347  0.0476 -0.5001
11728TIP3    H156599   1.527   3.547   2.933  0.6412  1.2997 -0.3522
11728TIP3    H256600   1.403   3.634   2.923 -0.7163 -0.6183 -0.8683
11729TIP3   OH256601   4.495   4.808   2.733  0.1323 -0.0903  0.0516
11729TIP3    H156602   4.429   4.743   2.757  0.7229 -0.4421  0.7794
11729TIP3    H256603   4.486   4.817   2.638 -1.0226 -0.0494  0.1509
11730TIP3   OH256604   3.751   6.189  15.372  0.0147  1.2666  0.2695
11730TIP3    H156605   3.656   6.197  15.376 -0.6717 -3.0087 -1.9578
11730TIP3    H256606   3.774   6.220  15.284  0.1832 -0.5644 -0.3614
11731TIP3   OH256607   2.336   6.095  13.999  0.1163 -0.0417 -0.4101
11731TIP3    H156608   2.329   6.010  14.044  0.6305 -0.9449 -1.9464
11731TIP3    H256609   2.252   6.104  13.953 -0.7370  1.2649  1.3114
11732TIP3   OH256610   1.515   4.736  12.364 -0.6133  0.2185 -0.1531
11732TIP3    H156611   1.598   4.771  12.395 -1.1242  0.0888  1.4767
11732TIP3    H256612   1.473   4.809  12.318  0.2972  0.3385 -0.8191
11733TIP3   OH256613   4.996   5.255  17.235  0.5584 -0.5354  0.0336
11733TIP3    H156614   5.007   5.166  17.269  0.4373 -0.5190  0.1180
11733TIP3    H256615   4.904   5.259  17.208 -0.0403  0.2252  2.0024
11734TIP3   OH256616   1.089   2.628  12.874  0.5148 -0.0004  0.5656
11734TIP3    H156617   1.014   2.580  12.837  0.5387  0.1542  0.3125
11734TIP3    H256618   1.114   2.577  12.951 -1.7771  1.5207  2.4788
11735TIP3   OH256619   2.976   1.311   4.827 -0.3741  0.1305  0.1072
11735TIP3    H156620   3.034   1.290   4.753 -0.1733 -1.2855  0.6359
11735TIP3    H256621   3.036   1.335   4.898 -0.5343  0.5799  0.0985
11736TIP3   OH256622   0.772   4.554   6.813 -0.3443  0.7006  0.4108
11736TIP3    H156623   0.681   4.529   6.829 -0.4664  1.9708  1.9936
11736TIP3    H256624   0.767   4.643   6.778  0.2648  0.2785 -0.8441
11737TIP3   OH256625   4.059   2.056   0.779  0.5574  0.4278 -0.1218
11737TIP3    H156626   4.108   1.982   0.742 -0.1908  1.6354 -3.9412
11737TIP3    H256627   3.979   2.017   0.813 -0.7247 -0.5338 -3.7566
11738TIP3   OH256628   5.143   4.663  13.361 -0.4387  0.3577  0.0980
11738TIP3    H156629   5.081   4.591  13.375  0.0837 -0.6723 -2.2697
11738TIP3    H256630   5.103   4.738  13.405 -2.4060 -0.7336  0.3021
11739TIP3   OH256631   0.657   5.588   4.318  0.3453 -0.1794 -0.5583
11739TIP3    H156632   0.706   5.545   4.248  1.1767 -0.3128  0.0885
11739TIP3    H256633   0.570   5.605   4.280 -0.2511 -2.9884 -0.6372
11740TIP3   OH256634   3.646   4.182  10.942  0.2538  0.5593 -0.1755
11740TIP3    H156635   3.721   4.171  10.883  2.1281  0.9298  1.9813
11740TIP3    H256636   3.637   4.277  10.951  1.0284  0.5268  1.2768
11741TIP3   OH256637   2.496   3.975   2.325  0.6574 -0.0441  0.0280
11741TIP3    H156638   2.409   4.009   2.346  0.9266  0.8928 -0.3174
11741TIP3    H256639   2.544   3.979   2.408  0.0045 -1.7605  0.5134
11742TIP3   OH256640   2.271   0.706  12.740  0.2304  0.4305 -0.6969
11742TIP3    H156641   2.212   0.750  12.679  0.3502 -0.3966 -1.4287
11742TIP3    H256642   2.224   0.627  12.767  0.0493  0.9305  0.5409
11743TIP3   OH256643   5.075   5.449  16.564  0.0312  0.3462  0.1481
11743TIP3    H156644   5.062   5.361  16.530  0.8594  0.9035 -1.7543
11743TIP3    H256645   5.162   5.446  16.604  0.2862  0.4370 -0.3977
11744TIP3   OH256646   4.857   5.024   3.571  0.4493 -0.2600  0.5126
11744TIP3    H156647   4.830   5.068   3.651 -0.2117  2.4523 -1.0765
11744TIP3    H256648   4.785   5.038   3.509  1.9146 -0.1345 -1.2689
11745TIP3   OH256649   5.768   0.251  16.130 -0.7720 -0.2103  0.2336
11745TIP3    H156650   5.775   0.346  16.123  0.1623 -0.2263  0.8264
11745TIP3    H256651   5.680   0.231  16.098 -0.1182  0.6095 -2.3377
11746TIP3   OH256652   4.078   3.023   4.194  0.1758 -0.1255  0.0268
11746TIP3    H156653   4.072   3.107   4.148 -0.0222 -0.1052  0.0911
11746TIP3    H256654   4.152   2.979   4.152  0.1499 -0.0058 -0.1475
11747TIP3   OH256655   4.246   1.394   4.416 -0.5965  0.2313  0.3645
11747TIP3    H156656   4.243   1.345   4.498  0.4125 -1.3852 -0.5032
11747TIP3    H256657   4.248   1.326   4.348 -1.6203  1.5286 -1.0245
11748TIP3   OH256658   3.623   1.771   3.463 -0.1866 -0.2337 -0.3949
11748TIP3    H156659   3.657   1.814   3.541 -1.2147 -1.4571  0.7576
11748TIP3    H256660   3.701   1.750   3.412  0.4927  0.6910  0.2195
11749TIP3   OH256661   3.956   4.991  14.350 -0.3845 -0.0222 -0.0742
11749TIP3    H156662   4.037   5.037  14.327 -0.8084  0.7153 -0.1084
11749TIP3    H256663   3.893   5.060  14.369 -0.7400 -0.5977  0.9116
11750TIP3   OH256664   5.741   6.182   5.764 -0.1267  0.2565 -0.0620
11750TIP3    H156665   5.672   6.198   5.828  1.0937  0.2020  1.3356
11750TIP3    H256666   5.796   6.261   5.768 -0.5969  0.7163 -1.8466
11751TIP3   OH256667   6.025   2.270   1.185  0.1909  0.0729 -0.0821
11751TIP3    H156668   5.937   2.243   1.157  0.9601 -0.2540 -2.3735
11751TIP3    H256669   6.021   2.267   1.280 -1.8835 -1.2505 -0.1358
11752TIP3   OH256670   2.997   1.926   4.855  0.2546 -0.7400 -0.4014
11752TIP3    H156671   3.063   1.991   4.878  0.4789 -0.6310 -1.2951
11752TIP3    H256672   3.022   1.848   4.905  0.0484 -0.1941  0.5869
11753TIP3   OH256673   5.508   1.578  15.640 -0.0903 -0.3355 -0.0502
11753TIP3    H156674   5.443   1.551  15.575  0.5157 -1.3294 -0.2713
11753TIP3    H256675   5.592   1.562  15.597  0.3130 -0.4906  0.7803
11754TIP3   OH256676   1.558   0.137   0.833 -0.1239  0.2399  0.0868
11754TIP3    H156677   1.514   0.217   0.801 -1.5553 -1.2220 -1.8353
11754TIP3    H256678   1.617   0.168   0.902 -0.3290  3.0079 -0.8630
11755TIP3   OH256679   6.728   1.554  15.580  0.1440 -0.1234  0.0559
11755TIP3    H156680   6.800   1.614  15.561 -0.2100  0.1356 -0.4778
11755TIP3    H256681   6.661   1.575  15.515  0.2380 -1.4737 -0.5197
11756TIP3   OH256682   4.596   2.057   6.285  0.1528 -0.0566 -0.2389
11756TIP3    H156683   4.501   2.052   6.297  0.2157 -0.2257  0.2104
11756TIP3    H256684   4.612   2.009   6.203 -0.2066  0.4758 -0.6270
11757TIP3   OH256685   4.212   1.996   1.373  0.0639 -0.0217  0.1663
11757TIP3    H156686   4.135   1.944   1.394  0.3698 -0.5081  0.1073
11757TIP3    H256687   4.236   1.970   1.285  0.9606 -0.7284  0.6020
11758TIP3   OH256688   0.399   5.283  11.712  0.7373 -0.1869  0.2546
11758TIP3    H156689   0.460   5.212  11.728 -1.3372 -2.3697 -0.8025
11758TIP3    H256690   0.341   5.250  11.643 -0.4128  2.5099 -0.2297
11759TIP3   OH256691   6.616   1.154  14.067  0.2327  0.0738 -0.2560
11759TIP3    H156692   6.535   1.166  14.116 -0.7448 -1.2309 -1.4739
11759TIP3    H256693   6.632   1.059  14.070  2.7691  0.4763  1.5516
11760TIP3   OH256694   3.432   5.978   5.206  0.3074 -0.1107  0.5860
11760TIP3    H156695   3.391   5.910   5.259 -1.0558  0.1327 -0.1140
11760TIP3    H256696   3.384   6.058   5.228  0.6801  0.2714  0.0469
11761TIP3   OH256697   2.891   0.604   1.471  0.1881  0.0159  0.4484
11761TIP3    H156698   2.848   0.666   1.412  1.2178 -0.1538 -0.5008
11761TIP3    H256699   2.895   0.523   1.421  2.3884  0.2543  0.1652
11762TIP3   OH256700   6.050   1.094   3.902  0.6692  0.3200  0.0474
11762TIP3    H156701   6.019   1.004   3.906 -1.4321  0.9776  0.2245
11762TIP3    H256702   6.045   1.117   3.809  0.5634  0.4365  0.0806
11763TIP3   OH256703   5.326   0.980  11.807  0.0595 -0.2604  0.1088
11763TIP3    H156704   5.314   0.931  11.888 -1.6063 -1.0148 -0.5558
11763TIP3    H256705   5.352   1.067  11.835  0.0604 -0.6746  1.4268
11764TIP3   OH256706   3.415   2.104   2.582 -0.4270 -0.1513  0.3581
11764TIP3    H156707   3.510   2.098   2.598 -0.1261 -0.4859 -1.3646
11764TIP3    H256708   3.385   2.170   2.645  1.3067  1.4669 -0.4093
11765TIP3   OH256709   5.215   6.540   0.774  0.3929  0.3013 -0.1864
11765TIP3    H156710   5.308   6.550   0.793  0.7329 -0.2937 -1.4470
11765TIP3    H256711   5.204   6.582   0.688 -0.5100  0.3694 -0.0486
11766TIP3   OH256712   3.002   6.716  15.323 -0.3655  0.5529  0.3339
11766TIP3    H156713   3.066   6.743  15.258  0.0458 -0.3702  0.3346
11766TIP3    H256714   2.920   6.755  15.295 -0.3291 -0.3529 -1.1021
11767TIP3   OH256715   3.228   2.516   6.301 -0.1126  0.5996  0.2064
11767TIP3    H156716   3.306   2.493   6.250 -0.8796  1.5789 -1.4625
11767TIP3    H256717   3.217   2.610   6.287 -1.1765  0.6190  1.0619
11768TIP3   OH256718   1.545   2.430  11.553 -0.4607 -0.4603  0.1173
11768TIP3    H156719   1.507   2.366  11.493 -2.0449  0.6245 -0.1012
11768TIP3    H256720   1.497   2.418  11.635 -0.3879  0.0597  0.2415
11769TIP3   OH256721   4.963   2.260  15.054  0.2386 -0.0393 -0.0421
11769TIP3    H156722   5.057   2.244  15.047 -0.0713 -1.4214 -1.8559
11769TIP3    H256723   4.947   2.332  14.993  0.0384 -0.1965 -0.1768
11770TIP3   OH256724   2.586   2.669   4.600  0.4157  0.2180  0.2650
11770TIP3    H156725   2.644   2.745   4.602  0.0029  0.5518  2.8402
11770TIP3    H256726   2.501   2.703   4.574  0.5384  0.3910  0.0922
11771TIP3   OH256727   6.166   1.473   3.846 -0.4903 -0.0013 -0.0534
11771TIP3    H156728   6.073   1.491   3.842 -0.9586 -2.2730 -0.6467
11771TIP3    H256729   6.186   1.467   3.939 -1.0441  0.0316  0.0689
11772TIP3   OH256730   2.225   2.370  10.642  0.1640 -0.3048 -0.1680
11772TIP3    H156731   2.183   2.446  10.683 -1.6029 -0.9766 -0.6450
11772TIP3    H256732   2.196   2.296  10.696 -0.0541 -0.8913 -1.0736
11773TIP3   OH256733   5.210   6.685   1.573  0.4216  0.0283  0.1355
11773TIP3    H156734   5.255   6.639   1.644 -0.6163  0.0580  0.8353
11773TIP3    H256735   5.217   6.626   1.498  0.8355 -0.3610  0.4764
11774TIP3   OH256736   6.069   0.262   1.422  0.2278 -0.1749 -0.5809
11774TIP3    H156737   6.059   0.189   1.361 -1.9421 -0.5860  0.1849
11774TIP3    H256738   6.022   0.334   1.382  1.2647  0.4511 -0.7190
11775TIP3   OH256739   1.750   3.715   2.480  0.2009 -0.0525 -0.1557
11775TIP3    H156740   1.741   3.678   2.568  1.5580 -0.4073 -0.1312
11775TIP3    H256741   1.756   3.639   2.422 -1.1946  0.1791 -0.6435
11776TIP3   OH256742   2.359   2.923   0.427  0.4008 -0.2452  0.3444
11776TIP3    H156743   2.317   2.857   0.372 -3.6748  1.1118  1.5049
11776TIP3    H256744   2.318   2.913   0.512  1.4778  2.2022  1.2394
11777TIP3   OH256745   5.765   4.227   4.212 -0.0852  0.7287  0.1955
11777TIP3    H156746   5.697   4.281   4.252 -1.3054 -0.4390 -0.2280
11777TIP3    H256747   5.816   4.194   4.285  0.5061  2.2047  0.4748
11778TIP3   OH256748   5.484   0.625   4.092  0.0739  0.5148 -0.1452
11778TIP3    H156749   5.480   0.531   4.106 -0.4343  0.7471  1.5531
11778TIP3    H256750   5.491   0.636   3.997  0.3951 -1.2242 -0.3395
11779TIP3   OH256751   6.390   3.610  16.126  0.3740 -0.1433 -0.1431
11779TIP3    H156752   6.329   3.538  16.142 -0.7543  1.0447  1.2369
11779TIP3    H256753   6.397   3.654  16.211  0.5687  1.6961 -1.0642
11780TIP3   OH256754   5.682   1.575  13.813  1.0094 -0.2196 -0.1673
11780TIP3    H156755   5.612   1.511  13.801  1.3987 -0.7398  0.2958
11780TIP3    H256756   5.686   1.589  13.907 -1.0336  2.7250 -0.3917
11781TIP3   OH256757   5.846   1.317  12.740  0.7373  0.2544  0.3494
11781TIP3    H156758   5.885   1.399  12.707 -0.8146  1.3692  1.1740
11781TIP3    H256759   5.843   1.260  12.664  0.4014  1.5394 -0.6367
11782TIP3   OH256760   3.858   6.447  14.010 -0.7027 -0.3447 -0.0275
11782TIP3    H156761   3.946   6.471  13.979 -1.1661 -0.6025 -1.6257
11782TIP3    H256762   3.874   6.385  14.082  0.4205  0.4142  0.4081
11783TIP3   OH256763   1.421   5.787   3.469 -0.1134  0.1417 -0.4298
11783TIP3    H156764   1.393   5.850   3.403 -1.0749  0.8248  0.6226
11783TIP3    H256765   1.350   5.784   3.533  1.4451  0.6490  1.4122
11784TIP3   OH256766   5.474   1.351  11.056 -0.0933  0.4069  0.3500
11784TIP3    H156767   5.448   1.443  11.061  0.3067  0.4592  1.7462
11784TIP3    H256768   5.479   1.333  10.962  2.0108  2.4528 -0.0414
11785TIP3   OH256769   3.897   4.705  11.163  0.0472 -0.2551 -0.0960
11785TIP3    H156770   3.975   4.651  11.152  1.0532  1.1590 -0.1196
11785TIP3    H256771   3.931   4.791  11.185 -1.5587 -0.0434  1.7808
11786TIP3   OH256772   5.532   0.156   1.756 -0.8891 -0.7469  0.4312
11786TIP3    H156773   5.471   0.205   1.701 -1.4563 -1.2357  0.6099
11786TIP3    H256774   5.616   0.163   1.712 -0.1545  3.0685  2.0260
11787TIP3   OH256775   5.745   5.397   3.328  0.0588  0.4059  0.1470
11787TIP3    H156776   5.754   5.438   3.414  0.1454  0.1006  0.2819
11787TIP3    H256777   5.657   5.358   3.330  0.5720 -0.7841  0.6070
11788TIP3   OH256778   0.967   2.865  12.934 -0.3728  0.0717  0.3212
11788TIP3    H156779   0.952   2.897  12.845 -0.9762  1.0693  0.7652
11788TIP3    H256780   1.000   2.776  12.922  1.3021  0.8060 -0.9604
11789TIP3   OH256781   1.765   1.683   5.801  0.0074  0.1551  0.1360
11789TIP3    H156782   1.702   1.612   5.783  2.5956 -1.8534 -1.9112
11789TIP3    H256783   1.815   1.652   5.876 -0.7099  1.2635  1.1005
11790TIP3   OH256784   4.791   5.859   5.307  0.1899 -0.1006  0.0450
11790TIP3    H156785   4.795   5.890   5.397  0.1770 -1.7100  0.6220
11790TIP3    H256786   4.882   5.857   5.277  0.1707  0.7011 -0.0931
11791TIP3   OH256787   1.553   0.419   5.994  0.5446  0.5063  0.2852
11791TIP3    H156788   1.562   0.482   6.065 -0.3474  0.9861 -0.0177
11791TIP3    H256789   1.643   0.388   5.978  0.8163  0.7703  1.2651
11792TIP3   OH256790   4.185   4.140   2.402  0.1833  0.2016 -0.0739
11792TIP3    H156791   4.264   4.176   2.443  0.2259  1.3005 -1.0993
11792TIP3    H256792   4.218   4.091   2.326 -0.0637 -0.1368  0.0314
11793TIP3   OH256793   1.487   3.276  15.239  0.3436 -0.0092  0.1928
11793TIP3    H156794   1.485   3.350  15.299  2.5094  0.0197  0.3317
11793TIP3    H256795   1.550   3.302  15.171 -0.7329 -0.7377 -1.1333
11794TIP3   OH256796   4.545   1.147  13.697 -0.0595  0.2687 -0.8285
11794TIP3    H156797   4.572   1.155  13.605 -1.7961  2.4882 -1.2428
11794TIP3    H256798   4.450   1.137  13.693 -0.0083 -1.4520  0.7258
11795TIP3   OH256799   0.082   0.147   2.642 -0.2158 -0.4264  0.4450
11795TIP3    H156800   0.108   0.056   2.652  0.3827 -0.3890 -0.6233
11795TIP3    H256801   0.006   0.144   2.584 -0.2201 -0.2536  0.4414
11796TIP3   OH256802   0.757   0.223  15.488 -0.1613 -0.4616  0.1435
11796TIP3    H156803   0.748   0.130  15.508  1.9193 -1.1365 -1.5728
11796TIP3    H256804   0.748   0.267  15.572 -1.6404 -2.1547  0.9337
11797TIP3   OH256805   1.098   0.513  11.951 -0.0406 -0.2623  0.5767
11797TIP3    H156806   1.088   0.435  11.897 -0.5446 -1.1707  1.9235
11797TIP3    H256807   1.154   0.485  12.023  0.9880  1.0399  0.3127
11798TIP3   OH256808   2.188   3.696  12.351 -0.4672 -0.2255 -0.1426
11798TIP3    H156809   2.165   3.786  12.373  0.5361 -0.5671  2.7861
11798TIP3    H256810   2.159   3.645  12.427 -0.7293 -2.3643 -1.5702
11799TIP3   OH256811   4.317   3.919   5.380  0.2014 -0.7470 -0.5094
11799TIP3    H156812   4.282   4.006   5.365  1.6430 -0.4670 -2.7409
11799TIP3    H256813   4.385   3.932   5.447  2.1358  0.4214 -2.5380
11800TIP3   OH256814   6.183   1.134  16.322 -0.2871  0.4769  0.1974
11800TIP3    H156815   6.256   1.071  16.317  1.3199  2.2551  0.0156
11800TIP3    H256816   6.131   1.117  16.244 -0.0825 -0.8346  0.3262
11801TIP3   OH256817   3.733   5.597  12.263  0.6309  0.0488 -0.0157
11801TIP3    H156818   3.694   5.654  12.330 -1.6679 -0.6237 -0.6852
11801TIP3    H256819   3.667   5.529  12.248  2.6744 -2.0032 -0.2889
11802TIP3   OH256820   4.098   6.637  16.027  0.2696  0.2825  0.3180
11802TIP3    H156821   4.071   6.633  15.935 -0.7952 -1.4781  0.6553
11802TIP3    H256822   4.188   6.604  16.027 -0.0569 -0.6372  0.0044
11803TIP3   OH256823   4.900   0.502   0.395  0.0890 -0.0977 -0.4846
11803TIP3    H156824   4.956   0.545   0.332  0.4124  0.1970 -0.0045
11803TIP3    H256825   4.952   0.499   0.476  0.0275 -1.2660 -0.4650
11804TIP3   OH256826   1.574   6.137   4.276 -0.2325 -0.1461  0.0645
11804TIP3    H156827   1.553   6.227   4.250 -0.5189 -0.5145 -1.0411
11804TIP3    H256828   1.492   6.103   4.312 -0.5974 -0.4666 -1.0233
11805TIP3   OH256829   5.751   4.363  16.842 -0.2003 -0.3277 -0.1280
11805TIP3    H156830   5.830   4.309  16.838 -0.4237 -0.9794  2.4726
11805TIP3    H256831   5.693   4.316  16.901 -0.0591  3.0304  3.0711
11806TIP3   OH256832   5.457   3.358  14.890  0.1273  0.3420 -0.4226
11806TIP3    H156833   5.476   3.448  14.916 -1.4585  0.8321 -0.8103
11806TIP3    H256834   5.477   3.356  14.796 -1.8585  0.9535 -0.9064
11807TIP3   OH256835   4.577   6.363   4.857 -0.1609  0.4356  0.0039
11807TIP3    H156836   4.618   6.375   4.771 -2.1248  3.4147 -0.6753
11807TIP3    H256837   4.568   6.452   4.892  0.1384 -0.6345  3.1567
11808TIP3   OH256838   6.233   2.854   6.528  0.3764 -0.3486  0.6012
11808TIP3    H156839   6.313   2.803   6.514  0.7756  0.9149 -2.3319
11808TIP3    H256840   6.162   2.792   6.514  0.8674 -0.5355 -1.3555
11809TIP3   OH256841   0.468   5.690   4.772 -0.3587 -0.2160  0.2482
11809TIP3    H156842   0.484   5.612   4.825 -0.1477 -0.1642  0.2594
11809TIP3    H256843   0.478   5.764   4.832 -1.0134 -0.1998  0.3456
11810TIP3   OH256844   5.879   3.710  16.396  0.1463  0.4586  0.0599
11810TIP3    H156845   5.971   3.736  16.388  0.7842 -1.3909  0.7335
11810TIP3    H256846   5.840   3.776  16.453  1.3767  0.6338  0.7457
11811TIP3   OH256847   6.328   5.432   0.660  0.3910 -0.0156  0.1948
11811TIP3    H156848   6.263   5.369   0.628  2.4290 -1.2421 -1.8951
11811TIP3    H256849   6.298   5.456   0.748 -1.9652 -1.7516 -0.0492
11812TIP3   OH256850   5.639   0.299  13.956  0.0870  0.5284  0.1041
11812TIP3    H156851   5.715   0.337  14.000  0.2087  1.7312 -1.0971
11812TIP3    H256852   5.564   0.341  13.997  0.1104  0.1694  0.5208
11813TIP3   OH256853   0.588   6.348   3.673 -0.1282 -0.1272  0.0346
11813TIP3    H156854   0.555   6.271   3.719  0.2632  1.2088  2.7432
11813TIP3    H256855   0.604   6.412   3.742  0.0142  2.2377 -2.0575
11814TIP3   OH256856   2.479   1.926   5.745 -0.2884 -0.0625 -0.1957
11814TIP3    H156857   2.384   1.917   5.731 -0.6116 -0.2670  1.9026
11814TIP3    H256858   2.491   1.911   5.838  1.7878  0.3748 -0.3577
11815TIP3   OH256859   2.508   0.328  12.393 -0.2755  0.4412  0.0133
11815TIP3    H156860   2.489   0.291  12.480 -1.4278  1.9940  0.4523
11815TIP3    H256861   2.604   0.334  12.391 -0.0389 -2.0307  0.0957
11816TIP3   OH256862   1.556   1.801  11.619 -0.4544 -0.3539  0.2091
11816TIP3    H156863   1.498   1.876  11.607 -2.6409 -1.9337  0.3471
11816TIP3    H256864   1.590   1.812  11.708  0.0627  0.9688 -0.1284
11817TIP3   OH256865   4.481   0.610   3.129  0.3164  0.8963  0.4485
11817TIP3    H156866   4.474   0.625   3.224 -0.0243  0.6949  0.4597
11817TIP3    H256867   4.525   0.525   3.122  0.8227  1.1646  0.4174
11818TIP3   OH256868   2.056   6.539  11.675 -0.2677 -1.1292  0.2103
11818TIP3    H156869   2.138   6.572  11.711 -0.9153 -0.9640  1.6011
11818TIP3    H256870   2.047   6.583  11.591  1.6124 -1.9898 -0.5005
11819TIP3   OH256871   2.022   0.259   5.780  0.1317  0.2446 -0.6242
11819TIP3    H156872   2.045   0.352   5.790 -1.4269  0.3922  3.0403
11819TIP3    H256873   2.023   0.245   5.685  1.7501  3.6165 -1.2739
11820TIP3   OH256874   1.758   5.097  11.439 -0.0191  0.2624 -0.4282
11820TIP3    H156875   1.729   5.159  11.372 -0.1807 -0.9742 -1.5474
11820TIP3    H256876   1.843   5.130  11.467  0.5186  0.2819 -1.9846
11821TIP3   OH256877   2.762   6.623   6.176 -0.0851 -0.0433  0.4561
11821TIP3    H156878   2.793   6.533   6.185  0.9414  0.2698  0.1850
11821TIP3    H256879   2.697   6.633   6.245  1.1067 -0.4492  1.6933
11822TIP3   OH256880   5.816   3.739  12.349  0.0053  0.3149 -0.3673
11822TIP3    H156881   5.833   3.767  12.439  1.1635  2.2315 -1.1096
11822TIP3    H256882   5.754   3.804  12.315 -0.7343 -0.6197 -0.8502
11823TIP3   OH256883   0.178   3.233   5.799 -0.3661 -0.2689 -0.2667
11823TIP3    H156884   0.091   3.265   5.779 -0.7100 -0.7038  0.4913
11823TIP3    H256885   0.206   3.283   5.875 -0.0877 -0.3580 -0.3066
11824TIP3   OH256886   0.836   5.546  12.348 -0.3408  0.4103 -0.0801
11824TIP3    H156887   0.876   5.479  12.403 -0.2625 -0.4732 -1.1971
11824TIP3    H256888   0.910   5.600  12.319 -0.4525  1.3007  1.1912
11825TIP3   OH256889   4.251   4.477  16.517  0.3984 -0.2269 -0.2789
11825TIP3    H156890   4.237   4.556  16.465  3.8299 -0.5958 -2.0405
11825TIP3    H256891   4.229   4.405  16.458 -0.8584 -0.6764  0.6824
11826TIP3   OH256892   0.213   0.017  15.044 -0.5764  0.1646  0.5008
11826TIP3    H156893   0.138   0.072  15.067 -0.6482 -0.2416  1.2561
11826TIP3    H256894   0.178  -0.072  15.040  0.0483 -0.1748  1.8822
11827TIP3   OH256895   6.078   2.069   2.515  0.1933 -0.3016 -0.1766
11827TIP3    H156896   6.163   2.105   2.491  1.0682 -1.8814  0.4403
11827TIP3    H256897   6.017   2.105   2.450  1.0664  1.8674  0.1177
11828TIP3   OH256898   1.520   3.890  16.060  0.4275 -0.4236  0.4805
11828TIP3    H156899   1.425   3.878  16.055  0.2075  1.4108 -0.8548
11828TIP3    H256900   1.547   3.906  15.970  2.1889 -1.8375  0.7019
11829TIP3   OH256901   6.230   5.490   1.811 -0.0191 -0.5493  0.0240
11829TIP3    H156902   6.183   5.539   1.744 -0.0548 -2.2462 -1.2618
11829TIP3    H256903   6.317   5.475   1.774  0.1711 -0.9891  0.6229
11830TIP3   OH256904   3.439   3.792  13.177  0.3956 -0.4566  0.1254
11830TIP3    H156905   3.363   3.781  13.120  0.2280 -0.6359  0.3828
11830TIP3    H256906   3.500   3.846  13.126 -0.1482  0.1918  0.1535
11831TIP3   OH256907   3.332   3.065  15.320 -0.4240 -0.1282  0.2133
11831TIP3    H156908   3.239   3.048  15.307 -0.8676  0.3121  2.3532
11831TIP3    H256909   3.376   3.011  15.255 -2.2053  1.7545 -2.7648
11832TIP3   OH256910   6.380   3.989   6.814  0.2929 -0.5080 -0.5209
11832TIP3    H156911   6.426   3.907   6.799  0.0192 -0.7300 -0.1656
11832TIP3    H256912   6.316   3.995   6.743 -1.4139 -1.8470  0.8123
11833TIP3   OH256913   0.710   6.112  16.568  0.3454  0.4046 -0.0087
11833TIP3    H156914   0.663   6.029  16.566 -1.7119  1.4870  0.7858
11833TIP3    H256915   0.728   6.126  16.661  2.2882  0.0346 -0.2918
11834TIP3   OH256916   2.198   5.033  14.033  0.2014 -0.6746 -0.4054
11834TIP3    H156917   2.248   5.013  13.954 -0.0008  0.7494 -0.9210
11834TIP3    H256918   2.137   4.960  14.041  0.4191 -0.9844 -1.4069
11835TIP3   OH256919   3.055   3.719  16.887 -0.3446 -0.2622  0.2037
11835TIP3    H156920   3.053   3.693  16.979  1.6051 -0.2841  0.2771
11835TIP3    H256921   3.087   3.809  16.887 -0.6321 -0.1498 -0.4309
11836TIP3   OH256922   4.347   6.401  16.647  0.2813 -0.4154 -0.6691
11836TIP3    H156923   4.297   6.425  16.569 -1.0962 -2.0677 -0.3722
11836TIP3    H256924   4.308   6.453  16.718  1.1703  0.6776 -0.9502
11837TIP3   OH256925   4.056   3.802   1.326 -0.9925  0.1078 -0.0414
11837TIP3    H156926   4.061   3.792   1.231  2.3975  0.4133 -0.0238
11837TIP3    H256927   4.121   3.739   1.360 -0.8046  1.2810  1.9427
11838TIP3   OH256928   5.368   1.119  17.348  0.1870 -0.1380  0.0814
11838TIP3    H156929   5.420   1.189  17.308  1.3964 -0.8197  0.4204
11838TIP3    H256930   5.371   1.047  17.285 -1.2579  0.1648 -0.3798
11839TIP3   OH256931   0.462   4.215   0.153  0.1850 -0.1081 -0.4288
11839TIP3    H156932   0.367   4.226   0.142  0.4013  0.1112 -2.3640
11839TIP3    H256933   0.470   4.144   0.216 -1.2405  1.4078  1.6195
11840TIP3   OH256934   2.044   4.909   4.756 -0.5722 -0.6043  0.3980
11840TIP3    H156935   1.995   4.939   4.680 -1.0633 -0.1429  0.8920
11840TIP3    H256936   2.004   4.954   4.831  1.3002  0.6781  0.7027
11841TIP3   OH256937   4.654   0.678  12.066  0.0504  0.0663  0.1341
11841TIP3    H156938   4.662   0.707  12.157 -1.1454  4.4910 -0.9279
11841TIP3    H256939   4.732   0.712  12.023 -0.4196 -0.1068 -0.8881
11842TIP3   OH256940   1.935   4.169  16.068  0.0119  0.5165 -0.0243
11842TIP3    H156941   1.884   4.090  16.083  1.4886 -0.1528  1.9243
11842TIP3    H256942   2.026   4.138  16.061  0.6825  2.0485  1.2798
11843TIP3   OH256943   2.926   4.920  13.848 -0.2236  0.2727  0.8564
11843TIP3    H156944   2.851   4.933  13.906  0.3401  0.3949  1.5770
11843TIP3    H256945   2.979   4.999  13.860 -1.1259  1.2911 -1.4372
11844TIP3   OH256946   1.750   6.259  14.648  0.2240  0.4230  0.2244
11844TIP3    H156947   1.838   6.221  14.646  0.1608  0.2273  0.9078
11844TIP3    H256948   1.692   6.189  14.618  0.2181  0.2945  0.5306
11845TIP3   OH256949   4.245   3.767  12.973  0.0216  0.0456  0.4748
11845TIP3    H156950   4.188   3.764  13.050  1.7617 -1.8886  1.8108
11845TIP3    H256951   4.298   3.687  12.979  1.3884  0.6648 -1.8480
11846TIP3   OH256952   0.761   5.561  14.019 -0.8135 -0.2522 -0.2013
11846TIP3    H156953   0.816   5.590  13.946 -0.9251  0.6735  0.0707
11846TIP3    H256954   0.819   5.565  14.096 -1.0024 -0.1545 -0.0624
11847TIP3   OH256955   1.460   2.907   0.369  0.1993 -0.3707 -0.3316
11847TIP3    H156956   1.471   2.813   0.386  1.8064  0.0396  1.1022
11847TIP3    H256957   1.487   2.917   0.277  0.1345 -1.2747 -0.4657
11848TIP3   OH256958   2.916   5.678  11.251  0.3336  0.0013 -0.1564
11848TIP3    H156959   2.857   5.605  11.269  1.3251 -0.5315  1.0670
11848TIP3    H256960   2.950   5.660  11.163 -2.5657  1.2281 -1.6297
11849TIP3   OH256961   2.979   5.257  10.890 -0.6285 -0.4609  0.0678
11849TIP3    H156962   2.932   5.244  10.807 -1.0817  0.4690  0.1671
11849TIP3    H256963   3.040   5.328  10.872 -1.1640  0.1699  0.7034
11850TIP3   OH256964   2.393   6.537  15.449 -0.5172  0.3951  0.1080
11850TIP3    H156965   2.388   6.609  15.386 -2.6218  1.3449  1.2717
11850TIP3    H256966   2.323   6.478  15.423  0.6254 -0.8390 -0.2922
11851TIP3   OH256967   5.417   5.809  14.537  0.0637 -0.3722  0.5193
11851TIP3    H156968   5.347   5.782  14.596  0.5666 -2.1182  0.3756
11851TIP3    H256969   5.496   5.807  14.591  0.0843  1.2188  0.5847
11852TIP3   OH256970   6.377   2.771   1.434 -0.4138 -0.2515 -0.0117
11852TIP3    H156971   6.346   2.825   1.506  1.0292 -1.2009  1.3661
11852TIP3    H256972   6.340   2.684   1.451  1.8070 -1.0855  0.9661
11853TIP3   OH256973   1.793   5.293  16.503  0.0322 -0.0564 -0.5818
11853TIP3    H156974   1.799   5.198  16.517  1.2799 -0.3901 -2.9576
11853TIP3    H256975   1.703   5.315  16.527  0.6195 -1.1404  3.4037
11854TIP3   OH256976   0.363   3.626   1.450 -0.0119 -0.1643 -0.0791
11854TIP3    H156977   0.370   3.555   1.385  0.8949  0.6169 -0.8568
11854TIP3    H256978   0.390   3.704   1.403  2.7946  0.1395  1.7847
11855TIP3   OH256979   0.168   3.953  16.883  0.6173 -0.1731 -0.2068
11855TIP3    H156980   0.168   3.863  16.851  2.5900 -1.2377  2.4716
11855TIP3    H256981   0.240   3.995  16.836 -0.1828  0.0372 -1.3122
11856TIP3   OH256982   3.953   2.154   2.106 -0.0506 -0.6422 -0.0909
11856TIP3    H156983   3.950   2.069   2.063 -2.6886 -0.1704 -1.0680
11856TIP3    H256984   4.003   2.209   2.046  0.4626 -1.1600 -0.1464
11857TIP3   OH256985   2.956   1.399  16.696  0.3324 -0.1648  0.4159
11857TIP3    H156986   2.892   1.424  16.630  1.0251 -0.0118 -0.2114
11857TIP3    H256987   2.905   1.387  16.776 -0.5187 -0.3914 -0.1516
11858TIP3   OH256988   6.109   0.161  11.584  0.1220  0.6053 -0.3892
11858TIP3    H156989   6.168   0.162  11.509  0.8841  1.1762  0.2116
11858TIP3    H256990   6.097   0.253  11.607 -1.1245  0.5138 -0.5874
11859TIP3   OH256991   4.650   0.136  11.565 -0.0586  0.3947  0.4235
11859TIP3    H156992   4.666   0.052  11.609  0.9040 -0.1902 -0.9593
11859TIP3    H256993   4.646   0.200  11.635  0.4915 -0.6360  1.4208
11860TIP3   OH256994   6.392   3.220  16.611 -0.0414 -0.1569  0.0920
11860TIP3    H156995   6.357   3.197  16.525  0.1379 -2.2024  0.5348
11860TIP3    H256996   6.436   3.304  16.597  1.1004 -1.0571 -2.1136
11861TIP3   OH256997   4.591   6.011  16.480  0.0775 -0.1064  0.6707
11861TIP3    H156998   4.567   5.927  16.519  2.1963 -0.4725  1.3237
11861TIP3    H256999   4.600   5.992  16.386  0.0723 -0.4983  0.7456
11862TIP3   OH257000   5.474   3.544  11.335  0.3298 -0.4121  0.0647
11862TIP3    H157001   5.433   3.607  11.276  1.5348 -1.4494 -1.9877
11862TIP3    H257002   5.403   3.487  11.364 -0.2836  0.1052 -0.4220
11863TIP3   OH257003   6.504   1.383  14.594  0.0782  0.1808 -0.0385
11863TIP3    H157004   6.436   1.386  14.526  0.2777 -0.5922 -0.2775
11863TIP3    H257005   6.586   1.382  14.544  0.2096 -1.2956  0.1777
11864TIP3   OH257006   3.911   4.650   3.941 -1.0624  0.2219 -0.0903
11864TIP3    H157007   3.994   4.696   3.954  0.3309 -2.0354 -0.5192
11864TIP3    H257008   3.859   4.710   3.887  0.8512  1.1170 -1.0539
11865TIP3   OH257009   2.199   5.674  16.527 -0.9695 -0.5543  0.0288
11865TIP3    H157010   2.242   5.748  16.571  0.9763 -2.4401  1.5021
11865TIP3    H257011   2.174   5.615  16.598 -1.5890 -1.7781 -1.1598
11866TIP3   OH257012   1.037   3.427   5.019  0.3617  0.5263 -0.7263
11866TIP3    H157013   1.074   3.405   5.105  1.2082 -1.1574 -1.4685
11866TIP3    H257014   0.987   3.507   5.034  0.3099  0.1556  1.3795
11867TIP3   OH257015   2.846   3.961  10.998 -0.7347  0.0999 -0.3439
11867TIP3    H157016   2.752   3.980  10.985 -0.6004  0.6961 -0.4994
11867TIP3    H257017   2.882   3.958  10.909 -0.3391  1.3453 -0.2479
11868TIP3   OH257018   6.533   3.394  13.516  0.2777 -0.0178 -0.1309
11868TIP3    H157019   6.437   3.397  13.524  0.3072  0.3280  0.1380
11868TIP3    H257020   6.549   3.333  13.444 -0.1326 -0.3303  0.0393
11869TIP3   OH257021   4.538   1.858  15.051 -0.2677  0.3692 -0.1904
11869TIP3    H157022   4.610   1.838  15.109 -1.0377  0.0627  0.6775
11869TIP3    H257023   4.574   1.847  14.963  0.3306 -1.2560  0.2231
11870TIP3   OH257024   0.948   4.792  11.563 -0.2045 -0.2880  0.2672
11870TIP3    H157025   0.924   4.800  11.655 -0.8904 -1.2036  0.1861
11870TIP3    H257026   0.879   4.738  11.525 -0.6864  1.2157 -1.1011
11871TIP3   OH257027   0.782   2.650   0.212 -0.1930 -0.7838  0.1477
11871TIP3    H157028   0.720   2.715   0.245  0.4472  0.0883 -0.3424
11871TIP3    H257029   0.767   2.573   0.268 -0.5482 -0.0244  1.1295
11872TIP3   OH257030   1.651   5.609  13.130  0.1193  0.3842 -0.3595
11872TIP3    H157031   1.670   5.559  13.209  1.8559  0.4087 -0.7349
11872TIP3    H257032   1.694   5.693  13.142  0.1262  0.5147 -1.1950
11873TIP3   OH257033   0.712   2.418   4.442 -0.2056  0.7154 -0.3089
11873TIP3    H157034   0.668   2.396   4.360 -0.4290 -0.7960  0.2000
11873TIP3    H257035   0.721   2.335   4.489  2.0297  1.1662  0.1888
11874TIP3   OH257036   4.394   5.115   0.201 -0.0521  0.1833  0.2080
11874TIP3    H157037   4.349   5.032   0.219 -0.7791  0.5540  0.1098
11874TIP3    H257038   4.332   5.166   0.149  1.0457  0.1366 -1.2068
11875TIP3   OH257039   3.050   1.547  11.559 -0.0895  0.3686 -0.7349
11875TIP3    H157040   3.085   1.603  11.489 -0.8943  0.6128 -0.9583
11875TIP3    H257041   2.956   1.568  11.561 -0.0193  0.6680  0.6990
11876TIP3   OH257042   1.827   0.274   4.443  0.4593 -0.0573 -0.0507
11876TIP3    H157043   1.922   0.278   4.456  0.4754 -0.8416  0.0900
11876TIP3    H257044   1.812   0.188   4.404 -0.1408  0.2708 -0.5615
11877TIP3   OH257045   1.466   5.387  13.609 -0.0579  0.6620 -0.0888
11877TIP3    H157046   1.511   5.465  13.577  0.0449  0.7615  0.2941
11877TIP3    H257047   1.389   5.421  13.654 -1.8875  0.4178 -2.7965
11878TIP3   OH257048   1.224   2.873  12.508 -0.0802 -0.0761  0.0516
11878TIP3    H157049   1.155   2.807  12.507 -0.6962  0.5643 -0.4193
11878TIP3    H257050   1.207   2.923  12.588 -0.1115  0.0332 -0.0244
11879TIP3   OH257051   1.980   6.138  14.440  0.4627  0.1222 -0.0619
11879TIP3    H157052   2.057   6.093  14.406  0.7142  0.7270 -0.3250
11879TIP3    H257053   1.976   6.115  14.532  1.6284  0.9912  0.2179
11880TIP3   OH257054   6.348   5.202  13.008 -0.3562  0.6218  0.4606
11880TIP3    H157055   6.368   5.148  13.084 -1.7352 -0.2575  0.2494
11880TIP3    H257056   6.290   5.147  12.955  0.8969  1.0371 -1.4551
11881TIP3   OH257057   0.020   6.509  15.717  0.1436 -0.6052  0.2243
11881TIP3    H157058   0.019   6.547  15.630 -0.6834  0.5488  0.7080
11881TIP3    H257059   0.067   6.426  15.707 -0.1738 -0.6202 -1.3549
11882TIP3   OH257060   0.025   3.325   3.748 -0.2042  0.5285 -0.4695
11882TIP3    H157061   0.117   3.332   3.772 -0.3584 -2.3911  1.4466
11882TIP3    H257062  -0.006   3.416   3.748  2.0725  1.4167  1.4497
11883TIP3   OH257063   0.617   2.856   0.842  0.0004  0.1340  0.0091
11883TIP3    H157064   0.544   2.859   0.903 -0.6579  0.8475 -0.7882
11883TIP3    H257065   0.642   2.763   0.839 -2.3554 -0.5420 -1.3857
11884TIP3   OH257066   4.873   3.738   2.352  0.0111 -0.0162  0.4456
11884TIP3    H157067   4.872   3.660   2.296  0.2682 -0.7020  1.3754
11884TIP3    H257068   4.953   3.785   2.326  0.4639 -0.6508  0.6537
11885TIP3   OH257069   5.806   3.506   4.248  0.3097  0.0537  0.4623
11885TIP3    H157070   5.902   3.500   4.250  0.2321 -2.4707  0.3686
11885TIP3    H257071   5.784   3.569   4.316  2.0147  0.0692  1.0333
11886TIP3   OH257072   1.363   5.495  13.962 -0.0001  0.1227 -0.0716
11886TIP3    H157073   1.362   5.399  13.960 -0.6584  0.1328 -0.9446
11886TIP3    H257074   1.354   5.517  14.054 -2.0555 -0.6684 -0.0319
11887TIP3   OH257075   4.846   3.815  14.003 -0.0285  0.1318 -0.4298
11887TIP3    H157076   4.831   3.835  13.910  0.2649  0.6646 -0.3640
11887TIP3    H257077   4.929   3.858  14.024  1.5406 -2.5462 -0.7290
11888TIP3   OH257078   3.485   4.498   2.924 -0.1481 -0.3824 -0.0894
11888TIP3    H157079   3.579   4.491   2.938 -0.3204 -0.7165  0.9692
11888TIP3    H257080   3.454   4.556   2.994 -0.7998 -0.6693 -0.1261
11889TIP3   OH257081   1.576   4.620  14.934  0.5128 -0.8304 -0.0829
11889TIP3    H157082   1.618   4.691  14.982  3.3267 -1.1177 -1.8665
11889TIP3    H257083   1.482   4.635  14.946  1.0123  2.2429  0.8930
11890TIP3   OH257084   3.899   6.720  15.503 -0.4220 -1.0381  0.5003
11890TIP3    H157085   3.893   6.737  15.597  1.2755  0.2532  0.4264
11890TIP3    H257086   3.928   6.803  15.465 -0.4235 -1.7206 -1.0777
11891TIP3   OH257087   6.711   0.628   0.853  0.2527  0.0158  0.2513
11891TIP3    H157088   6.801   0.602   0.833  0.7672  2.1144 -0.4586
11891TIP3    H257089   6.718   0.719   0.880 -1.5171 -0.2058  1.6483
11892TIP3   OH257090   5.915   6.631  16.726  0.3955  0.1041 -0.2912
11892TIP3    H157091   5.918   6.543  16.765 -0.9417  0.5903  0.9702
11892TIP3    H257092   5.995   6.674  16.757  0.4462 -0.2565  0.0769
11893TIP3   OH257093   0.464   2.424   1.995 -0.4698 -0.0220 -0.4792
11893TIP3    H157094   0.394   2.488   1.985 -0.4810 -0.1023 -0.9421
11893TIP3    H257095   0.494   2.407   1.906  1.5516  1.5391 -0.1647
11894TIP3   OH257096   5.059   4.705  12.845  0.4564  0.2098  0.1814
11894TIP3    H157097   5.106   4.739  12.921 -0.1635 -0.7899  1.0311
11894TIP3    H257098   5.101   4.747  12.770  1.3930  0.8439  1.0431
11895TIP3   OH257099   0.132   2.261  16.694  0.3782 -0.0464  0.3865
11895TIP3    H157100   0.056   2.252  16.751  1.5599 -0.9303  1.8847
11895TIP3    H257101   0.096   2.296  16.612 -1.4460  0.7369  1.4573
11896TIP3   OH257102   4.769   3.933  10.599  0.7156  0.0472 -0.0631
11896TIP3    H157103   4.793   3.849  10.559  1.2591  0.6989 -1.1312
11896TIP3    H257104   4.680   3.918  10.632  2.1697 -2.2189  3.4006
11897TIP3   OH257105   6.159   6.306  16.141  0.1043  0.1614 -0.4805
11897TIP3    H157106   6.199   6.322  16.056 -0.6920  1.1641 -0.6851
11897TIP3    H257107   6.157   6.211  16.149  2.6275  0.0590 -0.3770
11898TIP3   OH257108   1.401   3.934  11.776  0.4856  0.0286 -0.4053
11898TIP3    H157109   1.454   3.979  11.711  0.4445 -0.3262 -0.6871
11898TIP3    H257110   1.463   3.911  11.846  0.2421  1.8416  0.4660
11899TIP3   OH257111   1.565   6.662   2.570 -0.2070  0.2753 -0.7071
11899TIP3    H157112   1.504   6.729   2.542 -0.7331  0.0171 -0.2066
11899TIP3    H257113   1.511   6.584   2.585  0.0972  0.2953  0.6198
11900TIP3   OH257114   0.974   3.820  14.830 -0.7232 -0.5514  0.2325
11900TIP3    H157115   0.890   3.843  14.790 -1.4181 -1.5712  1.0662
11900TIP3    H257116   0.951   3.765  14.904  0.7356 -1.5418 -0.0116
11901TIP3   OH257117   6.090   2.766   1.010  0.4594  0.2903  0.0205
11901TIP3    H157118   6.068   2.676   1.036  1.2790  0.2611  0.6534
11901TIP3    H257119   6.154   2.794   1.075  2.3200  0.3642 -1.7613
11902TIP3   OH257120   0.658   1.284  12.989 -0.1961  0.1388  0.5297
11902TIP3    H157121   0.716   1.275  13.064 -1.0863 -0.1603  1.1977
11902TIP3    H257122   0.715   1.312  12.917  0.5490  1.1082  1.4731
11903TIP3   OH257123   6.749   2.032  16.015 -0.1820 -0.9649 -0.6711
11903TIP3    H157124   6.841   2.015  16.033 -0.0333  1.1255  0.9035
11903TIP3    H257125   6.742   2.127  16.011 -2.1610 -1.0929 -1.4954
11904TIP3   OH257126   2.399   1.327  15.726  0.4220  0.2939 -0.1415
11904TIP3    H157127   2.355   1.328  15.641  0.4903 -2.6830 -0.3351
11904TIP3    H257128   2.331   1.299  15.788  0.4630  2.0779  0.7738
11905TIP3   OH257129   1.137   3.963   4.790 -0.6318  0.5138  0.1628
11905TIP3    H157130   1.077   4.037   4.795 -0.7340  0.8081 -3.1291
11905TIP3    H257131   1.183   3.975   4.707 -0.2665 -2.7867 -0.2532
11906TIP3   OH257132   1.734   2.316   4.576  0.2823  0.0358  0.2460
11906TIP3    H157133   1.668   2.309   4.645  0.2483  0.0612  0.2157
11906TIP3    H257134   1.684   2.327   4.496  0.2534 -1.5550  0.0024
11907TIP3   OH257135   3.382   0.992  14.773 -1.2775  0.0314 -0.2232
11907TIP3    H157136   3.326   1.034  14.839 -0.1581  2.4208 -0.6808
11907TIP3    H257137   3.448   1.058  14.752  0.7767 -2.0960 -0.8877
11908TIP3   OH257138   6.689   4.430   3.284  0.0471  0.2074 -0.1774
11908TIP3    H157139   6.695   4.516   3.326 -1.0143  0.8136 -1.1894
11908TIP3    H257140   6.623   4.442   3.215 -1.4695 -1.9075  0.8135
11909TIP3   OH257141   2.148   1.741  16.088  0.2265  0.6404 -0.2560
11909TIP3    H157142   2.125   1.808  16.154  2.6302  1.0800  0.2255
11909TIP3    H257143   2.064   1.708  16.058 -1.0794  3.6921 -0.3100
11910TIP3   OH257144   0.764   2.537   3.661  0.8884 -0.1908  0.4016
11910TIP3    H157145   0.729   2.556   3.575  0.0882  1.2901  1.0227
11910TIP3    H257146   0.740   2.446   3.678  1.0558 -0.4968 -0.9088
11911TIP3   OH257147   6.069   3.034  13.495 -0.5754 -0.4458  0.2541
11911TIP3    H157148   6.125   2.965  13.460  0.2050  1.1534 -1.8115
11911TIP3    H257149   6.028   3.074  13.419 -0.0008  2.2109  1.2099
11912TIP3   OH257150   2.627   0.175   6.352  0.2689  0.3664  0.2061
11912TIP3    H157151   2.617   0.224   6.271  5.1566  0.8977 -0.3238
11912TIP3    H257152   2.563   0.104   6.345 -0.3878  1.1450 -3.4692
11913TIP3   OH257153   3.214   2.036  14.346 -0.2515 -0.0450  0.7652
11913TIP3    H157154   3.227   2.124  14.310 -1.9420  0.6573  1.7380
11913TIP3    H257155   3.214   1.978  14.270 -0.8077  1.0180 -0.0728
11914TIP3   OH257156   4.820   2.308   4.851  0.6086  0.1044  0.4147
11914TIP3    H157157   4.824   2.350   4.937  0.5172 -0.1919  0.5625
11914TIP3    H257158   4.896   2.343   4.804  1.4345 -0.7630  1.0728
11915TIP3   OH257159   1.459   3.826  14.498 -0.0782  0.3651  0.2086
11915TIP3    H157160   1.400   3.758  14.466  0.8997 -0.8363  0.8559
11915TIP3    H257161   1.488   3.872  14.419  0.4124 -0.9571 -0.4132
11916TIP3   OH257162   6.433   3.549   2.869  0.4423  0.2173 -0.2230
11916TIP3    H157163   6.501   3.557   2.935 -0.4741 -1.0195  0.9213
11916TIP3    H257164   6.473   3.498   2.799  0.0830 -2.5714  1.4510
11917TIP3   OH257165   4.639   0.461  17.342  0.5314 -0.1047 -0.1993
11917TIP3    H157166   4.658   0.460  17.436 -0.1619 -2.1596 -0.0156
11917TIP3    H257167   4.583   0.537  17.329  0.5713  0.1634  1.0614
11918TIP3   OH257168   6.099   2.644  17.142 -0.2993  0.0781  0.0602
11918TIP3    H157169   6.111   2.695  17.222  1.4293  0.0965 -0.1773
11918TIP3    H257170   6.144   2.561  17.159 -0.1974 -0.0487 -0.7843
11919TIP3   OH257171   4.789   3.641  12.340 -0.0770  0.3827  0.5692
11919TIP3    H157172   4.864   3.595  12.378  0.0552  0.6942  0.6862
11919TIP3    H257173   4.827   3.701  12.277 -0.0927  1.6245  1.6958
11920TIP3   OH257174   1.765   0.400   3.995 -0.4225 -0.0183  0.3130
11920TIP3    H157175   1.718   0.378   4.075  0.8385 -0.3706  0.9851
11920TIP3    H257176   1.853   0.365   4.009  0.0731  0.7124 -0.8619
11921TIP3   OH257177   1.536   2.639  15.378  0.2983 -0.4041 -0.1099
11921TIP3    H157178   1.517   2.721  15.424 -0.8803 -0.0731 -1.1688
11921TIP3    H257179   1.544   2.574  15.449 -1.2735  0.1324  0.6047
11922TIP3   OH257180   4.805   6.539   0.289 -0.3070 -0.3174  0.1877
11922TIP3    H157181   4.859   6.471   0.250 -0.4046 -0.3038  0.0292
11922TIP3    H257182   4.866   6.610   0.309  0.0919 -1.0670  1.8437
11923TIP3   OH257183   5.945   3.538  16.017  0.7927  0.2904  0.4585
11923TIP3    H157184   5.943   3.634  16.012 -0.1024  0.3255  1.3748
11923TIP3    H257185   5.871   3.509  15.964  0.9943  0.0955  0.2774
11924TIP3   OH257186   5.942   0.491   0.676 -0.2605  0.1046  0.1857
11924TIP3    H157187   5.867   0.549   0.661  1.4010  1.9522 -1.6647
11924TIP3    H257188   5.951   0.443   0.593  0.5823 -0.0663  0.3661
11925TIP3   OH257189   4.351   2.830   0.649  0.1133  0.3241  0.4757
11925TIP3    H157190   4.410   2.881   0.704 -2.1072  2.8116  0.7424
11925TIP3    H257191   4.287   2.793   0.711  0.0837 -0.5047 -0.0328
11926TIP3   OH257192   2.338   6.233   0.828  0.6283 -0.5547 -0.9957
11926TIP3    H157193   2.410   6.243   0.890  0.8015 -1.2297 -1.0748
11926TIP3    H257194   2.290   6.156   0.860 -1.4364  1.1829  0.3891
11927TIP3   OH257195   0.410   2.529  12.066  0.3086 -0.3697 -0.2542
11927TIP3    H157196   0.343   2.533  11.998 -1.6805  0.9040  1.6173
11927TIP3    H257197   0.366   2.486  12.140  2.0394 -0.7774  0.5920
11928TIP3   OH257198   4.364   2.205   3.102  0.5274 -0.2473  0.5548
11928TIP3    H157199   4.437   2.267   3.107  0.2374  0.1354  0.0957
11928TIP3    H257200   4.302   2.246   3.042  0.3162 -0.9752  0.2744
11929TIP3   OH257201   0.225   3.425  11.212 -0.0060 -0.2148  0.3424
11929TIP3    H157202   0.138   3.389  11.193  0.2771 -2.6836  2.9498
11929TIP3    H257203   0.283   3.382  11.150 -0.4840  0.8536 -0.8936
11930TIP3   OH257204   6.355   2.828   4.537 -0.4286  0.5665 -0.3676
11930TIP3    H157205   6.410   2.831   4.615 -0.9511  1.2365 -0.0213
11930TIP3    H257206   6.360   2.736   4.508  0.4707  0.5080 -0.0688
11931TIP3   OH257207   5.355   4.946   4.924 -0.3204  0.2938 -0.4164
11931TIP3    H157208   5.403   4.913   4.999 -1.1990 -0.1580 -0.0347
11931TIP3    H257209   5.288   4.880   4.908 -0.0274  0.2886 -1.7195
11932TIP3   OH257210   4.041   3.604  13.376  0.2794  0.2593  0.1891
11932TIP3    H157211   4.065   3.563  13.458  2.5464 -1.0577 -1.0483
11932TIP3    H257212   3.955   3.567  13.355  0.2285 -0.3065  1.3296
11933TIP3   OH257213   1.685   0.008   1.535  0.4005 -0.1639  0.4994
11933TIP3    H157214   1.690   0.006   1.631  0.7659 -2.2537  0.4878
11933TIP3    H257215   1.769  -0.025   1.505  0.2959  0.4733 -0.5696
11934TIP3   OH257216   3.849   4.857  14.083  0.2338 -0.3514  0.1416
11934TIP3    H157217   3.916   4.865  14.151  0.3749 -0.0332 -0.0309
11934TIP3    H257218   3.865   4.932  14.025  0.6745 -1.1103 -0.7328
11935TIP3   OH257219   5.160   0.027   4.232 -0.2039 -0.0231  0.0353
11935TIP3    H157220   5.130   0.055   4.318  1.2747  0.1796  0.5068
11935TIP3    H257221   5.238  -0.025   4.250  1.1954  1.5222 -1.2652
11936TIP3   OH257222   2.713   6.059  12.452  0.0978 -0.3650  0.7367
11936TIP3    H157223   2.781   6.069  12.385 -0.9385 -2.4758 -0.7307
11936TIP3    H257224   2.748   5.994  12.512  0.0443 -0.2310  0.9129
11937TIP3   OH257225   4.516   1.929   3.513  0.3295  0.3338 -0.1137
11937TIP3    H157226   4.443   1.868   3.505 -1.0235  1.5560  1.9206
11937TIP3    H257227   4.527   1.966   3.426 -0.1350 -1.2964 -0.9145
11938TIP3   OH257228   6.614   5.300   6.000 -0.5164 -0.3663  0.0590
11938TIP3    H157229   6.635   5.281   6.091  3.1673  3.1669  0.1908
11938TIP3    H257230   6.639   5.220   5.953  0.5517 -1.1251  1.8030
11939TIP3   OH257231   5.515   1.201  10.828  0.4391 -0.3708  0.1463
11939TIP3    H157232   5.565   1.120  10.829  3.0403  0.9987 -2.2624
11939TIP3    H257233   5.450   1.189  10.759  1.2228 -0.2639 -0.6336
11940TIP3   OH257234   3.655   1.227  16.421 -0.4025  0.2882  0.1577
11940TIP3    H157235   3.620   1.179  16.346 -0.3947 -0.4357  0.6083
11940TIP3    H257236   3.748   1.239  16.401 -0.5621  0.7992 -0.3060
11941TIP3   OH257237   5.860   6.692   0.854 -0.1239  0.7653 -0.0674
11941TIP3    H157238   5.785   6.708   0.913 -1.6896 -0.0097 -1.7662
11941TIP3    H257239   5.891   6.780   0.832  0.8604  1.0930  2.2541
11942TIP3   OH257240   2.358   4.414   3.326  0.1607  0.0816 -0.2286
11942TIP3    H157241   2.332   4.395   3.416 -1.4813  0.7944 -0.5057
11942TIP3    H257242   2.292   4.368   3.273  2.3948 -2.2573 -1.1907
11943TIP3   OH257243   4.394   1.432   5.263  0.1047 -0.5728 -0.4377
11943TIP3    H157244   4.490   1.433   5.269  0.2013 -0.0997 -1.7411
11943TIP3    H257245   4.376   1.443   5.170 -1.2337  1.8111  0.0106
11944TIP3   OH257246   4.243   6.335   4.095 -0.0685  0.2275 -0.0641
11944TIP3    H157247   4.267   6.413   4.045 -1.6343 -0.0628 -1.3517
11944TIP3    H257248   4.299   6.266   4.061 -0.9779  0.0796 -1.3386
11945TIP3   OH257249   4.709   0.065   3.446 -0.0043  0.4765  0.0800
11945TIP3    H157250   4.746   0.108   3.522 -1.6905  1.2541  0.5094
11945TIP3    H257251   4.680  -0.020   3.478  0.2633  0.3693  0.0401
11946TIP3   OH257252   2.834   4.463  11.711 -0.9999 -0.4113  0.1159
11946TIP3    H157253   2.822   4.384  11.659 -0.7235  2.1664 -4.4439
11946TIP3    H257254   2.929   4.474  11.717 -1.0338 -0.4453  0.8791
11947TIP3   OH257255   5.002   3.118   5.415  0.0389  0.0102 -0.1657
11947TIP3    H157256   5.046   3.035   5.399 -0.0965 -0.0780 -0.0751
11947TIP3    H257257   4.998   3.160   5.328  1.6561  0.6954  0.0470
11948TIP3   OH257258   2.252   0.694  17.141 -0.0732 -0.2113  0.0203
11948TIP3    H157259   2.221   0.742  17.064  0.2514 -0.0377 -0.0050
11948TIP3    H257260   2.339   0.661  17.115  0.0754 -0.0773  0.3398
11949TIP3   OH257261   5.877   5.769   4.854  0.2174 -0.4779 -0.3677
11949TIP3    H157262   5.915   5.695   4.807 -1.4402 -0.6792 -1.4763
11949TIP3    H257263   5.929   5.845   4.825  0.9445 -0.9749 -0.3963
11950TIP3   OH257264   3.838   2.041  10.936 -0.3900 -0.4459 -0.0067
11950TIP3    H157265   3.833   2.088  10.853  0.2000 -2.3320 -1.1645
11950TIP3    H257266   3.780   2.090  10.995 -0.3617  1.2763 -1.3193
11951TIP3   OH257267   3.412   3.328  12.748  0.3446 -0.1078 -1.3394
11951TIP3    H157268   3.411   3.401  12.810 -0.7079 -0.9156 -0.3435
11951TIP3    H257269   3.467   3.262  12.791 -2.6992 -1.8351  0.2716
11952TIP3   OH257270   3.428   3.553   5.458  0.6323 -0.1161 -0.0222
11952TIP3    H157271   3.399   3.494   5.389 -1.1286 -0.5540  1.0195
11952TIP3    H257272   3.351   3.606   5.478  2.1293  2.5300 -0.8598
11953TIP3   OH257273   6.621   5.792   1.656 -0.0189 -0.0019  0.3828
11953TIP3    H157274   6.543   5.840   1.628 -0.4432 -1.5972 -1.3978
11953TIP3    H257275   6.689   5.817   1.594  0.3864 -0.0097  0.8179
11954TIP3   OH257276   0.902   2.024   0.396  0.6861 -0.0387  0.1853
11954TIP3    H157277   0.923   1.931   0.400 -1.3760 -0.5025  1.4615
11954TIP3    H257278   0.939   2.060   0.476  1.1893  0.2004 -0.1463
11955TIP3   OH257279   0.374   6.098   4.811 -0.3058 -0.3108 -0.1796
11955TIP3    H157280   0.387   6.157   4.737  0.0441 -2.7678 -2.2380
11955TIP3    H257281   0.462   6.078   4.842 -0.1588 -2.1245 -1.5964
11956TIP3   OH257282   4.417   4.026   4.390  0.3536 -0.2175 -0.0627
11956TIP3    H157283   4.509   4.035   4.368  0.9076 -1.7888  1.3485
11956TIP3    H257284   4.376   3.990   4.311  0.8043  1.0365 -0.8875
11957TIP3   OH257285   5.217   3.395  11.374 -0.5153 -0.1937 -0.0063
11957TIP3    H157286   5.236   3.405  11.467  1.3378 -2.7862  0.0096
11957TIP3    H257287   5.131   3.352  11.372 -1.5813  1.7865  0.3416
11958TIP3   OH257288   2.903   0.712  12.725  0.1083  0.3533 -0.1928
11958TIP3    H157289   2.996   0.694  12.730  0.1532  0.9079  1.8097
11958TIP3    H257290   2.892   0.798  12.766 -1.3282  0.0321  0.1791
11959TIP3   OH257291   0.740   3.475   0.276 -0.1384  0.2703 -0.7034
11959TIP3    H157292   0.758   3.381   0.278  0.2116  0.3436 -0.0078
11959TIP3    H257293   0.777   3.505   0.194 -0.1147 -0.1719 -0.8592
11960TIP3   OH257294   2.285   2.740  16.375 -0.5112  0.2741 -0.2425
11960TIP3    H157295   2.213   2.703  16.324  0.3951 -1.1838 -0.5144
11960TIP3    H257296   2.275   2.834  16.366  0.1357  0.1272 -3.9270
11961TIP3   OH257297   3.404   0.426  11.123 -0.2676 -0.8945  1.0851
11961TIP3    H157298   3.433   0.335  11.117 -0.1648 -0.7449 -1.4868
11961TIP3    H257299   3.347   0.439  11.048  0.1097  1.3078  1.1061
11962TIP3   OH257300   1.094   1.609  13.570 -0.0084 -0.2732  0.4565
11962TIP3    H157301   1.083   1.641  13.659 -0.2811  0.3530  0.2032
11962TIP3    H257302   1.028   1.657  13.519  0.9935  0.3311 -0.3083
11963TIP3   OH257303   0.740   0.648  12.994 -0.0214 -0.4567  0.2537
11963TIP3    H157304   0.697   0.670  13.077 -2.1464 -4.3517  0.4093
11963TIP3    H257305   0.801   0.579  13.016 -0.4701 -1.4264 -1.3671
11964TIP3   OH257306   2.846   6.591   0.308 -0.5699  0.0737  0.8011
11964TIP3    H157307   2.832   6.683   0.330 -2.6265  0.4690 -1.6798
11964TIP3    H257308   2.889   6.593   0.222 -1.4224 -1.2635  0.3112
11965TIP3   OH257309   4.207   3.006   2.921  0.2937 -0.9068 -0.5047
11965TIP3    H157310   4.149   2.949   2.872 -0.3133 -0.1604 -0.6790
11965TIP3    H257311   4.277   3.027   2.859  1.0490 -2.2184 -0.1291
11966TIP3   OH257312   5.749   0.611  12.609 -0.4513  0.3451  0.4889
11966TIP3    H157313   5.681   0.636  12.546  1.1371  1.0537 -1.0369
11966TIP3    H257314   5.755   0.686  12.668  1.3249  1.8798 -1.4835
11967TIP3   OH257315   0.136   6.416  16.786  0.1537  0.3283  0.2235
11967TIP3    H157316   0.168   6.368  16.710  0.0538 -0.1697  0.4922
11967TIP3    H257317   0.055   6.370  16.811  0.5874  0.0203  1.0943
11968TIP3   OH257318   5.160   0.431  16.580  0.5912 -0.0241  0.7651
11968TIP3    H157319   5.173   0.355  16.523  3.3969  0.6216  0.3686
11968TIP3    H257320   5.116   0.495  16.524  1.3401 -0.1705 -0.0268
11969TIP3   OH257321   5.691   5.986  11.065  0.1669 -0.2215 -0.1813
11969TIP3    H157322   5.722   5.977  10.975 -0.6225 -0.5519 -0.4319
11969TIP3    H257323   5.637   6.065  11.064  0.0135 -0.3216 -0.0516
11970TIP3   OH257324   1.614   3.861  12.478 -0.4142  0.1370 -0.0975
11970TIP3    H157325   1.582   3.866  12.568 -0.3425 -1.5119  0.0494
11970TIP3    H257326   1.564   3.790  12.438  0.0101  0.4150 -1.1654
11971TIP3   OH257327   0.875   5.916  13.639  0.4012  0.3631 -0.0696
11971TIP3    H157328   0.939   5.909  13.569 -0.1469 -0.5429 -0.5040
11971TIP3    H257329   0.821   5.992  13.615  2.2921  2.2163  1.1759
11972TIP3   OH257330   3.525   3.444   5.996 -0.2409 -0.8089  0.6760
11972TIP3    H157331   3.577   3.445   6.077 -1.1148 -1.0466  1.2590
11972TIP3    H257332   3.467   3.520   6.005  0.2557 -0.3271 -0.1418
11973TIP3   OH257333   5.153   1.956  10.777 -0.0325 -0.0099  0.1656
11973TIP3    H157334   5.219   2.021  10.753 -0.9744  0.0493 -2.5435
11973TIP3    H257335   5.070   2.001  10.765 -0.6889 -1.5417 -1.3227
11974TIP3   OH257336   4.135   6.005  12.682  0.8038 -0.2576 -0.5727
11974TIP3    H157337   4.089   5.963  12.754  0.3560 -0.9522 -1.2414
11974TIP3    H257338   4.120   6.099  12.694 -2.1740 -0.4897 -1.6382
11975TIP3   OH257339   5.369   0.863   4.673 -0.6173 -0.0942  0.7346
11975TIP3    H157340   5.342   0.852   4.582 -1.4708  0.6477  0.8810
11975TIP3    H257341   5.351   0.779   4.715  1.4548 -1.0567 -0.1493
11976TIP3   OH257342   3.653   0.645  12.917  0.2046 -0.1749 -0.1082
11976TIP3    H157343   3.599   0.717  12.885  0.8855  0.0579 -0.7561
11976TIP3    H257344   3.726   0.641  12.856  1.5276  0.2651  1.3922
11977TIP3   OH257345   3.325   5.745   1.391 -0.1216 -0.6794  0.0803
11977TIP3    H157346   3.236   5.712   1.400 -0.5005  0.4659  0.6027
11977TIP3    H257347   3.317   5.826   1.341  0.7317 -1.0275 -0.6512
11978TIP3   OH257348   5.229   1.123  14.808 -0.0923 -1.0855 -0.3144
11978TIP3    H157349   5.293   1.183  14.845 -0.8346 -0.3770 -0.1606
11978TIP3    H257350   5.239   1.043  14.859 -0.5473 -0.3907  0.8828
11979TIP3   OH257351   1.590   5.947   3.756 -0.2349 -0.2679 -0.0182
11979TIP3    H157352   1.597   5.965   3.849 -0.2549 -0.5123  0.0287
11979TIP3    H257353   1.498   5.964   3.735 -0.9066 -2.8726  0.5575
11980TIP3   OH257354   4.206   5.616  12.838 -0.3560 -0.5768 -0.1716
11980TIP3    H157355   4.151   5.642  12.763  1.2579 -1.3505 -1.6929
11980TIP3    H257356   4.276   5.680  12.840  1.1361 -2.1079 -1.1020
11981TIP3   OH257357   2.329   4.366   6.027  0.7213 -0.3592 -0.3190
11981TIP3    H157358   2.357   4.458   6.023  0.6749 -0.3022  0.5861
11981TIP3    H257359   2.358   4.336   6.113 -1.0211 -0.6241  0.2025
11982TIP3   OH257360   4.392   1.010  11.104  0.6135 -0.1878  0.3205
11982TIP3    H157361   4.388   0.991  11.197  0.5198 -0.4833  0.2589
11982TIP3    H257362   4.307   0.982  11.070  0.4739  0.3418  0.2209
11983TIP3   OH257363   3.002   4.817   0.737  0.1661  0.0144 -0.3595
11983TIP3    H157364   3.073   4.860   0.690  1.2161 -0.2522  0.9338
11983TIP3    H257365   3.032   4.814   0.828 -2.2310  1.4500  0.5622
11984TIP3   OH257366   3.271   4.301   4.564  0.0716 -0.1148  0.4882
11984TIP3    H157367   3.279   4.207   4.581  0.4339 -0.1146  0.3286
11984TIP3    H257368   3.341   4.341   4.614  0.5598 -0.0275 -0.2463
11985TIP3   OH257369   2.882   1.120   1.851 -0.1648 -0.0225  0.0193
11985TIP3    H157370   2.874   1.084   1.763  0.8635  0.1347 -0.1538
11985TIP3    H257371   2.832   1.202   1.848 -0.5187 -0.2465 -0.2801
11986TIP3   OH257372   3.720   6.135   3.275 -0.5269 -0.0453  0.4322
11986TIP3    H157373   3.762   6.054   3.248 -0.9597  0.1867 -1.0101
11986TIP3    H257374   3.774   6.166   3.348  1.0126 -0.4605 -0.4752
11987TIP3   OH257375   1.829   0.346   5.330 -0.1643 -0.0964  0.5045
11987TIP3    H157376   1.840   0.428   5.281 -1.7598 -0.2232 -0.1121
11987TIP3    H257377   1.792   0.374   5.414 -0.0808 -0.1291  0.5521
11988TIP3   OH257378   3.919   1.882   4.599  0.0864  0.1101  0.0963
11988TIP3    H157379   3.908   1.811   4.662 -0.2176  0.8513  0.9150
11988TIP3    H257380   3.876   1.957   4.641 -0.7547  0.4544 -1.3161
11989TIP3   OH257381   0.844   4.967   5.509  0.1304 -0.4592  0.0412
11989TIP3    H157382   0.799   4.898   5.459 -1.5937  0.0135  0.8720
11989TIP3    H257383   0.932   4.969   5.472 -0.4651 -1.5330 -1.5745
11990TIP3   OH257384   1.579   3.334   2.610  0.0742 -0.3219 -0.5764
11990TIP3    H157385   1.499   3.387   2.617 -0.8750 -1.6995 -0.7300
11990TIP3    H257386   1.548   3.244   2.606  1.7857 -1.2162  2.9931
11991TIP3   OH257387   3.678   3.585   3.936  0.0291  0.3273 -0.0654
11991TIP3    H157388   3.607   3.535   3.976  0.3470  0.3277  0.5005
11991TIP3    H257389   3.704   3.532   3.860  0.5379 -0.5030  0.6715
11992TIP3   OH257390   6.222   4.662  13.354  0.1923 -0.2953 -0.4564
11992TIP3    H157391   6.284   4.615  13.298 -0.1198 -0.5358 -0.6004
11992TIP3    H257392   6.205   4.744  13.306 -0.7239 -0.8672 -1.1357
11993TIP3   OH257393   2.806   1.527  16.483 -0.3101  0.6776 -0.1300
11993TIP3    H157394   2.738   1.534  16.416 -1.6814  1.8931  1.3202
11993TIP3    H257395   2.778   1.585  16.553  1.3600 -0.1147  1.2904
11994TIP3   OH257396   1.561   5.617  13.485 -0.5226  0.2597 -0.4093
11994TIP3    H157397   1.478   5.629  13.439 -1.1751  1.4808  0.9828
11994TIP3    H257398   1.608   5.700  13.473 -0.4861  0.4088  0.6607
11995TIP3   OH257399   6.324   5.692   3.264  0.7836 -0.4424 -0.4341
11995TIP3    H157400   6.362   5.769   3.305  0.2844 -0.1352 -0.5440
11995TIP3    H257401   6.354   5.695   3.173 -1.3415  1.0815 -1.1661
11996TIP3   OH257402   3.577   2.602   5.804  0.1985  0.0735 -0.6539
11996TIP3    H157403   3.498   2.571   5.848 -0.7257  2.1072 -0.7482
11996TIP3    H257404   3.619   2.523   5.771 -2.3549 -1.0247 -1.5340
11997TIP3   OH257405   4.099   5.842   4.671  0.2394 -0.4882  0.3152
11997TIP3    H157406   4.121   5.875   4.758  1.6541 -0.5759  0.0130
11997TIP3    H257407   4.023   5.893   4.644 -0.7980 -1.0949  1.9651
11998TIP3   OH257408   0.720   1.201  11.874 -0.3411  0.5496 -0.1191
11998TIP3    H157409   0.637   1.232  11.909  0.4753  0.6226  1.8356
11998TIP3    H257410   0.721   1.107  11.892 -0.3866  0.3632 -1.0075
11999TIP3   OH257411   1.013   2.398   4.489 -0.8748 -0.3824 -0.2596
11999TIP3    H157412   0.918   2.383   4.494 -0.7071 -2.0560 -1.1685
11999TIP3    H257413   1.030   2.417   4.397 -0.3546  0.2261 -0.0451
12000TIP3   OH257414   1.805   3.033  14.608 -0.3825  0.1589  0.1831
12000TIP3    H157415   1.735   3.048  14.544  1.1934  2.9168 -1.0713
12000TIP3    H257416   1.886   3.048  14.559  0.9832  0.4708  2.3930
12001TIP3   OH257417   4.397   5.041  15.150 -0.5913 -0.0767 -0.2644
12001TIP3    H157418   4.431   5.029  15.238  0.3768 -2.4999 -0.8712
12001TIP3    H257419   4.314   4.994  15.150 -0.9357  0.5280 -0.4575
12002TIP3   OH257420   6.431   0.367  14.117 -0.3468  0.0637  0.3425
12002TIP3    H157421   6.346   0.352  14.159  0.0865  1.2926  1.7033
12002TIP3    H257422   6.414   0.349  14.024 -1.6666 -1.3343  0.8080
12003TIP3   OH257423   2.097   2.727  17.018 -0.5039  0.5522  0.4873
12003TIP3    H157424   2.024   2.666  17.006 -1.0520  1.7256 -3.7602
12003TIP3    H257425   2.056   2.813  17.027  0.2616  1.1154 -1.0298
12004TIP3   OH257426   3.427   6.044   4.547 -0.3440 -0.1777 -0.1843
12004TIP3    H157427   3.451   5.974   4.607  0.2603  1.2952  1.3660
12004TIP3    H257428   3.445   6.008   4.460  1.0048 -1.5411  0.6100
12005TIP3   OH257429   4.232   6.014  16.032  0.3947 -0.1632 -0.5476
12005TIP3    H157430   4.247   6.035  16.124 -0.2173 -1.5452 -0.0970
12005TIP3    H257431   4.165   6.076  16.003  0.0071 -0.2253  0.1830
12006TIP3   OH257432   1.422   1.011  16.525  0.4602  0.3547 -0.2520
12006TIP3    H157433   1.490   1.033  16.588 -0.2212  0.1119  0.5956
12006TIP3    H257434   1.373   1.093  16.514  0.9546  0.5633 -0.9568
12007TIP3   OH257435   1.816   3.013  12.568 -0.4718  0.1245  0.0544
12007TIP3    H157436   1.882   2.998  12.501 -0.4495 -1.7400  0.4329
12007TIP3    H257437   1.858   3.073  12.630  0.0627  0.6519 -0.8022
12008TIP3   OH257438   3.208   1.055  14.983  0.1473 -0.0208  0.0541
12008TIP3    H157439   3.162   1.135  15.008  0.4394 -0.1533  1.0762
12008TIP3    H257440   3.249   1.025  15.064  0.3787 -0.9872 -0.4048
12009TIP3   OH257441   6.354   5.290  14.067  0.6419  0.1818 -0.7566
12009TIP3    H157442   6.277   5.238  14.041  0.5301  0.9212 -1.9886
12009TIP3    H257443   6.414   5.282  13.993  0.2928  2.4229 -1.3373
12010TIP3   OH257444   5.637   1.118   5.106  0.3394 -0.2394  0.1284
12010TIP3    H157445   5.557   1.161   5.074 -0.5634 -1.4968  0.6321
12010TIP3    H257446   5.656   1.051   5.041 -0.9423 -2.1448  1.5872
12011TIP3   OH257447   1.464   4.339   1.543  0.1608 -0.0741 -0.0473
12011TIP3    H157448   1.495   4.277   1.476  2.6227  0.9797  0.0238
12011TIP3    H257449   1.443   4.284   1.618 -0.6953 -1.0712 -0.9688
12012TIP3   OH257450   3.193   2.133   0.953  0.5917  0.1656 -0.4658
12012TIP3    H157451   3.139   2.063   0.915 -0.8406  0.4718  0.9136
12012TIP3    H257452   3.269   2.087   0.990  0.3899 -0.4797 -0.8391
12013TIP3   OH257453   6.145   6.655  14.020 -0.6089 -0.3729 -0.3434
12013TIP3    H157454   6.166   6.564  13.996 -1.1242 -0.6398  0.2111
12013TIP3    H257455   6.109   6.649  14.108 -0.3881  0.4081 -0.1932
12014TIP3   OH257456   1.355   3.803   0.560 -0.3560  0.2214  0.2535
12014TIP3    H157457   1.415   3.870   0.593 -0.4791 -0.5455  2.1672
12014TIP3    H257458   1.290   3.852   0.509  0.3556  1.3728  0.4022
12015TIP3   OH257459   4.884   3.055  14.673 -0.3188  0.0390  0.0684
12015TIP3    H157460   4.961   3.000  14.686 -0.4424  0.0016  0.7132
12015TIP3    H257461   4.825   3.029  14.744 -1.1229 -0.2762 -0.6965
12016TIP3   OH257462   2.547   6.752  13.262 -0.1180  0.0275 -0.2087
12016TIP3    H157463   2.579   6.782  13.177 -1.0675 -0.8104 -0.8953
12016TIP3    H257464   2.586   6.665  13.273  1.0029  0.6345  0.8185
12017TIP3   OH257465   5.718   5.393  17.026 -0.3423  0.1925 -0.1988
12017TIP3    H157466   5.688   5.421  16.940 -0.6431  0.8937  0.1200
12017TIP3    H257467   5.745   5.302  17.014  0.5467  0.5730 -1.2495
12018TIP3   OH257468   2.732   4.282   2.718 -0.1177 -0.0271  0.2865
12018TIP3    H157469   2.735   4.365   2.672  1.1282 -1.3077 -2.0983
12018TIP3    H257470   2.822   4.263   2.742 -0.2203 -1.1723 -0.1467
12019TIP3   OH257471   0.854   3.198   0.878  0.0529  0.0060 -0.0919
12019TIP3    H157472   0.935   3.210   0.829 -0.4883  1.1085 -0.7323
12019TIP3    H257473   0.840   3.281   0.922 -0.4796 -0.3466  0.4140
12020TIP3   OH257474   1.582   3.989   6.802  0.6600  0.3601  0.2111
12020TIP3    H157475   1.611   3.915   6.855  1.3972 -0.4912 -1.3159
12020TIP3    H257476   1.568   3.952   6.715  0.3180  1.8768 -0.4063
12021TIP3   OH257477   6.437   5.941  13.863  0.1187  0.1067 -0.3912
12021TIP3    H157478   6.491   5.931  13.785 -0.2497  0.4217 -0.6926
12021TIP3    H257479   6.372   5.871  13.857 -0.6655  0.8610 -1.0069
12022TIP3   OH257480   3.166   4.220  14.032 -0.6497  0.5993  0.5512
12022TIP3    H157481   3.158   4.301  13.983  0.6513  1.7804  2.2070
12022TIP3    H257482   3.083   4.212  14.078 -1.0147  0.6413 -0.0803
12023TIP3   OH257483   5.775   4.347   3.858  0.2606 -0.2387 -0.5570
12023TIP3    H157484   5.845   4.327   3.795 -0.5591  1.6851 -2.2057
12023TIP3    H257485   5.695   4.316   3.816 -0.2157  0.3122 -0.0771
12024TIP3   OH257486   1.063   0.988   4.526 -0.3522 -0.1194 -0.0597
12024TIP3    H157487   1.157   0.974   4.534 -0.2669  0.5499  0.2634
12024TIP3    H257488   1.029   0.907   4.489  0.2455 -0.6596  0.5501
12025TIP3   OH257489   1.884   5.504  12.699 -0.7391 -0.3893  0.3014
12025TIP3    H157490   1.826   5.449  12.752  1.5216 -0.5753  2.7851
12025TIP3    H257491   1.911   5.446  12.627 -2.3413 -0.7892 -0.0252
12026TIP3   OH257492   3.437   6.637   0.123  0.1975  0.2816 -0.4208
12026TIP3    H157493   3.400   6.697   0.058 -0.9054  0.4106  0.2951
12026TIP3    H257494   3.447   6.554   0.077  0.5285  0.6699 -1.0635
12027TIP3   OH257495   0.206   4.770  13.833  0.4328  0.2319  0.5347
12027TIP3    H157496   0.260   4.825  13.890  1.2252 -1.3078  1.3200
12027TIP3    H257497   0.186   4.693  13.886 -1.4353  0.1665 -0.2218
12028TIP3   OH257498   6.667   1.215   3.213  0.0447 -0.3980 -0.7831
12028TIP3    H157499   6.691   1.122   3.214 -1.0121 -0.7309  1.5722
12028TIP3    H257500   6.608   1.224   3.139 -1.3905 -2.1145  0.0507
12029TIP3   OH257501   4.541   3.067   2.139  0.8865 -0.5161 -0.1600
12029TIP3    H157502   4.588   3.138   2.097 -1.2070  0.2577 -1.3777
12029TIP3    H257503   4.520   3.100   2.226  1.9127 -0.5885  0.1261
12030TIP3   OH257504   3.909   1.609   3.020 -0.8092 -0.5406  0.5747
12030TIP3    H157505   3.840   1.620   2.955  1.4931  2.2797 -1.6920
12030TIP3    H257506   3.931   1.698   3.047  1.5940 -1.3352  1.5438
12031TIP3   OH257507   5.885   1.247   3.371  0.0129  0.0896 -0.2390
12031TIP3    H157508   5.911   1.161   3.406  1.2096  0.3516 -0.4544
12031TIP3    H257509   5.829   1.225   3.296  1.8862 -0.5674 -1.5107
12032TIP3   OH257510   1.366   1.963  15.002  0.4668 -0.7978 -0.6087
12032TIP3    H157511   1.292   1.996  14.951  2.1268  4.0270 -0.4781
12032TIP3    H257512   1.421   1.919  14.939 -1.8870 -3.6510 -0.8785
12033TIP3   OH257513   3.789   1.693   1.452  0.3684  0.1078  0.0177
12033TIP3    H157514   3.723   1.632   1.484 -0.7157  0.3034 -1.7125
12033TIP3    H257515   3.739   1.764   1.412  1.5671 -0.1982 -2.1934
12034TIP3   OH257516   5.326   5.013  15.037 -0.0434 -0.2512  0.3382
12034TIP3    H157517   5.243   4.984  15.075 -1.1966  1.7617 -0.4912
12034TIP3    H257518   5.368   5.063  15.107  0.3268 -0.9565  0.6340
12035TIP3   OH257519   4.071   1.340  15.306  0.2119  0.0609 -0.0856
12035TIP3    H157520   4.038   1.355  15.217  1.4832 -0.4441 -0.6732
12035TIP3    H257521   4.158   1.379  15.306  0.3239 -0.1759  0.8634
12036TIP3   OH257522   0.416   5.232  16.594 -0.3235  0.1850  0.2894
12036TIP3    H157523   0.412   5.312  16.646  0.0911  0.4293 -0.0449
12036TIP3    H257524   0.328   5.223  16.557 -0.4444  0.3415  0.5383
12037TIP3   OH257525   6.205   2.156   5.739 -0.0668  0.3165 -0.0518
12037TIP3    H157526   6.292   2.116   5.740  0.0051  0.4111 -1.1063
12037TIP3    H257527   6.221   2.250   5.739 -0.1882  0.3402  0.3198
12038TIP3   OH257528   1.066   4.278   4.096 -0.7743  0.1294  0.6763
12038TIP3    H157529   1.096   4.365   4.124  1.1184 -0.3003  0.1835
12038TIP3    H257530   0.980   4.293   4.058 -0.5112  1.7936  0.6584
12039TIP3   OH257531   5.306   5.161  14.397  0.5857 -0.0725  0.4317
12039TIP3    H157532   5.219   5.126  14.417  0.1489  0.8311  0.1996
12039TIP3    H257533   5.362   5.128  14.466  0.2143 -1.2536  0.1907
12040TIP3   OH257534   6.082   2.569   3.326 -0.0315 -0.0313  0.3696
12040TIP3    H157535   5.992   2.573   3.361  0.2317  0.8562  0.9682
12040TIP3    H257536   6.126   2.505   3.382 -0.0546  0.1938  0.6503
12041TIP3   OH257537   4.105   3.786   5.591  0.4026 -0.0448 -0.0966
12041TIP3    H157538   4.200   3.784   5.595  0.5232  1.4005 -1.2522
12041TIP3    H257539   4.080   3.699   5.560  1.3542 -0.3754  0.0466
12042TIP3   OH257540   3.313   4.943   5.426  0.5518  0.4906 -0.1673
12042TIP3    H157541   3.232   4.990   5.445  0.6102  0.0562  1.2801
12042TIP3    H257542   3.345   4.982   5.344 -0.0118  2.1527  0.3632
12043TIP3   OH257543   0.309   0.089  12.332  0.0535 -0.0981 -0.2789
12043TIP3    H157544   0.230   0.075  12.280  0.6305 -0.1566 -1.1704
12043TIP3    H257545   0.309   0.182  12.351  0.2495  0.0806 -1.1040
12044TIP3   OH257546   4.528   1.594   4.609 -0.3912  0.3081  0.1505
12044TIP3    H157547   4.544   1.500   4.621 -0.8215  0.3306  0.9058
12044TIP3    H257548   4.478   1.599   4.528  1.7007  0.0851 -1.2441
12045TIP3   OH257549   0.223   4.548   0.191  0.1410 -0.6877 -0.1677
12045TIP3    H157550   0.161   4.503   0.133  0.6870 -1.4578 -0.1604
12045TIP3    H257551   0.299   4.566   0.136 -0.9186  2.3155 -0.8224
12046TIP3   OH257552   5.685   3.979   0.220 -0.0463  0.1344 -0.2027
12046TIP3    H157553   5.768   4.006   0.258 -1.8997  2.6825  2.4791
12046TIP3    H257554   5.690   4.006   0.129  2.5243 -1.1378 -0.5289
12047TIP3   OH257555   4.542   1.587   1.455 -0.3409 -0.0641  0.3724
12047TIP3    H157556   4.546   1.529   1.378  1.1410  0.5749 -0.0543
12047TIP3    H257557   4.573   1.671   1.423 -0.9992  0.5693  1.3705
12048TIP3   OH257558   6.736   0.674  15.285  0.0858  0.7423  0.1654
12048TIP3    H157559   6.667   0.684  15.350 -0.7641  1.9779 -0.8785
12048TIP3    H257560   6.731   0.753  15.232  2.5989  1.0807  0.3044
12049TIP3   OH257561   4.026   6.101  16.435 -0.2017  0.4364 -0.2097
12049TIP3    H157562   3.964   6.063  16.496 -2.2916  0.9039 -1.9246
12049TIP3    H257563   3.977   6.113  16.354  2.4074 -0.0989 -2.0124
12050TIP3   OH257564   1.502   1.056   3.702 -0.0087  0.2123 -0.3371
12050TIP3    H157565   1.539   1.084   3.786 -0.9160  0.1022  0.1144
12050TIP3    H257566   1.408   1.068   3.713 -0.4404 -2.6673 -0.2328
12051TIP3   OH257567   3.877   5.271   3.528 -0.3865 -0.7862 -0.2631
12051TIP3    H157568   3.784   5.278   3.548 -0.1585  0.2619  0.5432
12051TIP3    H257569   3.913   5.217   3.599 -0.0677  0.4507  0.5381
12052TIP3   OH257570   6.347   0.014   4.762  0.2547  0.3122 -0.2474
12052TIP3    H157571   6.277   0.023   4.697 -0.1556  0.4145  0.2067
12052TIP3    H257572   6.312  -0.047   4.827 -0.4382  2.3052  1.3512
12053TIP3   OH257573   1.414   6.708   4.017 -0.2933  0.0113  0.1408
12053TIP3    H157574   1.484   6.643   4.016  1.1010  1.4528 -0.1354
12053TIP3    H257575   1.448   6.780   4.070 -1.9734  0.3571  0.8178
12054TIP3   OH257576   5.936   1.764   0.083  0.1689 -0.6817  0.3705
12054TIP3    H157577   5.981   1.840   0.119 -0.2815  0.1933 -0.8351
12054TIP3    H257578   5.910   1.713   0.159  0.7135  0.2390  1.1965
12055TIP3   OH257579   1.296   1.290  14.880  0.3739  0.6057 -0.4416
12055TIP3    H157580   1.363   1.223  14.891  1.6794  1.8118 -0.7100
12055TIP3    H257581   1.291   1.333  14.965  0.6946  1.1817 -0.7095
12056TIP3   OH257582   1.087   1.582   1.203  0.0504  0.5616  0.0926
12056TIP3    H157583   1.157   1.569   1.267  0.2538 -0.0541 -0.2559
12056TIP3    H257584   1.007   1.563   1.251  0.1885  0.2868  0.2122
12057TIP3   OH257585   4.397   2.155  16.719  0.2409 -0.9777 -0.6166
12057TIP3    H157586   4.463   2.193  16.777 -0.5138 -0.0357 -0.3538
12057TIP3    H257587   4.325   2.217  16.721  1.1339  0.4684 -4.5237
12058TIP3   OH257588   1.179   0.032   5.048  0.1119  0.4152  0.0216
12058TIP3    H157589   1.253   0.079   5.085  1.6454 -1.5210 -0.4275
12058TIP3    H257590   1.206  -0.060   5.049 -2.0966 -0.3076 -0.6132
12059TIP3   OH257591   0.041   0.252   1.283  0.0377  0.4112  0.3466
12059TIP3    H157592   0.084   0.314   1.343  0.1184  1.2351 -0.5404
12059TIP3    H257593   0.037   0.298   1.200  1.6992 -1.4291 -0.8356
12060TIP3   OH257594   4.988   6.687   1.803 -0.3525  0.2757  0.3781
12060TIP3    H157595   5.045   6.626   1.758  0.2523  0.2724  1.1400
12060TIP3    H257596   5.037   6.714   1.881 -1.4385  0.1522  1.1280
12061TIP3   OH257597   2.627   6.607   3.069 -0.4436 -0.0643 -0.3549
12061TIP3    H157598   2.716   6.591   3.100 -0.9859  1.7522  2.5259
12061TIP3    H257599   2.623   6.702   3.056 -2.3174  0.0934  0.9862
12062TIP3   OH257600   0.432   3.514   5.813  0.5022 -0.3741 -0.1848
12062TIP3    H157601   0.441   3.444   5.878  3.1446  0.8311  0.8998
12062TIP3    H257602   0.521   3.528   5.780 -0.3538  0.8496 -2.1660
12063TIP3   OH257603   6.498   6.201   5.593 -0.0136 -0.0738  0.0525
12063TIP3    H157604   6.424   6.174   5.647  0.8134 -1.3719  0.5831
12063TIP3    H257605   6.517   6.290   5.621  0.3718 -0.7047  1.9018
12064TIP3   OH257606   2.811   5.987   2.495 -0.5545  0.4750 -0.6280
12064TIP3    H157607   2.722   5.952   2.492 -0.0971 -0.7135 -0.9319
12064TIP3    H257608   2.867   5.911   2.481  0.5006  1.2930 -0.9817
12065TIP3   OH257609   6.264   4.861  15.196 -0.0191 -0.4598 -0.2131
12065TIP3    H157610   6.346   4.893  15.232  0.8345 -1.4773 -1.1687
12065TIP3    H257611   6.262   4.894  15.106 -1.1274  0.3374  0.0740
12066TIP3   OH257612   0.080   2.217   1.034 -0.2362 -0.7136  0.7725
12066TIP3    H157613  -0.004   2.171   1.030 -0.1357 -0.8261 -0.1584
12066TIP3    H257614   0.119   2.203   0.948  0.8050 -0.7820  1.2408
12067TIP3   OH257615   5.681   3.919  15.405 -0.3514  0.3660 -0.1497
12067TIP3    H157616   5.692   3.875  15.489 -0.0082 -1.0788 -0.9033
12067TIP3    H257617   5.672   4.012  15.426 -1.0633 -0.0544  1.5180
12068TIP3   OH257618   0.640   0.756   3.582 -0.4119 -0.6584 -0.1792
12068TIP3    H157619   0.648   0.758   3.677 -1.6747  1.6927 -0.0589
12068TIP3    H257620   0.570   0.693   3.565 -0.8103 -0.4091  0.5131
12069TIP3   OH257621   5.492   2.341   2.500  0.0302 -0.2944  0.1014
12069TIP3    H157622   5.577   2.322   2.461  0.1270  1.6317 -0.7589
12069TIP3    H257623   5.429   2.316   2.433  0.0663  0.6172 -0.2851
12070TIP3   OH257624   2.909   3.714   4.041 -0.1731  0.2031  0.0562
12070TIP3    H157625   2.882   3.804   4.020  0.4115  0.5206  0.6323
12070TIP3    H257626   2.828   3.671   4.071  0.0285  1.3694  2.5360
12071TIP3   OH257627   5.850   3.858   3.329 -0.2180 -0.2886 -0.3346
12071TIP3    H157628   5.841   3.951   3.354  0.0674 -0.3173 -0.1218
12071TIP3    H257629   5.928   3.856   3.274 -0.3182 -0.3794 -0.4740
12072TIP3   OH257630   6.213   0.224  16.449 -0.4963 -0.1208  0.7551
12072TIP3    H157631   6.142   0.273  16.490 -0.1515  0.2398  0.9137
12072TIP3    H257632   6.227   0.149  16.507 -0.3092  0.1524  1.0633
12073TIP3   OH257633   3.988   4.657   2.039  0.4425  0.6401  0.3092
12073TIP3    H157634   3.946   4.667   2.124  1.7480  1.2959  0.9027
12073TIP3    H257635   3.990   4.562   2.024 -1.2620  0.5887  0.2213
12074TIP3   OH257636   3.180   0.538  16.993 -0.6282 -0.2531  0.4865
12074TIP3    H157637   3.244   0.506  16.930 -0.3162  1.1363  0.0700
12074TIP3    H257638   3.097   0.497  16.968 -0.1656 -1.0666  0.2595
12075TIP3   OH257639   3.250   1.971   4.227  0.2020  0.6406 -0.1956
12075TIP3    H157640   3.163   1.941   4.254  0.4632 -0.0875 -0.1472
12075TIP3    H257641   3.306   1.894   4.235  0.7509  0.9756 -0.7115
12076TIP3   OH257642   1.751   1.227  11.649 -0.4238  0.1475  0.2402
12076TIP3    H157643   1.774   1.153  11.593  0.6703  0.0735  0.7555
12076TIP3    H257644   1.675   1.197  11.699 -0.7966 -0.1409 -0.4876
12077TIP3   OH257645   1.919   1.505   5.195  0.1607 -0.0488  0.5580
12077TIP3    H157646   1.919   1.475   5.286 -1.1811 -1.0757  0.2492
12077TIP3    H257647   1.841   1.561   5.189  0.4092  0.2582  0.0995
12078TIP3   OH257648   2.269   0.310   0.459  0.1842  0.0424  0.7687
12078TIP3    H157649   2.250   0.231   0.408  0.3575 -0.2147  1.1046
12078TIP3    H257650   2.240   0.382   0.402  0.6506 -0.2264  0.1866
12079TIP3   OH257651   3.552   3.035   3.566 -0.3138 -0.2220 -0.7194
12079TIP3    H157652   3.585   2.972   3.501  0.4079  0.2159 -0.7780
12079TIP3    H257653   3.570   2.993   3.650  0.7730  0.1967 -0.7381
12080TIP3   OH257654   6.483   6.017  11.943  0.1280 -0.1870  0.1203
12080TIP3    H157655   6.422   6.084  11.974 -0.5581 -1.4373  1.5791
12080TIP3    H257656   6.472   6.017  11.848 -0.2263  1.3879  0.1368
12081TIP3   OH257657   1.054   3.870   5.263  0.1822  0.2715  0.1744
12081TIP3    H157658   1.098   3.953   5.283  0.8241 -0.1025  0.3227
12081TIP3    H257659   1.061   3.862   5.168  0.9002 -0.0397  0.2493
12082TIP3   OH257660   5.564   5.170   5.278 -0.1503 -0.0485  0.0449
12082TIP3    H157661   5.643   5.117   5.287 -1.0513 -1.4907 -0.3782
12082TIP3    H257662   5.563   5.196   5.186 -1.2283 -1.7892 -0.4749
12083TIP3   OH257663   5.059   5.347  12.425  0.0338  0.4523  0.7079
12083TIP3    H157664   5.117   5.277  12.455  0.4180  1.3426  2.1862
12083TIP3    H257665   5.101   5.380  12.345  0.5576 -0.1465  0.7302
12084TIP3   OH257666   4.645   0.668   4.100 -0.3641 -0.4479  0.1710
12084TIP3    H157667   4.728   0.621   4.086 -0.7166 -0.9787 -0.1533
12084TIP3    H257668   4.666   0.734   4.166  0.5796  0.0845 -0.6265
12085TIP3   OH257669   1.023   1.071  15.810 -0.2874  0.1445 -0.3209
12085TIP3    H157670   1.021   1.114  15.725  4.4476  1.4699 -0.0427
12085TIP3    H257671   1.045   0.980  15.791  0.0275  0.2653 -0.5420
12086TIP3   OH257672   1.741   0.119  14.722 -0.1177  0.3806  0.0564
12086TIP3    H157673   1.678   0.064  14.770 -4.3553  2.1084 -2.8777
12086TIP3    H257674   1.712   0.209  14.738  0.6670  1.1917 -2.5298
12087TIP3   OH257675   1.615   1.813  16.284  0.3121  0.0931  0.0245
12087TIP3    H157676   1.671   1.841  16.356  0.6154  1.5233 -0.7162
12087TIP3    H257677   1.537   1.777  16.326  0.5693  0.7052  1.0680
12088TIP3   OH257678   1.416   0.334  16.936  0.4432 -0.1400 -0.3293
12088TIP3    H157679   1.456   0.348  17.021  1.8903  0.3762 -1.0711
12088TIP3    H257680   1.322   0.343  16.952  0.7520  0.9804  1.0233
12089TIP3   OH257681   2.998   1.243   4.358  0.1441  0.5833  0.0422
12089TIP3    H157682   2.995   1.310   4.289 -0.5433  0.0544 -0.4574
12089TIP3    H257683   2.995   1.160   4.311  0.4018  0.1981  0.6871
12090TIP3   OH257684   4.628   6.548  14.097  0.2573  0.4636  0.1688
12090TIP3    H157685   4.632   6.456  14.070 -3.1789 -0.7442  3.0862
12090TIP3    H257686   4.716   6.566  14.130  0.6842 -2.2518  0.7689
12091TIP3   OH257687   5.401   6.289  12.744  0.4619 -0.2415  0.0104
12091TIP3    H157688   5.454   6.212  12.764 -0.9220 -1.8785 -2.2073
12091TIP3    H257689   5.363   6.271  12.658 -1.4115  2.1170  0.2331
12092TIP3   OH257690   1.848   5.897   4.398 -0.0353  0.1413  0.6908
12092TIP3    H157691   1.786   5.861   4.461  0.6979 -0.5732  1.0306
12092TIP3    H257692   1.803   5.892   4.314  0.0319 -1.6092  0.7212
12093TIP3   OH257693   3.840   1.225  17.008  0.3260 -0.9193 -0.5078
12093TIP3    H157694   3.925   1.268  16.997  0.4458 -1.3904 -1.6093
12093TIP3    H257695   3.849   1.175  17.088  0.0957  1.2756  0.9696
12094TIP3   OH257696   1.177   2.773   2.194 -0.7198 -0.3668 -0.4621
12094TIP3    H157697   1.161   2.863   2.166 -0.1782  0.6085  2.0770
12094TIP3    H257698   1.270   2.758   2.175 -0.9344 -0.5813 -1.3534
12095TIP3   OH257699   2.146   2.029   1.402  0.0117 -0.1181  0.2543
12095TIP3    H157700   2.079   2.029   1.470  0.1033  1.3506  0.3612
12095TIP3    H257701   2.100   2.058   1.323  0.4794  0.7265  0.2868
12096TIP3   OH257702   5.030   2.186   3.895 -0.2945 -0.0289  0.3034
12096TIP3    H157703   5.095   2.141   3.840 -0.6835 -0.3166  0.0739
12096TIP3    H257704   5.018   2.128   3.970 -0.6637 -0.2241  0.0953
12097TIP3   OH257705   0.456   6.438  13.444 -0.3548 -0.0732 -0.1634
12097TIP3    H157706   0.462   6.343  13.456  0.1326  0.1003  1.1507
12097TIP3    H257707   0.540   6.463  13.405 -0.2466 -0.1183  0.0376
12098TIP3   OH257708   5.678   5.554   0.444 -0.4458 -0.5404 -0.2338
12098TIP3    H157709   5.726   5.552   0.526  1.1820 -1.3446 -1.1649
12098TIP3    H257710   5.679   5.463   0.412 -1.6415 -0.3758 -0.8198
12099TIP3   OH257711   2.243   3.312  15.403  0.2668 -0.7820  0.1085
12099TIP3    H157712   2.179   3.278  15.340 -1.2939  0.1960  1.0789
12099TIP3    H257713   2.192   3.371  15.459  2.0328  0.0135  0.9673
12100TIP3   OH257714   3.790   0.288  15.457  0.0722  0.4282 -0.2278
12100TIP3    H157715   3.817   0.304  15.366 -0.1779  0.2259 -0.3404
12100TIP3    H257716   3.835   0.355  15.507  1.7270 -0.6293 -0.2358
12101TIP3   OH257717   4.761   1.713  13.001 -0.1318 -0.1281 -0.3381
12101TIP3    H157718   4.857   1.710  13.002 -0.0879  0.5833  1.1060
12101TIP3    H257719   4.740   1.772  12.929  0.5591  0.3030 -0.2008
12102TIP3   OH257720   6.700   3.864  13.741 -0.2095 -0.0226  0.4927
12102TIP3    H157721   6.710   3.823  13.655  0.1195 -1.0289  0.9918
12102TIP3    H257722   6.727   3.955  13.728  3.1938 -0.9375  0.2490
12103TIP3   OH257723   2.444   2.183  16.500  0.0037 -0.0148 -0.1419
12103TIP3    H157724   2.419   2.221  16.584  0.5354 -0.2083  0.1083
12103TIP3    H257725   2.495   2.105  16.523  1.1875  0.5904 -0.6264
12104TIP3   OH257726   3.496   2.520  13.845 -0.1021 -0.4807 -0.0894
12104TIP3    H157727   3.441   2.449  13.880 -1.4612  1.1589  1.2700
12104TIP3    H257728   3.439   2.568  13.785  0.6956 -0.3037 -0.7252
12105TIP3   OH257729   5.238   4.212  13.049 -0.5096  0.1241 -0.3300
12105TIP3    H157730   5.189   4.130  13.050  0.0456 -0.2172  0.5868
12105TIP3    H257731   5.177   4.277  13.016 -1.9542 -0.0592  1.8126
12106TIP3   OH257732   2.052   2.461  13.263 -0.5061  0.0391  0.1222
12106TIP3    H157733   2.028   2.545  13.303  0.7899  0.8455 -0.7344
12106TIP3    H257734   1.972   2.432  13.219 -1.1510  0.4965  0.9498
12107TIP3   OH257735   6.620   6.667   6.303 -0.2782  0.5302 -0.4315
12107TIP3    H157736   6.582   6.750   6.274 -1.6823  0.3377  0.7419
12107TIP3    H257737   6.546   6.617   6.336  0.4053 -1.5700 -1.9268
12108TIP3   OH257738   1.210   0.223   5.832  0.0460  0.5052 -0.0270
12108TIP3    H157739   1.262   0.190   5.905  0.3428  0.3988 -0.2826
12108TIP3    H257740   1.271   0.277   5.782  0.1632 -0.3249 -0.8110
12109TIP3   OH257741   2.731   6.328   4.754  0.5676 -0.1136  0.8412
12109TIP3    H157742   2.736   6.233   4.757 -1.3155 -0.2445  1.5496
12109TIP3    H257743   2.820   6.358   4.771  1.5447 -1.7231 -1.0304
12110TIP3   OH257744   2.619   0.668  13.814 -0.0508  0.1457 -0.1606
12110TIP3    H157745   2.542   0.668  13.757  0.9380  0.3314 -1.5405
12110TIP3    H257746   2.615   0.752  13.860 -0.0370  0.6798 -1.1232
12111TIP3   OH257747   0.817   1.047  16.033  0.1049  0.2617 -0.2766
12111TIP3    H157748   0.904   1.032  15.997 -0.7833 -1.6791 -1.7928
12111TIP3    H257749   0.832   1.085  16.120  2.4596 -1.0085 -0.0697
12112TIP3   OH257750   3.897   4.257   1.012 -0.2544 -0.5236  0.3048
12112TIP3    H157751   3.925   4.248   0.921  0.8843  0.6692  0.5032
12112TIP3    H257752   3.802   4.265   1.008 -0.0753  2.3769 -1.1031
12113TIP3   OH257753   2.522   1.096  13.347  0.3983  0.2577 -0.3442
12113TIP3    H157754   2.584   1.033  13.384 -1.0789 -0.7244  0.5597
12113TIP3    H257755   2.467   1.044  13.288 -1.4197  0.4457  1.0883
12114TIP3   OH257756   3.937   3.204  10.475  0.2418 -0.0333 -0.3826
12114TIP3    H157757   3.945   3.277  10.414  0.1806  0.2038 -0.1115
12114TIP3    H257758   3.856   3.223  10.524  0.6499  0.1475  0.2412
12115TIP3   OH257759   4.140   5.442  13.870 -0.4503  0.0650  0.5166
12115TIP3    H157760   4.136   5.426  13.964 -2.5584 -0.5010  0.3881
12115TIP3    H257761   4.207   5.382  13.838 -3.5643 -4.1111  0.9733
12116TIP3   OH257762   3.317   2.276   2.799  0.3238  0.3317 -0.4921
12116TIP3    H157763   3.344   2.363   2.771 -0.3694  0.1732 -1.7102
12116TIP3    H257764   3.223   2.282   2.809  0.3645 -0.0763  0.1979
12117TIP3   OH257765   1.616   1.861  13.117  0.0065 -0.0689 -0.2464
12117TIP3    H157766   1.710   1.875  13.128 -0.0877  0.9968 -0.6542
12117TIP3    H257767   1.604   1.853  13.023 -0.2726 -0.5913 -0.1715
12118TIP3   OH257768   3.516   2.819   2.916  0.5817 -0.3460  0.3944
12118TIP3    H157769   3.505   2.736   2.962  1.2814 -1.3275 -1.0936
12118TIP3    H257770   3.600   2.853   2.948 -0.3692  0.5539  2.0634
12119TIP3   OH257771   5.125   3.438  12.791  0.5593 -0.1903 -0.0961
12119TIP3    H157772   5.142   3.488  12.871  0.2330  1.3332 -0.9321
12119TIP3    H257773   5.210   3.435  12.746  0.4700  0.0921 -0.2910
12120TIP3   OH257774   5.820   1.879  12.635 -0.4311  0.3368  0.9365
12120TIP3    H157775   5.771   1.939  12.579  0.4984  2.0198  1.8139
12120TIP3    H257776   5.896   1.854  12.583 -0.1873  0.9367  0.9930
12121TIP3   OH257777   0.835   0.652   5.308 -0.2624 -0.6567  0.7758
12121TIP3    H157778   0.899   0.639   5.238 -0.5479 -1.8652  0.7122
12121TIP3    H257779   0.860   0.590   5.376 -0.6741 -0.3109  1.2498
12122TIP3   OH257780   5.330   3.682  13.925  1.0316  0.8155  0.1510
12122TIP3    H157781   5.342   3.705  14.017  0.8394 -0.0051  0.3888
12122TIP3    H257782   5.364   3.593  13.918 -0.5086  0.2217 -0.2017
12123TIP3   OH257783   5.738   0.782   1.827  0.2479 -0.6349  0.3364
12123TIP3    H157784   5.754   0.787   1.921 -2.1039 -1.6908  0.8801
12123TIP3    H257785   5.705   0.868   1.803 -0.7203 -0.8462  0.8589
12124TIP3   OH257786   0.582   3.459  16.355 -0.4532 -0.4468 -0.1791
12124TIP3    H157787   0.551   3.393  16.417 -1.3490  0.5896  0.5112
12124TIP3    H257788   0.677   3.457  16.363 -0.5070 -1.1772  0.3205
12125TIP3   OH257789   6.748   2.443   5.149 -0.5432 -0.4376  0.3464
12125TIP3    H157790   6.678   2.473   5.208 -1.1468 -1.0352 -0.0484
12125TIP3    H257791   6.705   2.433   5.064 -0.1077 -1.3470  0.2241
12126TIP3   OH257792   5.180   1.708  11.588 -0.4952  0.2306  0.2669
12126TIP3    H157793   5.127   1.695  11.667 -1.6308  1.2681 -0.2785
12126TIP3    H257794   5.224   1.792  11.602 -0.5246  0.3097 -0.1080
12127TIP3   OH257795   5.761   5.967  11.660  0.5399 -0.5256  0.2302
12127TIP3    H157796   5.807   5.889  11.689 -1.1007 -1.9885 -0.8640
12127TIP3    H257797   5.693   5.981  11.726  0.1191 -0.7220 -0.1522
12128TIP3   OH257798   5.189   2.771  12.452  0.3210 -0.0144 -0.1714
12128TIP3    H157799   5.164   2.679  12.443 -0.6759 -0.0014  1.9228
12128TIP3    H257800   5.241   2.774  12.533 -1.2951  1.5130  0.8988
12129TIP3   OH257801   5.749   5.455  17.297 -0.9148 -0.1040 -0.2210
12129TIP3    H157802   5.759   5.547  17.322 -1.3175 -0.2372  0.4578
12129TIP3    H257803   5.746   5.456  17.201 -0.6710  0.5645 -0.2246
12130TIP3   OH257804   3.584   3.940   0.232  0.4063 -0.5868  0.3249
12130TIP3    H157805   3.531   3.971   0.306 -1.5259 -3.5881  0.3780
12130TIP3    H257806   3.653   3.887   0.273 -0.0785 -1.4352  0.0867
12131TIP3   OH257807   6.373   3.366  12.282  0.1454  0.3574 -0.0385
12131TIP3    H157808   6.457   3.359  12.236  1.1534  0.8165  1.6443
12131TIP3    H257809   6.358   3.460  12.292  1.1685  0.3413  2.5449
12132TIP3   OH257810   0.501   6.718   3.546 -0.2069  0.5297 -0.1839
12132TIP3    H157811   0.514   6.808   3.517 -0.0906  1.0628  1.4336
12132TIP3    H257812   0.461   6.726   3.632  0.7667 -0.9471  0.4485
12133TIP3   OH257813   0.111   6.428   1.375  0.1723  0.2269  0.1363
12133TIP3    H157814   0.104   6.346   1.423 -1.4340 -0.2307 -0.8018
12133TIP3    H257815   0.044   6.485   1.414 -0.2125  0.3196 -0.6390
12134TIP3   OH257816   2.941   4.070  13.881  0.1075 -0.4222  0.6812
12134TIP3    H157817   2.920   3.997  13.940 -0.1766  2.5761  4.6754
12134TIP3    H257818   2.867   4.129  13.890  1.5665  1.6200 -0.1789
12135TIP3   OH257819   4.225   4.636  15.122 -0.8757 -0.2077  0.7620
12135TIP3    H157820   4.199   4.604  15.036  0.6302 -1.4390  0.7127
12135TIP3    H257821   4.193   4.570  15.184  3.1329 -2.6634  0.5779
12136TIP3   OH257822   0.933   5.649  16.967  0.2032  0.2092 -0.1527
12136TIP3    H157823   1.014   5.689  16.999  1.7222 -2.8783  0.1873
12136TIP3    H257824   0.961   5.589  16.898 -1.7636 -1.0321  0.0516
12137TIP3   OH257825   1.762   4.050   2.615  0.3464 -0.2962 -0.4307
12137TIP3    H157826   1.848   4.012   2.597  0.4873  0.4100 -1.3257
12137TIP3    H257827   1.763   4.133   2.569 -0.6487 -0.0620 -0.0483
12138TIP3   OH257828   1.057   1.530   3.825  0.0445  0.1184  0.3785
12138TIP3    H157829   0.982   1.475   3.801  0.6792 -1.3951  1.7068
12138TIP3    H257830   1.079   1.576   3.744 -2.0715  0.3315 -0.1387
12139TIP3   OH257831   4.905   6.651  14.600 -0.0344  0.7123 -0.6169
12139TIP3    H157832   4.932   6.742  14.594 -1.8068  1.2421 -0.8879
12139TIP3    H257833   4.809   6.653  14.598 -0.1306 -1.1098 -0.0463
12140TIP3   OH257834   3.632   1.673  13.317 -0.0728  0.2148  0.2718
12140TIP3    H157835   3.713   1.725  13.320 -0.1810  0.4672 -0.8978
12140TIP3    H257836   3.599   1.685  13.228 -0.2137 -1.6898  0.0354
12141TIP3   OH257837   4.731   0.026  16.119 -0.6251  0.6664 -0.3283
12141TIP3    H157838   4.708  -0.058  16.158 -2.0508  0.1645 -2.1102
12141TIP3    H257839   4.730   0.009  16.025 -1.6796  2.8237 -0.7665
12142TIP3   OH257840   2.840   3.884   1.883 -0.6008  0.1829 -0.0975
12142TIP3    H157841   2.764   3.835   1.914 -0.5678  0.6235  0.7095
12142TIP3    H257842   2.885   3.912   1.963  2.2695 -2.8351 -0.4142
12143TIP3   OH257843   3.235   1.714  11.356 -0.2316  0.5943 -0.1518
12143TIP3    H157844   3.303   1.671  11.408 -1.3957 -0.9340  0.1863
12143TIP3    H257845   3.278   1.735  11.273 -0.2426 -4.0848 -1.6292
12144TIP3   OH257846   1.878   4.948   0.196 -0.4083  0.0646  0.0156
12144TIP3    H157847   1.805   4.903   0.238 -1.2186  0.5296 -0.8531
12144TIP3    H257848   1.868   4.929   0.102 -0.2979  1.3761 -0.2807
12145TIP3   OH257849   1.844   4.909  17.285  0.3361 -0.0191 -0.2192
12145TIP3    H157850   1.845   5.002  17.309 -0.6662  0.3197 -1.3668
12145TIP3    H257851   1.924   4.897  17.233 -0.1254  0.5198 -1.0839
12146TIP3   OH257852   2.316   1.608   3.289  0.2231 -0.1552 -0.2100
12146TIP3    H157853   2.289   1.700   3.290 -0.9563 -0.3748  3.0900
12146TIP3    H257854   2.410   1.611   3.270 -0.0623  1.5548 -1.6732
12147TIP3   OH257855   3.378   5.353  15.462 -0.1359 -0.3392  0.0167
12147TIP3    H157856   3.395   5.285  15.528  0.5120  0.0462  0.2563
12147TIP3    H257857   3.464   5.377  15.429 -0.3466  0.4495  0.0127
12148TIP3   OH257858   6.030   1.027   3.153 -0.5203 -0.6459  0.0815
12148TIP3    H157859   6.068   1.091   3.212  2.6336 -1.0605 -1.2793
12148TIP3    H257860   6.003   0.954   3.209 -3.5318  1.3970  1.5643
12149TIP3   OH257861   2.688   2.231  16.754  0.0306  0.0075 -0.0197
12149TIP3    H157862   2.671   2.183  16.835 -1.9365 -0.7386 -0.8053
12149TIP3    H257863   2.664   2.321  16.774  0.4469  0.0162  0.4714
12150TIP3   OH257864   6.203   0.050  11.349 -0.9509 -0.2568  0.4037
12150TIP3    H157865   6.295   0.041  11.373 -1.0695  0.8799  1.3488
12150TIP3    H257866   6.193  -0.007  11.272  0.6549  0.0043 -0.0396
12151TIP3   OH257867   6.014   1.917   2.738 -0.1376  0.3809  0.0147
12151TIP3    H157868   6.063   1.974   2.678  1.0401  1.7357  2.1208
12151TIP3    H257869   6.008   1.833   2.692 -0.2518  1.6220 -2.4096
12152TIP3   OH257870   6.541   4.194  15.343  0.3041  0.1949 -0.0121
12152TIP3    H157871   6.499   4.275  15.313  0.1469  0.9940  2.1354
12152TIP3    H257872   6.629   4.197  15.304 -0.1532  0.6989 -1.0497
12153TIP3   OH257873   6.754   0.816  12.304 -0.3011  0.2878 -0.5699
12153TIP3    H157874   6.836   0.827  12.255 -0.8750  1.1885 -1.3457
12153TIP3    H257875   6.761   0.879  12.376 -0.4707  0.6413 -0.8585
12154TIP3   OH257876   0.951   5.021  12.238  0.0986 -0.0782  0.7374
12154TIP3    H157877   1.026   5.070  12.205 -0.5676  1.1240  0.9760
12154TIP3    H257878   0.990   4.943  12.279  1.0991 -0.2301 -0.4630
12155TIP3   OH257879   4.772   0.457   4.891  0.0311  0.0246 -0.7820
12155TIP3    H157880   4.779   0.437   4.984 -1.5362  1.7275 -0.2415
12155TIP3    H257881   4.861   0.479   4.865  0.3828  0.1967  0.4939
12156TIP3   OH257882   3.142   0.302  16.118 -0.2307 -0.4150 -0.0405
12156TIP3    H157883   3.134   0.302  16.022 -1.5881 -1.3559  0.0367
12156TIP3    H257884   3.193   0.380  16.138 -0.0873 -0.0928 -1.5174
12157TIP3   OH257885   2.827   5.964   0.906  0.4043 -0.0585 -0.5061
12157TIP3    H157886   2.804   5.907   0.833  0.7002 -0.6117 -0.1796
12157TIP3    H257887   2.904   6.012   0.876  1.8146 -1.7924  0.1598
12158TIP3   OH257888   0.731   5.376   0.515  0.3079  0.1993 -0.5287
12158TIP3    H157889   0.795   5.405   0.579 -0.7855 -1.5641  1.4846
12158TIP3    H257890   0.646   5.392   0.557 -0.4283 -1.6841 -1.2055
12159TIP3   OH257891   2.826   0.347   3.536 -0.5537  0.5879 -0.0823
12159TIP3    H157892   2.759   0.351   3.467 -0.2467 -2.6446 -0.7381
12159TIP3    H257893   2.777   0.324   3.615 -0.3853 -0.4570 -0.2761
12160TIP3   OH257894   5.920   3.159  12.826  0.3925 -0.0070  0.0502
12160TIP3    H157895   5.903   3.246  12.791  0.7072 -0.4112 -1.1780
12160TIP3    H257896   5.911   3.101  12.750  1.5954 -0.8827  0.5460
12161TIP3   OH257897   1.745   5.957  13.601  0.0409  0.0966 -0.1940
12161TIP3    H157898   1.814   6.024  13.598 -0.5746  0.7436 -0.2223
12161TIP3    H257899   1.792   5.876  13.619  0.8415  0.4836 -0.4384
12162TIP3   OH257900   1.450   2.537   0.645  0.4278  0.1648 -0.0355
12162TIP3    H157901   1.479   2.446   0.648  0.4366  0.1012 -1.4217
12162TIP3    H257902   1.383   2.539   0.576 -0.5242  0.9523  0.8750
12163TIP3   OH257903   0.122   5.201   1.707 -0.4087  0.2561  0.3224
12163TIP3    H157904   0.175   5.273   1.742  0.2040 -0.0519  0.0391
12163TIP3    H257905   0.108   5.225   1.615  2.2930 -1.3616 -0.6225
12164TIP3   OH257906   5.256   3.941  14.422 -0.0052  0.0101  0.2363
12164TIP3    H157907   5.326   3.976  14.367 -3.5263  1.4052 -4.0618
12164TIP3    H257908   5.241   3.853  14.389 -0.1664 -0.3318  1.2081
12165TIP3   OH257909   4.627   6.643  13.070 -0.4076  0.3240  0.1126
12165TIP3    H157910   4.701   6.687  13.029 -0.0686  0.3187  0.7137
12165TIP3    H257911   4.655   6.552  13.080 -0.9803  0.0320 -0.8176
12166TIP3   OH257912   2.420   4.220   0.146  0.5632 -0.3569  0.5710
12166TIP3    H157913   2.477   4.237   0.221 -1.0835 -2.1930  2.3265
12166TIP3    H257914   2.335   4.198   0.184 -0.3743 -1.2602 -1.8472
12167TIP3   OH257915   4.316   6.455  12.433  0.4671 -0.6807  0.1198
12167TIP3    H157916   4.227   6.437  12.400  0.7250 -1.0433 -0.3917
12167TIP3    H257917   4.302   6.499  12.517 -0.1995 -1.5726  0.4907
12168TIP3   OH257918   0.384   3.339  14.230 -0.2630 -0.3613 -0.3364
12168TIP3    H157919   0.411   3.250  14.253  0.2785  0.2315  1.5379
12168TIP3    H257920   0.304   3.353  14.281 -0.1437  0.3378 -0.3413
12169TIP3   OH257921   5.963   5.499   6.816  0.2263  0.2832 -0.0228
12169TIP3    H157922   5.980   5.439   6.889  1.6565  0.9125  0.1922
12169TIP3    H257923   6.031   5.478   6.752 -0.0418  0.8219 -0.4932
12170TIP3   OH257924   6.011   3.186   4.677 -0.0953 -0.2415  0.0905
12170TIP3    H157925   6.020   3.111   4.618 -0.7745  0.1358 -0.5086
12170TIP3    H257926   5.947   3.157   4.743 -0.6788 -0.0542 -0.3825
12171TIP3   OH257927   2.062   5.578   0.808  0.6600 -0.2746 -0.2649
12171TIP3    H157928   2.071   5.490   0.844  1.5434 -0.3289 -0.5778
12171TIP3    H257929   1.969   5.598   0.815  0.5692 -0.9318  0.5052
12172TIP3   OH257930   0.316   1.485  11.942  0.6717  0.5365  0.1692
12172TIP3    H157931   0.290   1.415  12.003  2.5736 -1.7777 -1.4830
12172TIP3    H257932   0.233   1.512  11.901  0.0057 -2.2287 -0.5449
12173TIP3   OH257933   0.250   1.805  13.633  0.4384  0.1677  0.0583
12173TIP3    H157934   0.214   1.848  13.711 -0.3344 -0.0573 -0.1655
12173TIP3    H257935   0.210   1.718  13.634  1.6035 -0.3851  0.2366
12174TIP3   OH257936   5.161   0.860   3.087  0.1017  0.3929 -0.5113
12174TIP3    H157937   5.155   0.829   3.177  0.5297 -0.7741 -0.8661
12174TIP3    H257938   5.102   0.803   3.038  1.8655 -0.7693 -1.3938
12175TIP3   OH257939   0.541   0.203   4.425 -0.1491 -0.1465 -0.3402
12175TIP3    H157940   0.474   0.149   4.384 -0.7074  0.7368 -0.6297
12175TIP3    H257941   0.509   0.217   4.514 -0.5013  0.5132 -0.5656
12176TIP3   OH257942   6.641   0.267   2.110  0.2336 -0.1736  0.4410
12176TIP3    H157943   6.612   0.322   2.038 -0.9377  2.0039  2.4170
12176TIP3    H257944   6.595   0.184   2.097 -0.8407  0.5649 -0.6951
12177TIP3   OH257945   3.554   5.089   0.490  0.0989  0.2561  0.3450
12177TIP3    H157946   3.600   5.010   0.461  3.8823  2.0334  0.8164
12177TIP3    H257947   3.524   5.130   0.409 -1.1573 -1.1877  0.0430
12178TIP3   OH257948   0.919   0.855  14.490  0.4373  0.6709 -0.6960
12178TIP3    H157949   0.846   0.820  14.439  1.8096 -0.6956 -1.8347
12178TIP3    H257950   0.916   0.806  14.572  1.2512 -0.9448 -1.5639
12179TIP3   OH257951   1.230   4.651   0.475 -0.0253  0.5137 -0.3386
12179TIP3    H157952   1.236   4.709   0.550 -2.5095 -0.6978  0.9264
12179TIP3    H257953   1.142   4.667   0.440 -0.2667 -1.4700 -0.7523
12180TIP3   OH257954   3.518   5.789   1.062  0.1618  0.1136  0.2837
12180TIP3    H157955   3.447   5.738   1.023  0.9149 -0.2734 -0.5922
12180TIP3    H257956   3.547   5.736   1.136 -0.8678  0.5740  1.0554
12181TIP3   OH257957   1.786   1.986   6.144  0.7254 -0.1100  0.5394
12181TIP3    H157958   1.743   2.049   6.201  0.3402  1.3594 -1.2697
12181TIP3    H257959   1.876   2.019   6.135  0.9753 -0.6987  0.8059
12182TIP3   OH257960   6.130   2.217   1.598  0.0933  0.6286 -0.9937
12182TIP3    H157961   6.196   2.230   1.666 -0.2703  1.6284 -0.8119
12182TIP3    H257962   6.061   2.167   1.640 -0.7954  2.4551 -0.1482
12183TIP3   OH257963   3.901   0.880   4.104  0.8763  0.0929  0.5418
12183TIP3    H157964   3.913   0.867   4.198  0.4775 -0.0515  0.5748
12183TIP3    H257965   3.947   0.807   4.064 -3.2964 -3.0124  0.7903
12184TIP3   OH257966   4.108   3.408   5.982 -0.3594 -0.0190 -0.7309
12184TIP3    H157967   4.062   3.353   6.046  1.5827 -0.3667  0.4468
12184TIP3    H257968   4.060   3.395   5.901 -0.6180 -2.6611 -0.2489
12185TIP3   OH257969   6.361   3.740   5.595  0.2382 -0.1510  0.4815
12185TIP3    H157970   6.318   3.690   5.664 -1.2966 -1.0897 -1.0615
12185TIP3    H257971   6.426   3.680   5.558  0.7543  0.1973  0.8053
12186TIP3   OH257972   0.174   4.844  11.151 -0.7313 -0.5613 -0.4136
12186TIP3    H157973   0.216   4.881  11.229 -1.4677 -2.2308  0.8313
12186TIP3    H257974   0.193   4.908  11.082  0.3442  0.7486  1.0004
12187TIP3   OH257975   0.592   6.009  15.934 -0.3638 -0.0538  0.3147
12187TIP3    H157976   0.551   6.060  16.004  1.6863  2.5859 -0.2387
12187TIP3    H257977   0.522   5.953  15.902 -2.5332  1.6633  1.7189
12188TIP3   OH257978   4.625   5.303   5.538 -0.5746 -0.9717 -0.2143
12188TIP3    H157979   4.535   5.334   5.545  0.0721  0.8121  0.9204
12188TIP3    H257980   4.667   5.366   5.479  0.0367 -1.5029 -0.3532
12189TIP3   OH257981   1.237   1.568  11.606 -0.1147 -0.4466  0.3518
12189TIP3    H157982   1.240   1.479  11.642  2.3326 -0.6054 -0.0557
12189TIP3    H257983   1.151   1.574  11.565 -0.9569 -2.0596  1.7272
12190TIP3   OH257984   6.221   5.056   2.889 -0.3069  1.1327 -0.3225
12190TIP3    H157985   6.175   5.028   2.968  0.7571  2.3996  0.8046
12190TIP3    H257986   6.161   5.036   2.817 -1.3875  0.1329  0.8094
12191TIP3   OH257987   1.845   0.709   1.960 -0.2244  0.5136 -0.4290
12191TIP3    H157988   1.874   0.799   1.973 -0.6687  0.8494 -1.6225
12191TIP3    H257989   1.763   0.717   1.911 -0.1835 -0.5453 -0.6924
12192TIP3   OH257990   1.334   4.948   2.055 -0.5413  0.1290 -0.0725
12192TIP3    H157991   1.305   4.996   2.133  2.5671  0.3567  1.0874
12192TIP3    H257992   1.349   5.016   1.990  0.2812  0.3630  0.3457
12193TIP3   OH257993   3.648   4.299   0.918  0.4101  0.2981  0.5482
12193TIP3    H157994   3.572   4.296   0.860  0.7528  1.6888  0.0001
12193TIP3    H257995   3.635   4.378   0.971  1.6071  0.7061  0.2545
12194TIP3   OH257996   3.709   2.739  14.881 -0.0381  0.1683 -0.2418
12194TIP3    H157997   3.733   2.705  14.967 -0.0846 -1.1714 -0.7283
12194TIP3    H257998   3.737   2.670  14.820 -0.4150  0.8928 -1.2582
12195TIP3   OH257999   2.231   2.039   0.383  0.4900  0.4230 -0.4740
12195TIP3    H158000   2.138   2.020   0.396  0.4434  0.1321 -1.2247
12195TIP3    H258001   2.234   2.131   0.357  0.6020  1.1002  1.7137
12196TIP3   OH258002   0.464   6.571  15.301  0.0477 -0.3713  0.1571
12196TIP3    H158003   0.543   6.531  15.337  0.6472 -0.6310 -1.3679
12196TIP3    H258004   0.482   6.579  15.207 -1.7517 -0.4753 -0.2285
12197TIP3   OH258005   0.272   2.218  10.723  0.2501 -0.3806  0.5218
12197TIP3    H158006   0.286   2.301  10.676  0.0443  0.1173  1.3269
12197TIP3    H258007   0.184   2.191  10.697  0.1903 -0.1798  0.5120
12198TIP3   OH258008   0.395   3.419  14.960 -0.6129  0.7712  0.0474
12198TIP3    H158009   0.489   3.416  14.946 -0.4900 -1.1569  0.9091
12198TIP3    H258010   0.376   3.512  14.976  1.5865  0.9315  2.5048
12199TIP3   OH258011   3.945   1.700   4.218  0.7660 -0.0133 -0.0862
12199TIP3    H158012   3.983   1.652   4.292 -0.8333 -0.4340  0.5195
12199TIP3    H258013   3.958   1.643   4.142 -0.4543 -1.1330  0.4948
12200TIP3   OH258014   0.795   5.140  10.540 -0.0766  0.3117 -0.0588
12200TIP3    H158015   0.717   5.162  10.590  0.3841  1.3266  0.2452
12200TIP3    H258016   0.868   5.168  10.596  0.5545 -1.5952  0.1318
12201TIP3   OH258017   3.736   1.130  13.216  0.0178  0.3591  0.3026
12201TIP3    H158018   3.660   1.079  13.189 -0.1088  0.1153  1.0958
12201TIP3    H258019   3.701   1.217  13.237 -0.0595  0.2209  0.7541
12202TIP3   OH258020   0.248   5.428  15.741 -0.8036 -0.3930  0.2797
12202TIP3    H158021   0.283   5.364  15.803  0.2319 -1.9789 -1.8158
12202TIP3    H258022   0.321   5.487  15.723 -2.0815  2.4744  3.2030
12203TIP3   OH258023   1.901   2.235   1.045  0.0545  0.1899 -0.1458
12203TIP3    H158024   1.832   2.302   1.038 -0.3977 -0.2770 -0.2097
12203TIP3    H258025   1.982   2.285   1.045 -0.2423  0.7043 -0.9622
12204TIP3   OH258026   5.727   4.286  13.242 -0.7026  0.2123  0.1116
12204TIP3    H158027   5.783   4.361  13.265 -0.9926  0.8564 -1.1810
12204TIP3    H258028   5.662   4.323  13.182 -1.6539 -0.8225  0.4802
12205TIP3   OH258029   3.476   1.260   1.432 -0.4398  1.5148  0.0564
12205TIP3    H158030   3.421   1.267   1.510 -0.4397 -0.0233  0.2304
12205TIP3    H258031   3.476   1.166   1.412  0.8581  1.6900 -0.8517
12206TIP3   OH258032   3.921   0.132  17.302  0.3468 -0.0652  0.3972
12206TIP3    H158033   3.924   0.219  17.343  1.5463  0.2511 -0.3175
12206TIP3    H258034   3.839   0.094  17.333 -0.1150  1.2536  0.8654
12207TIP3   OH258035   2.340   4.401  12.890  0.1961 -0.0396 -0.1412
12207TIP3    H158036   2.373   4.431  12.975  0.4454 -0.3080 -0.1397
12207TIP3    H258037   2.326   4.481  12.839 -1.7439  0.2669  0.7814
12208TIP3   OH258038   4.036   1.489   1.382 -0.3127  0.2069  0.1762
12208TIP3    H158039   4.132   1.487   1.380 -0.2753 -1.6559  1.1078
12208TIP3    H258040   4.012   1.562   1.325  1.6827  1.5335  0.9216
12209TIP3   OH258041   4.087   0.933  11.894  0.0043 -0.3740 -0.8730
12209TIP3    H158042   4.086   0.858  11.953 -0.0134 -0.3318 -0.8197
12209TIP3    H258043   4.119   0.898  11.811  1.5239 -0.1274 -0.4282
12210TIP3   OH258044   6.048   2.154  16.572 -0.1719 -0.6314  0.2060
12210TIP3    H158045   5.974   2.093  16.569  0.0691 -0.9064 -2.3953
12210TIP3    H258046   6.126   2.098  16.568  0.1125 -0.2505  0.3636
12211TIP3   OH258047   2.381   3.778  10.604 -0.1884  0.4819  0.6952
12211TIP3    H158048   2.300   3.820  10.572 -0.1982 -0.4520 -0.6094
12211TIP3    H258049   2.386   3.696  10.555  1.6731  0.6174  0.5819
12212TIP3   OH258050   6.288   5.933  14.225  0.2221  0.2646 -0.0233
12212TIP3    H158051   6.195   5.926  14.203  0.3457 -0.2616 -0.3935
12212TIP3    H258052   6.302   6.026  14.242 -1.3997 -0.0596  4.5935
12213TIP3   OH258053   0.701   2.048   4.158  0.3713  0.4280 -0.5310
12213TIP3    H158054   0.676   1.962   4.193 -0.7031  1.3413  1.1175
12213TIP3    H258055   0.779   2.073   4.208  0.2435  0.7120 -0.4680
12214TIP3   OH258056   6.571   0.417   0.291  0.1544 -0.0476  0.0371
12214TIP3    H158057   6.522   0.341   0.324 -1.8721  1.0821 -0.1900
12214TIP3    H258058   6.655   0.413   0.335 -0.4763 -1.5760  1.1880
12215TIP3   OH258059   6.272   4.983   5.644 -0.2555  0.2791  0.5944
12215TIP3    H158060   6.292   5.061   5.592 -1.0539  0.3340  0.3605
12215TIP3    H258061   6.314   4.999   5.729  2.0271 -0.2876 -0.3356
12216TIP3   OH258062   0.902   6.367  14.118  0.1345 -0.9280  0.8067
12216TIP3    H158063   0.930   6.448  14.161  0.8404 -0.7784  0.0750
12216TIP3    H258064   0.976   6.341  14.064 -0.4528 -1.5315  0.2694
12217TIP3   OH258065   1.662   3.480   5.538  0.3230 -0.2834  0.2616
12217TIP3    H158066   1.627   3.399   5.577 -0.8199 -0.4018 -0.9367
12217TIP3    H258067   1.712   3.450   5.462  0.9400  0.0699  0.5227
12218TIP3   OH258068   6.005   4.052  17.277 -0.1477 -0.2261  0.2824
12218TIP3    H158069   5.916   4.085  17.282 -0.3795 -1.0345  2.1301
12218TIP3    H258070   5.996   3.961  17.248  0.2463  0.2137 -1.3502
12219TIP3   OH258071   0.135   5.853  13.119 -0.4200  0.1129 -0.3679
12219TIP3    H158072   0.136   5.836  13.025 -2.6771 -0.3526 -0.3645
12219TIP3    H258073   0.043   5.870  13.139  0.1079  0.8171  1.6619
12220TIP3   OH258074   2.564   1.691  12.390  0.1494 -0.1144  0.0279
12220TIP3    H158075   2.490   1.742  12.424 -0.1416 -0.2978 -0.3184
12220TIP3    H258076   2.540   1.600  12.406 -1.5790 -0.4695 -3.5804
12221TIP3   OH258077   0.628   5.815  14.973  0.0032 -0.1786  0.3910
12221TIP3    H158078   0.690   5.752  15.009  2.0675  0.9382 -1.0516
12221TIP3    H258079   0.679   5.895  14.961 -1.4867  0.5429 -1.6489
12222TIP3   OH258080   6.453   2.333  11.052  0.4895 -0.2249  0.0892
12222TIP3    H158081   6.442   2.349  10.958  1.0723 -0.0550  0.0481
12222TIP3    H258082   6.467   2.419  11.089 -0.9893 -0.1387  0.5201
12223TIP3   OH258083   5.366   3.861   0.190  0.3584  0.0678  0.3171
12223TIP3    H158084   5.397   3.940   0.146  0.1605 -0.9352 -1.7819
12223TIP3    H258085   5.339   3.803   0.118  0.3207 -1.8291  1.7782
12224TIP3   OH258086   3.645   6.253  12.872 -0.0223 -0.1066  0.1549
12224TIP3    H158087   3.656   6.327  12.812 -0.1457  0.6953  1.1043
12224TIP3    H258088   3.587   6.193  12.825  1.2587 -0.3186 -1.2593
12225TIP3   OH258089   2.330   5.762   5.062  0.5638  0.3418  0.2690
12225TIP3    H158090   2.358   5.704   5.133  0.8234  0.1763  0.0360
12225TIP3    H258091   2.367   5.847   5.084 -0.5446  0.6488  1.0688
12226TIP3   OH258092   2.417   3.537   3.182 -0.2171 -0.4637 -0.6567
12226TIP3    H158093   2.321   3.537   3.190 -0.2261 -1.7165 -0.5780
12226TIP3    H258094   2.448   3.520   3.271  0.0794 -0.1154 -0.6934
12227TIP3   OH258095   5.394   0.602  15.454 -0.0683 -0.2744  0.0909
12227TIP3    H158096   5.450   0.543  15.404 -1.7104 -1.6134 -0.2576
12227TIP3    H258097   5.415   0.583  15.546  0.7087 -0.0740 -0.0361
12228TIP3   OH258098   0.601   3.162  16.006 -0.1006 -0.8820 -0.6511
12228TIP3    H158099   0.522   3.175  16.058  1.5730  1.7588  1.5314
12228TIP3    H258100   0.672   3.157  16.071  1.9222  0.7109 -2.5423
12229TIP3   OH258101   0.997   4.840  16.260 -0.2692 -0.2509 -0.0076
12229TIP3    H158102   1.009   4.748  16.285  3.1693  0.3963  1.2657
12229TIP3    H258103   1.064   4.855  16.194  0.2147  1.6727  0.8646
12230TIP3   OH258104   2.509   3.499   5.960  0.4355  0.3883  0.3957
12230TIP3    H158105   2.479   3.456   5.880 -0.9431  1.2232  0.4230
12230TIP3    H258106   2.590   3.454   5.983  0.3928 -0.4488 -0.9818
12231TIP3   OH258107   0.830   2.045  16.986  0.1906 -1.0963  0.2306
12231TIP3    H158108   0.900   1.980  16.991  1.8809  0.4406 -1.6278
12231TIP3    H258109   0.875   2.128  16.971 -1.9006  0.4849  2.0562
12232TIP3   OH258110   6.535   0.474   2.241 -0.1198  0.0896 -0.2102
12232TIP3    H158111   6.501   0.517   2.162 -2.0757  1.1994  1.1311
12232TIP3    H258112   6.585   0.399   2.208  0.4461  1.3670 -2.5378
12233TIP3   OH258113   4.295   6.340   2.296 -0.6085  0.0560 -0.3951
12233TIP3    H158114   4.250   6.266   2.255 -0.5148 -1.3705  1.9551
12233TIP3    H258115   4.320   6.396   2.222 -0.7644 -2.1852 -2.2397
12234TIP3   OH258116   0.740   3.873   3.723  0.2521 -0.0442  0.7172
12234TIP3    H158117   0.781   3.787   3.720  1.6824  0.6242 -0.6939
12234TIP3    H258118   0.682   3.875   3.646 -0.0750  0.1163  0.9648
12235TIP3   OH258119   6.169   0.866  15.891 -0.4042 -0.2946 -0.7592
12235TIP3    H158120   6.208   0.779  15.892  1.2802  0.4404  0.1187
12235TIP3    H258121   6.152   0.886  15.984 -1.6822 -0.0661 -1.0247
12236TIP3   OH258122   2.208   4.457  11.782  0.0485 -0.2942 -0.7871
12236TIP3    H158123   2.256   4.375  11.772  0.3231 -0.3285  0.6187
12236TIP3    H258124   2.185   4.483  11.693  2.6549 -0.3059 -1.5420
12237TIP3   OH258125   6.244   4.042  15.326  0.7166  0.1241  0.0819
12237TIP3    H158126   6.259   4.103  15.399  1.1031 -0.5645  0.5868
12237TIP3    H258127   6.163   3.997  15.349 -0.4378  1.5242 -1.0533
12238TIP3   OH258128   2.526   0.572  14.766 -0.1740 -0.4686  0.0057
12238TIP3    H158129   2.466   0.537  14.700 -1.9680  0.0483  1.2795
12238TIP3    H258130   2.538   0.500  14.828 -1.9844  0.3090  1.3651
12239TIP3   OH258131   3.611   3.426   2.564 -0.0064  0.4911  0.0963
12239TIP3    H158132   3.657   3.508   2.580 -0.4939  0.4340  1.9609
12239TIP3    H258133   3.559   3.412   2.642 -0.1082 -1.5032 -0.2839
12240TIP3   OH258134   4.229   0.463  13.958  0.2786 -0.1734 -0.1947
12240TIP3    H158135   4.297   0.399  13.979  2.5757  2.2406  0.3196
12240TIP3    H258136   4.223   0.461  13.862 -1.1820 -2.4894 -0.1242
12241TIP3   OH258137   0.298   5.142  15.299 -0.1114  0.1288  0.3821
12241TIP3    H158138   0.263   5.159  15.387 -2.6258  0.0823 -0.5309
12241TIP3    H258139   0.291   5.047  15.289 -0.6430  0.2200 -0.1607
12242TIP3   OH258140   4.032   2.250   3.552 -0.1421  0.0256 -0.1889
12242TIP3    H158141   4.098   2.205   3.499 -1.0835 -1.4735 -0.1342
12242TIP3    H258142   3.963   2.272   3.491 -0.2987  0.1668  0.0387
12243TIP3   OH258143   6.259   5.676   0.184  0.0066 -0.3059 -0.1926
12243TIP3    H158144   6.228   5.759   0.221  0.9099  0.3247 -0.7879
12243TIP3    H258145   6.183   5.618   0.187 -0.3417  0.1774  1.2735
12244TIP3   OH258146   6.072   0.386  15.082 -0.4984  0.5844 -0.1132
12244TIP3    H158147   6.015   0.352  15.151 -0.1099 -0.5189 -0.2987
12244TIP3    H258148   6.043   0.341  15.003  1.6014 -1.3165  0.0599
12245TIP3   OH258149   1.114   6.482   5.106 -0.0245  0.2946  0.4475
12245TIP3    H158150   1.201   6.489   5.146 -0.0750 -1.0218  0.8621
12245TIP3    H258151   1.059   6.544   5.155  0.6135  0.9234  0.3734
12246TIP3   OH258152   3.016   5.732   4.725 -0.1040  0.3402 -0.2166
12246TIP3    H158153   3.105   5.702   4.745  1.2350  3.0406 -1.4718
12246TIP3    H258154   2.984   5.767   4.808  0.7614  0.9865 -0.1332
12247TIP3   OH258155   0.327   2.850   4.298  0.0273  0.0390  0.2600
12247TIP3    H158156   0.401   2.846   4.237 -0.6346  1.5784 -0.7276
12247TIP3    H258157   0.355   2.799   4.374  2.3767  1.1348  0.2155
12248TIP3   OH258158   6.126   5.486  16.674 -0.1801 -0.6185  0.0575
12248TIP3    H158159   6.189   5.516  16.739 -0.7906 -2.3916  1.5450
12248TIP3    H258160   6.136   5.390  16.672 -0.9701 -0.7179 -1.6452
12249TIP3   OH258161   5.102   1.040  13.993 -0.5417  0.8190  0.5382
12249TIP3    H158162   5.172   1.051  14.057  0.9920 -0.7044 -0.7768
12249TIP3    H258163   5.084   1.128  13.961 -0.3588  1.4252  2.0410
12250TIP3   OH258164   1.250   1.573  11.239 -0.3512 -0.1932 -0.5101
12250TIP3    H158165   1.297   1.523  11.173  0.0246  0.8569 -1.0536
12250TIP3    H258166   1.308   1.572  11.315 -0.2798 -0.4557 -0.5658
12251TIP3   OH258167   2.022   3.759   5.432  0.0461 -0.2027 -0.0202
12251TIP3    H158168   2.096   3.698   5.435 -0.6315 -1.1362 -1.4085
12251TIP3    H258169   1.955   3.714   5.381 -0.2320  1.9672 -1.7296
12252TIP3   OH258170   2.559   6.334   5.423 -0.4849 -0.4602  0.4083
12252TIP3    H158171   2.636   6.333   5.366 -0.2000 -0.8630  0.8017
12252TIP3    H258172   2.572   6.410   5.480  0.7766 -1.8387  2.0418
12253TIP3   OH258173   5.926   1.848  11.023  0.3749 -0.1977  0.4971
12253TIP3    H158174   5.958   1.765  10.988  0.6224  0.2122 -0.2789
12253TIP3    H258175   5.957   1.914  10.960  0.2202  0.4847  1.1223
12254TIP3   OH258176   1.953   4.797   2.394 -0.0326 -0.0093  0.1823
12254TIP3    H158177   1.967   4.759   2.480  1.2496  0.4437  0.2062
12254TIP3    H258178   1.931   4.889   2.411 -0.8566 -0.1706  0.0486
12255TIP3   OH258179   0.044   0.959   4.407  0.1194 -0.2479  0.1054
12255TIP3    H158180   0.116   0.897   4.417 -1.0137 -1.4899  0.7821
12255TIP3    H258181  -0.017   0.937   4.477  0.1167  2.2892  1.0178
12256TIP3   OH258182   1.289   2.625   2.859 -0.6013 -0.0566 -0.2081
12256TIP3    H158183   1.313   2.706   2.814  2.3055 -1.2749 -1.0586
12256TIP3    H258184   1.335   2.557   2.811 -3.4761 -2.3745  0.0570
12257TIP3   OH258185   4.314   2.220  11.589  0.5286  0.5228 -0.6887
12257TIP3    H158186   4.313   2.195  11.497 -0.1505  0.8273 -0.7681
12257TIP3    H258187   4.231   2.266  11.603 -0.1632 -0.9903  0.5018
12258TIP3   OH258188   2.677   6.065   4.767  0.2616  0.3555 -0.1462
12258TIP3    H158189   2.585   6.083   4.787  0.2977  0.4533 -0.0632
12258TIP3    H258190   2.675   5.988   4.711  0.2290 -0.8205  1.3840
12259TIP3   OH258191   2.952   1.318  14.385  0.5072  0.5618 -0.4175
12259TIP3    H158192   2.961   1.400  14.336  0.3725  0.3968 -0.7164
12259TIP3    H258193   2.886   1.268  14.338  1.2368 -0.1012 -0.7582
12260TIP3   OH258194   1.685   1.572   0.854  0.1807  0.8116  0.3516
12260TIP3    H158195   1.732   1.573   0.771 -2.3495 -1.8085 -1.3289
12260TIP3    H258196   1.729   1.505   0.906  0.5002  0.9463  0.2521
12261TIP3   OH258197   3.509   4.885   1.859  0.1938 -0.1445  0.0497
12261TIP3    H158198   3.530   4.814   1.920 -0.9835 -1.7688 -1.3508
12261TIP3    H258199   3.416   4.900   1.872 -0.3139 -1.2196 -1.9851
12262TIP3   OH258200   6.204   1.653  11.491 -0.1532  0.1323 -0.1909
12262TIP3    H158201   6.185   1.591  11.421  0.2273  0.0955 -0.2664
12262TIP3    H258202   6.300   1.657  11.494 -0.1722  0.8708 -0.3304
12263TIP3   OH258203   2.242   5.714   0.648  0.0171 -0.2641 -0.1159
12263TIP3    H158204   2.170   5.682   0.702  0.0978  0.7405  0.6255
12263TIP3    H258205   2.238   5.810   0.657  1.4958 -0.1844  0.0213
12264TIP3   OH258206   4.477   1.491  12.957 -0.2786 -0.4963  0.0129
12264TIP3    H158207   4.570   1.509  12.969 -0.3816 -0.4657  0.8108
12264TIP3    H258208   4.446   1.561  12.900  0.2615 -0.7121 -0.5479
12265TIP3   OH258209   2.315   3.517  14.577 -0.6636  0.2785 -0.6254
12265TIP3    H158210   2.295   3.424  14.588 -0.0444 -0.0084 -1.7397
12265TIP3    H258211   2.388   3.518  14.515 -0.7309  1.5185 -0.7019
12266TIP3   OH258212   3.144   3.761  11.593  0.3197 -0.5861  0.0414
12266TIP3    H158213   3.134   3.702  11.668 -0.4728  0.0113  0.4126
12266TIP3    H258214   3.069   3.742  11.537 -0.4868  0.7349  0.6378
12267TIP3   OH258215   4.102   3.256  11.107  0.0819  0.4712 -0.2419
12267TIP3    H158216   4.028   3.236  11.165  0.1680  0.3139 -0.1858
12267TIP3    H258217   4.113   3.351  11.114 -1.6594  0.8680 -2.1292
12268TIP3   OH258218   3.239   0.707  12.615 -0.0838 -0.8551 -0.0075
12268TIP3    H158219   3.275   0.774  12.558 -0.5338 -1.1748 -0.6847
12268TIP3    H258220   3.234   0.628  12.561 -0.8512 -1.0748  0.3569
12269TIP3   OH258221   4.257   1.919   3.134 -0.7935 -0.3085 -0.3734
12269TIP3    H158222   4.259   2.014   3.127 -1.5684 -0.2960 -0.5710
12269TIP3    H258223   4.327   1.889   3.077 -0.4757  0.1471 -0.2256
12270TIP3   OH258224   6.589   5.743   0.956  0.4364 -0.3062  0.0008
12270TIP3    H158225   6.591   5.717   1.048  2.3926 -2.3421 -0.5410
12270TIP3    H258226   6.629   5.670   0.909  1.5024  1.6018 -2.2620
12271TIP3   OH258227   0.889   2.489   1.940 -0.2369 -0.7422 -0.4265
12271TIP3    H158228   0.819   2.541   1.978  0.5108  0.2395 -0.3476
12271TIP3    H258229   0.873   2.492   1.846  0.6340  0.9223 -0.5529
12272TIP3   OH258230   6.322   1.521   3.604  0.0636  0.1067  0.2612
12272TIP3    H158231   6.344   1.437   3.563 -1.5694  0.1511 -0.7839
12272TIP3    H258232   6.275   1.498   3.684  0.7436  0.0349  0.6471
12273TIP3   OH258233   0.218   2.558   5.801  0.5945  0.3511 -0.5943
12273TIP3    H158234   0.249   2.531   5.714  2.2184 -1.9341  0.6029
12273TIP3    H258235   0.280   2.519   5.862 -1.5219  0.3740  1.7288
12274TIP3   OH258236   3.612   5.278   3.654  0.0854 -0.3963 -0.4832
12274TIP3    H158237   3.588   5.364   3.689  0.1209 -1.6028  2.8339
12274TIP3    H258238   3.529   5.240   3.625 -0.2835 -0.1673  0.2597
12275TIP3   OH258239   1.250   4.361  16.546  0.2290  0.4205  0.7003
12275TIP3    H158240   1.184   4.341  16.479  1.5243  2.0411 -1.2028
12275TIP3    H258241   1.235   4.297  16.616 -0.0294 -2.6810 -1.9471
12276TIP3   OH258242   5.614   6.183   0.590  0.1074  0.1949  0.0816
12276TIP3    H158243   5.688   6.193   0.650 -0.7292 -1.1796  1.4358
12276TIP3    H258244   5.554   6.254   0.614  0.9707  1.3648 -1.0784
12277TIP3   OH258245   5.912   5.932   5.871 -0.1822 -0.7185 -0.0336
12277TIP3    H158246   5.888   5.895   5.956  0.6594 -1.5753 -0.1524
12277TIP3    H258247   5.981   5.996   5.892 -0.0897 -0.8108 -0.0569
12278TIP3   OH258248   0.877   3.156  12.984 -0.1380  0.5576 -0.6348
12278TIP3    H158249   0.829   3.117  12.910 -1.1849 -0.1467  0.3766
12278TIP3    H258250   0.867   3.093  13.055 -0.6846  2.0206  0.6482
12279TIP3   OH258251   4.755   5.638  12.637 -0.7131 -0.5170 -0.1496
12279TIP3    H158252   4.742   5.733  12.633 -0.4757 -0.3742  1.5757
12279TIP3    H258253   4.795   5.615  12.553 -0.7654  0.9119 -0.5847
12280TIP3   OH258254   4.184   3.631   2.410  0.4835 -0.0532 -0.7543
12280TIP3    H158255   4.126   3.682   2.353  0.5309 -2.0709 -2.7662
12280TIP3    H258256   4.272   3.662   2.387  0.4666 -0.4545 -1.3861
12281TIP3   OH258257   4.746   3.239  16.734 -0.0079  0.0479 -0.6876
12281TIP3    H158258   4.735   3.295  16.658  1.7367 -1.2013 -1.9499
12281TIP3    H258259   4.724   3.151  16.703 -0.4067 -0.3287  0.5816
12282TIP3   OH258260   5.034   0.033  12.144  0.0725  0.3032  0.0980
12282TIP3    H158261   4.997   0.094  12.079  0.0456  0.2487  0.0621
12282TIP3    H258262   5.079  -0.033  12.092  0.0968  0.2894  0.1363
12283TIP3   OH258263   3.991   3.990   2.604 -0.2127 -0.4736 -0.1850
12283TIP3    H158264   4.051   3.923   2.637 -0.7388 -1.0350 -0.3561
12283TIP3    H258265   4.045   4.042   2.544 -0.0806 -1.4472 -0.9402
12284TIP3   OH258266   0.522   1.311  16.107  0.4442 -0.1242 -0.0483
12284TIP3    H158267   0.440   1.302  16.058  0.6819  0.8377 -0.6446
12284TIP3    H258268   0.499   1.361  16.185  0.4764  0.2024 -0.2487
12285TIP3   OH258269   4.067   5.718  15.684 -0.2427 -0.1148 -1.0289
12285TIP3    H158270   3.983   5.684  15.654 -1.9600  2.4015  0.5091
12285TIP3    H258271   4.096   5.656  15.750 -1.0100 -0.8876 -1.3997
12286TIP3   OH258272   1.573   4.287   3.478  0.6730  0.0172 -0.5698
12286TIP3    H158273   1.489   4.255   3.511 -1.1578  2.6298 -2.3089
12286TIP3    H258274   1.584   4.244   3.394 -0.0011  1.1794 -1.2750
12287TIP3   OH258275   2.392   2.178  10.558 -0.2324  0.3453  0.2142
12287TIP3    H158276   2.347   2.260  10.576  0.5774  0.4709  1.8966
12287TIP3    H258277   2.480   2.190  10.593  0.8492 -0.2456 -2.1161
12288TIP3   OH258278   3.084   4.464  11.481  0.3997  0.3055  0.2062
12288TIP3    H158279   3.070   4.529  11.550 -0.9023 -1.3320  1.5793
12288TIP3    H258280   3.140   4.398  11.522  0.0002 -0.4492 -0.4498
12289TIP3   OH258281   3.071   6.407  12.390 -0.4298 -0.4992  0.3532
12289TIP3    H158282   3.081   6.345  12.318  0.7383 -0.2656  0.2939
12289TIP3    H258283   3.104   6.360  12.467  1.8760  0.5056  0.0533
12290TIP3   OH258284   4.998   0.328   4.747 -1.1228 -0.3834  0.1189
12290TIP3    H158285   5.039   0.276   4.678 -1.4404 -2.1876  1.2327
12290TIP3    H258286   5.071   0.366   4.795 -0.8856  0.2816 -0.7503
12291TIP3   OH258287   2.169   5.499   5.963 -0.4800  0.3892 -0.0959
12291TIP3    H158288   2.147   5.492   6.056  2.3625  1.4633  0.7732
12291TIP3    H258289   2.166   5.409   5.931 -1.2671 -0.0281  1.0666
12292TIP3   OH258290   4.716   6.388  13.178  0.3813  0.4375 -0.2522
12292TIP3    H158291   4.622   6.380  13.190  0.0243 -0.1065 -2.7603
12292TIP3    H258292   4.754   6.354  13.259 -1.5561 -1.0770  0.0981
12293TIP3   OH258293   2.093   0.679  14.013 -0.1947  0.2111 -0.3353
12293TIP3    H158294   1.999   0.684  13.998  0.0523  0.3956 -2.0736
12293TIP3    H258295   2.111   0.751  14.074 -1.1358  0.3543 -0.2037
12294TIP3   OH258296   0.960   4.627   6.994 -0.3930 -0.1689 -0.3155
12294TIP3    H158297   1.038   4.633   6.940 -0.2482 -1.9854 -0.3691
12294TIP3    H258298   0.888   4.620   6.931 -0.6958  1.8119 -0.2742
12295TIP3   OH258299   5.501   4.455  11.996 -0.2921  0.1329  0.2920
12295TIP3    H158300   5.499   4.397  12.072  1.8934  1.1161  1.1625
12295TIP3    H258301   5.468   4.539  12.029  0.4611  0.5035  0.1027
12296TIP3   OH258302   5.608   3.588  13.336  0.8218 -0.8021  0.5481
12296TIP3    H158303   5.623   3.495  13.317 -1.8997 -0.7415 -2.8728
12296TIP3    H258304   5.515   3.594  13.358  0.7729  1.1853  0.0237
12297TIP3   OH258305   2.751   4.725  15.245  0.2358  0.1992  0.1344
12297TIP3    H158306   2.736   4.692  15.333  1.2938 -3.3513 -0.8668
12297TIP3    H258307   2.677   4.782  15.228 -0.1626  0.7486  3.1565
12298TIP3   OH258308   4.661   3.789  16.066 -0.7012  0.4411  0.0507
12298TIP3    H158309   4.697   3.771  16.153  2.9967  1.0175 -1.1539
12298TIP3    H258310   4.583   3.841  16.083 -2.5819 -2.8575  3.0495
12299TIP3   OH258311   0.958   1.002  11.573 -0.4056  0.3695 -0.4056
12299TIP3    H158312   0.943   0.949  11.495 -2.9627 -0.0460  0.2672
12299TIP3    H258313   1.054   1.007  11.581 -0.0853 -1.3542 -2.3270
12300TIP3   OH258314   1.153   4.534   4.152  0.5720  0.9077 -0.0278
12300TIP3    H158315   1.232   4.559   4.103  1.5898 -0.8223  0.6475
12300TIP3    H258316   1.168   4.568   4.240 -0.2486  2.0488 -0.2933
12301TIP3   OH258317   3.199   0.251  12.328  0.8391 -0.2991 -0.0113
12301TIP3    H158318   3.209   0.304  12.248  2.3945 -0.5007  0.0155
12301TIP3    H258319   3.136   0.300  12.381  0.8626  0.5798 -0.7523
12302TIP3   OH258320   3.908   4.098   6.447  0.8456 -0.0629  0.0876
12302TIP3    H158321   3.910   4.175   6.389 -0.4808  0.5807  0.8539
12302TIP3    H258322   3.849   4.037   6.402  0.1082  0.2913  0.5415
12303TIP3   OH258323   4.938   3.452  13.469  0.2880  0.5665 -0.0850
12303TIP3    H158324   4.915   3.403  13.390 -0.0379  1.4915 -0.5692
12303TIP3    H258325   5.033   3.467  13.461  0.7281 -1.3153  0.8377
12304TIP3   OH258326   1.125   6.107  15.710 -0.4012 -0.0154 -0.0275
12304TIP3    H158327   1.157   6.136  15.795 -1.7404 -0.8444  0.7919
12304TIP3    H258328   1.104   6.188  15.663 -1.1290  0.4291  1.0303
12305TIP3   OH258329   4.268   6.196  14.688 -0.0895 -0.1702 -0.8269
12305TIP3    H158330   4.221   6.123  14.728 -0.9130 -1.3529 -3.7485
12305TIP3    H258331   4.208   6.271  14.700 -1.0266 -0.8366 -1.2006
12306TIP3   OH258332   5.623   0.085   5.974 -0.2676  0.5992 -0.2927
12306TIP3    H158333   5.636  -0.009   5.985 -0.6937  0.6137  0.3538
12306TIP3    H258334   5.668   0.105   5.892 -0.0254 -0.1347 -0.3510
12307TIP3   OH258335   6.087   3.892  11.767  0.0484  0.0229  0.0384
12307TIP3    H158336   6.070   3.816  11.712 -0.0985  1.2355 -1.7041
12307TIP3    H258337   6.002   3.911  11.808  0.5831 -1.9871  2.2594
12308TIP3   OH258338   3.319   4.564   5.087 -0.1895 -0.3486 -0.1084
12308TIP3    H158339   3.402   4.524   5.114 -0.3390 -0.3498  0.3574
12308TIP3    H258340   3.303   4.529   5.000 -0.7939 -2.0906  0.6416
12309TIP3   OH258341   4.444   0.611  11.464 -0.5228 -0.5115 -0.2218
12309TIP3    H158342   4.493   0.608  11.382 -2.2031 -1.4432 -1.2440
12309TIP3    H258343   4.424   0.519  11.483 -0.9786 -0.2273  0.7261
12310TIP3   OH258344   1.356   1.103   1.057  0.1433 -0.3268  0.4385
12310TIP3    H158345   1.286   1.169   1.058 -0.1648 -0.5952 -1.1026
12310TIP3    H258346   1.374   1.088   0.965  0.4394 -2.1743  0.7503
12311TIP3   OH258347   1.011   6.374   0.301 -0.1770  0.1089 -0.0680
12311TIP3    H158348   0.979   6.422   0.378 -1.6869  0.4732 -0.8891
12311TIP3    H258349   0.939   6.315   0.278 -0.1146  0.6429 -1.7207
12312TIP3   OH258350   1.427   1.119   0.568 -0.4501 -0.4397  0.3923
12312TIP3    H158351   1.508   1.074   0.592 -0.6781 -0.7028  0.6856
12312TIP3    H258352   1.391   1.149   0.652 -1.8424 -2.3491  0.5487
12313TIP3   OH258353   3.937   0.235  14.195  0.3030 -0.0076 -0.4044
12313TIP3    H158354   3.956   0.267  14.283 -0.4855 -0.1693 -0.1616
12313TIP3    H258355   3.874   0.298  14.159  1.2410  0.5218 -1.1826
12314TIP3   OH258356   1.650   5.653   5.937 -0.4780  0.1632  0.0853
12314TIP3    H158357   1.742   5.629   5.923 -0.6072  0.2132 -0.9832
12314TIP3    H258358   1.615   5.584   5.993 -0.6304 -1.7673 -2.2175
12315TIP3   OH258359   6.101   2.007  15.922  0.1260  0.4510  0.1200
12315TIP3    H158360   6.113   2.102  15.913 -1.4732  0.6163 -0.6714
12315TIP3    H258361   6.084   1.994  16.015 -2.3242  1.3531 -0.1266
12316TIP3   OH258362   6.556   2.180   0.451  0.3233  0.5383 -0.7158
12316TIP3    H158363   6.650   2.173   0.434  0.5443  0.3680  0.4514
12316TIP3    H258364   6.549   2.171   0.547 -0.9204  0.0415 -0.8375
12317TIP3   OH258365   1.959   6.296   1.468  0.0182 -0.3323  0.0376
12317TIP3    H158366   2.026   6.335   1.412 -1.9856  1.5017 -1.2938
12317TIP3    H258367   2.001   6.284   1.553  2.0444  0.5973 -0.7788
12318TIP3   OH258368   3.851   3.788  11.981 -0.3725 -0.2329  0.1323
12318TIP3    H158369   3.800   3.848  12.036 -0.1634  1.2034 -1.1612
12318TIP3    H258370   3.940   3.792  12.017 -0.1906  0.8605 -0.3756
12319TIP3   OH258371   5.326   5.919  16.484  0.3839 -0.3457  0.0264
12319TIP3    H158372   5.321   5.946  16.575  2.3814 -0.4540  0.1999
12319TIP3    H258373   5.291   5.830  16.482 -0.1589 -0.1470  0.5792
12320TIP3   OH258374   1.318   4.810   4.006  0.0391  0.3643  0.1603
12320TIP3    H158375   1.339   4.875   3.938  0.7215  1.8193  1.7090
12320TIP3    H258376   1.339   4.726   3.965 -0.6727  1.0912 -1.8328
12321TIP3   OH258377   1.802   3.682  13.483 -0.2439  0.8928  0.0973
12321TIP3    H158378   1.799   3.777  13.497 -0.0462  1.1281 -1.3188
12321TIP3    H258379   1.746   3.667  13.407 -0.3342 -0.1456  0.3502
12322TIP3   OH258380   0.517   0.169   2.005  0.0643  0.5377 -0.0542
12322TIP3    H158381   0.542   0.099   2.065 -0.0478 -1.2983 -2.0151
12322TIP3    H258382   0.599   0.210   1.979  0.3134 -0.0633 -0.2353
12323TIP3   OH258383   0.682   4.911  13.896  0.2897  0.0392  0.1861
12323TIP3    H158384   0.652   4.905  13.986  2.1487  1.4013  0.9678
12323TIP3    H258385   0.655   4.998  13.867 -0.7676 -0.5862 -0.7892
12324TIP3   OH258386   3.231   1.068   3.979  0.0968 -0.0963 -0.9425
12324TIP3    H158387   3.324   1.077   4.002  0.0106  0.7062 -0.9087
12324TIP3    H258388   3.227   1.090   3.886 -0.2313  0.9843 -0.6771
12325TIP3   OH258389   6.237   5.819   5.862 -0.6341 -0.1753 -0.2500
12325TIP3    H158390   6.330   5.796   5.852 -0.4623 -0.7121  1.9899
12325TIP3    H258391   6.239   5.911   5.887 -0.4319 -0.8264  2.4493
12326TIP3   OH258392   1.758   3.593  12.580 -0.5253  0.2929 -0.4974
12326TIP3    H158393   1.733   3.682  12.557 -1.8475 -0.4442 -2.1186
12326TIP3    H258394   1.680   3.556  12.621  0.4823  0.2850  1.5188
12327TIP3   OH258395   4.628   4.090  11.970 -0.4048  0.3894  0.1328
12327TIP3    H158396   4.556   4.100  11.909  0.5344  0.8888 -0.9394
12327TIP3    H258397   4.670   4.176  11.973  0.1099  0.1326  0.7764
12328TIP3   OH258398   0.060   5.754  16.856 -0.3286  0.4689  0.0455
12328TIP3    H158399   0.005   5.744  16.778 -0.6354 -0.7008  0.4054
12328TIP3    H258400   0.137   5.801  16.824 -0.6089  0.3206 -0.8861
12329TIP3   OH258401   5.339   2.896   2.209  0.1816 -0.3772 -0.2343
12329TIP3    H158402   5.287   2.823   2.242  1.0358 -0.9705 -0.1509
12329TIP3    H258403   5.352   2.876   2.116  3.0843 -2.0750  0.4025
12330TIP3   OH258404   1.934   1.309   5.000 -0.5006  0.0840 -0.1587
12330TIP3    H158405   1.908   1.360   5.076 -3.6166 -0.6510 -0.6178
12330TIP3    H258406   1.908   1.220   5.020  0.4980 -0.4984 -1.2933
12331TIP3   OH258407   6.474   2.534   5.258  0.1790  0.0102 -0.0919
12331TIP3    H158408   6.511   2.550   5.345  2.2587 -0.9774 -0.7093
12331TIP3    H258409   6.519   2.596   5.201  1.1125 -1.3474 -0.9035
12332TIP3   OH258410   5.017   0.027  13.193  0.1477  0.4410  0.1420
12332TIP3    H158411   5.031   0.047  13.100  1.6408 -1.3824 -0.0816
12332TIP3    H258412   5.014  -0.069  13.197  0.1423  0.4814  1.9865
12333TIP3   OH258413   2.206   2.637   3.547 -0.1678 -0.0984  0.1075
12333TIP3    H158414   2.147   2.562   3.553  1.6776 -1.5901  0.7429
12333TIP3    H258415   2.239   2.634   3.457  0.0608 -0.1784  0.1930
12334TIP3   OH258416   0.529   2.765  12.096 -0.3305 -0.4359  0.1962
12334TIP3    H158417   0.471   2.689  12.102 -0.2545 -0.4509  0.9389
12334TIP3    H258418   0.497   2.825  12.164  0.1225 -0.1721  0.1827
12335TIP3   OH258419   5.791   6.591  17.160 -0.4742  0.6672  0.0691
12335TIP3    H158420   5.864   6.634  17.118  0.0288  1.4923  1.6887
12335TIP3    H258421   5.713   6.637  17.128 -0.3591 -0.3236 -1.7831
12336TIP3   OH258422   6.593   3.042   1.785  0.0445  0.8573 -0.3540
12336TIP3    H158423   6.620   3.118   1.836 -0.4123  0.5388  0.3726
12336TIP3    H258424   6.602   2.968   1.845  2.8989 -0.0879 -1.7688
12337TIP3   OH258425   5.595   6.050  17.004 -0.4892 -0.1023  0.0170
12337TIP3    H158426   5.581   6.061  16.910 -0.5681  2.1946  0.2497
12337TIP3    H258427   5.690   6.060  17.015 -0.4804 -0.3691  0.1864
12338TIP3   OH258428   6.685   4.269   6.013 -0.3987 -0.3523  0.2087
12338TIP3    H158429   6.738   4.257   6.091  0.0922 -0.1446 -0.0833
12338TIP3    H258430   6.721   4.208   5.949 -0.9989 -0.7458  0.2377
12339TIP3   OH258431   4.521   6.273  14.282  0.1388  0.2305 -0.5304
12339TIP3    H158432   4.562   6.346  14.329 -0.4171  1.0656 -1.3351
12339TIP3    H258433   4.585   6.249  14.216  1.1543 -1.2895  0.9163
12340TIP3   OH258434   3.400   2.291  12.257 -0.2901  0.2102  0.8607
12340TIP3    H158435   3.314   2.268  12.220 -1.5230  1.9520  2.4253
12340TIP3    H258436   3.453   2.315  12.182 -0.6954 -2.2245 -0.2766
12341TIP3   OH258437   2.765   3.236   0.725 -0.4138  0.5010  0.4022
12341TIP3    H158438   2.820   3.159   0.742 -1.9489 -0.4167  1.5175
12341TIP3    H258439   2.700   3.205   0.662 -0.5749  1.1263  0.2579
12342TIP3   OH258440   5.173   2.395  10.364 -0.4120  0.3937 -0.0873
12342TIP3    H158441   5.171   2.390  10.268 -1.5044  0.0486 -0.0582
12342TIP3    H258442   5.228   2.471  10.383  0.4483  0.0141 -0.9672
12343TIP3   OH258443   1.850   6.429   5.952 -0.0178  0.1062  0.6091
12343TIP3    H158444   1.866   6.356   6.011  1.9948  1.2602  1.5873
12343TIP3    H258445   1.907   6.413   5.877  0.2012  0.5262  0.6856
12344TIP3   OH258446   1.190   6.337   0.664  0.0865  0.1580 -0.4806
12344TIP3    H158447   1.184   6.245   0.689  1.9852  0.1864  0.2131
12344TIP3    H258448   1.259   6.340   0.598  0.1180  1.1066 -0.4130
12345TIP3   OH258449   3.360   2.095  16.826 -0.5286 -0.5268  0.2331
12345TIP3    H158450   3.420   2.113  16.898 -0.2763  1.4446 -0.4056
12345TIP3    H258451   3.335   2.003  16.837  1.4212 -0.9631  1.3718
12346TIP3   OH258452   1.171   1.310   5.127  0.4274  0.2044  0.7171
12346TIP3    H158453   1.155   1.252   5.202  2.6696 -0.5120  0.7362
12346TIP3    H258454   1.214   1.253   5.063 -0.2434  1.1267 -0.5855
12347TIP3   OH258455   1.867   5.041   6.419  0.2729 -0.2901  0.6191
12347TIP3    H158456   1.923   5.106   6.377  0.7218 -0.5666  0.7840
12347TIP3    H258457   1.779   5.064   6.391  0.5461 -0.3784 -0.3422
12348TIP3   OH258458   0.799   5.858   5.643 -0.1453  0.4547 -0.0906
12348TIP3    H158459   0.785   5.765   5.625 -0.1909  0.4523 -0.0428
12348TIP3    H258460   0.892   5.865   5.662 -0.2123  0.3552  0.2862
12349TIP3   OH258461   3.443   3.614   4.271 -0.6534 -0.6090  0.1768
12349TIP3    H158462   3.403   3.675   4.333  0.3312 -0.9134  1.1474
12349TIP3    H258463   3.393   3.626   4.190 -1.0069  0.8836  0.5810
12350TIP3   OH258464   2.134   0.104  12.670  0.1418  0.0544 -0.4435
12350TIP3    H158465   2.043   0.082  12.647  0.5413 -1.3888 -0.7388
12350TIP3    H258466   2.182   0.023  12.657  0.8845 -0.2045  3.0777
12351TIP3   OH258467   3.942   0.839  15.593 -0.3744  0.4665  0.2173
12351TIP3    H158468   3.941   0.768  15.657 -2.0561 -0.6081 -0.9411
12351TIP3    H258469   3.971   0.798  15.512  2.7328  2.0242  0.4071
12352TIP3   OH258470   6.354   2.788  11.425 -0.2365 -0.0593  0.0017
12352TIP3    H158471   6.438   2.779  11.470  0.1290 -1.4124 -0.8906
12352TIP3    H258472   6.353   2.879  11.395  0.9786 -0.0469 -0.0603
12353TIP3   OH258473   1.810   1.861  16.786  0.2434 -0.1157 -0.1405
12353TIP3    H158474   1.891   1.818  16.812 -0.2357 -0.0770  1.5612
12353TIP3    H258475   1.823   1.953  16.810 -1.2760 -0.5669  2.8656
12354TIP3   OH258476   2.488   6.168  16.732 -0.2740 -0.6039 -1.0038
12354TIP3    H158477   2.472   6.113  16.656  0.1328  0.0864 -1.5981
12354TIP3    H258478   2.577   6.148  16.759 -1.0801 -2.3685  0.5861
12355TIP3   OH258479   1.408   1.839  14.425  0.0133  0.0148 -0.1478
12355TIP3    H158480   1.412   1.852  14.331 -1.3489 -1.1743 -0.3914
12355TIP3    H258481   1.461   1.910  14.461  0.3042  0.6627 -1.7800
12356TIP3   OH258482   2.884   4.366   6.804  0.0404 -0.2664 -0.1008
12356TIP3    H158483   2.902   4.294   6.743 -1.2805  0.2526 -1.1652
12356TIP3    H258484   2.796   4.346   6.838  0.1352  0.2567  0.4531
12357TIP3   OH258485   2.206   6.561   5.932  0.3222  0.6202  0.4179
12357TIP3    H158486   2.114   6.544   5.954 -0.3565  1.3562 -1.6363
12357TIP3    H258487   2.231   6.487   5.876  0.6802  0.9189  0.1799
12358TIP3   OH258488   3.677   5.594   2.647 -0.0120 -0.3670  0.6831
12358TIP3    H158489   3.720   5.676   2.622 -0.0760 -0.0917  1.4585
12358TIP3    H258490   3.591   5.599   2.606  0.5231 -0.7411 -0.5440
12359TIP3   OH258491   1.861   5.885   4.744  0.1638  1.2108 -0.1234
12359TIP3    H158492   1.794   5.889   4.812  1.9762  1.4070  1.7664
12359TIP3    H258493   1.886   5.793   4.740 -0.4779  1.0760 -1.0967
12360TIP3   OH258494   2.401   3.882   6.559 -0.2944 -0.6216  0.0284
12360TIP3    H158495   2.425   3.958   6.611  0.1804 -0.5287 -0.3200
12360TIP3    H258496   2.325   3.911   6.509  1.1891  0.3801 -1.7606
12361TIP3   OH258497   2.445   3.909   4.507 -0.4843 -0.3281 -0.0871
12361TIP3    H158498   2.375   3.927   4.444  0.7410  0.9178 -1.1624
12361TIP3    H258499   2.431   3.819   4.535 -1.2043 -0.8405 -1.9794
12362TIP3   OH258500   2.654   0.067  15.543  0.4160  0.0483  0.2601
12362TIP3    H158501   2.722   0.024  15.594 -0.4965  0.3822  1.8397
12362TIP3    H258502   2.591   0.099  15.608  0.1899  2.2796 -0.9438
12363TIP3   OH258503   4.927   3.831  12.149  0.2187  0.4822  0.6680
12363TIP3    H158504   4.944   3.763  12.084 -0.6556 -0.3413  1.2815
12363TIP3    H258505   5.006   3.831  12.204  0.9575  1.1751 -0.3509
12364TIP3   OH258506   1.430   5.102   1.854 -0.9384  0.2320  0.1563
12364TIP3    H158507   1.447   5.102   1.760  2.1218  0.6647  0.6077
12364TIP3    H258508   1.428   5.195   1.878  1.1886  0.1574  0.8610
12365TIP3   OH258509   0.717   2.694  11.017 -0.3718  0.1506 -0.0378
12365TIP3    H158510   0.635   2.735  10.992 -0.2583 -0.1024 -0.8604
12365TIP3    H258511   0.705   2.601  10.998 -0.0245  0.0570  0.1747
12366TIP3   OH258512   3.860   2.656   2.625 -0.3125 -0.0900  0.8317
12366TIP3    H158513   3.907   2.644   2.543  0.0859 -0.9257  1.1674
12366TIP3    H258514   3.794   2.722   2.606 -0.6371 -0.7219 -0.3364
12367TIP3   OH258515   6.293   6.560   5.994 -0.1656 -0.8727  0.1500
12367TIP3    H158516   6.271   6.582   6.084  0.4667 -0.9249  0.3224
12367TIP3    H258517   6.268   6.467   5.985 -2.0334 -0.3734 -0.3239
12368TIP3   OH258518   3.609   1.860   1.327 -0.4169 -0.4955  0.3577
12368TIP3    H158519   3.576   1.948   1.344 -1.3047 -0.5702 -0.8604
12368TIP3    H258520   3.636   1.862   1.235  1.3464 -0.9670  0.8186
12369TIP3   OH258521   4.292   1.965   4.173  0.4374  0.2403 -0.5121
12369TIP3    H158522   4.268   1.927   4.257  0.3514 -1.5412 -1.3092
12369TIP3    H258523   4.378   2.006   4.189  1.4933 -1.9857 -0.0479
12370TIP3   OH258524   6.248   1.090  16.999  0.0047  0.4876 -0.3409
12370TIP3    H158525   6.156   1.082  17.025  0.4785  0.4139  1.4529
12370TIP3    H258526   6.285   1.003  17.016  0.9009  1.1250  1.1830
12371TIP3   OH258527   0.449   0.474  16.628  0.0664  0.1366 -0.2466
12371TIP3    H158528   0.384   0.513  16.570  0.9935 -0.0914 -1.4847
12371TIP3    H258529   0.424   0.382  16.635  0.2481  0.0481 -0.7260
12372TIP3   OH258530   6.543   1.266   2.622  0.9119  0.3377 -0.5011
12372TIP3    H158531   6.504   1.185   2.654  1.0457  0.2518 -0.5545
12372TIP3    H258532   6.558   1.319   2.700 -0.7531  1.0173 -0.6134
12373TIP3   OH258533   3.136   6.376   2.532 -0.0134  0.2688 -0.0673
12373TIP3    H158534   3.207   6.318   2.559  1.1711 -0.1529 -3.6083
12373TIP3    H258535   3.159   6.461   2.570 -1.2172 -1.1156  4.3029
12374TIP3   OH258536   5.947   0.150  12.441 -0.6100  0.6784  0.0768
12374TIP3    H158537   5.987   0.122  12.359  0.5948  1.1594  0.4753
12374TIP3    H258538   6.021   0.164  12.500 -1.5060 -2.0796  2.0757
12375TIP3   OH258539   2.101   6.524  14.214 -0.2110  0.0231  0.3085
12375TIP3    H158540   2.110   6.610  14.255 -0.7146 -0.3456  1.2223
12375TIP3    H258541   2.191   6.494  14.201  0.0026  1.1885 -1.1389
12376TIP3   OH258542   2.089   3.127   3.795  0.2305  0.1699  0.3495
12376TIP3    H158543   2.075   3.182   3.872  1.4712  0.7162  0.2007
12376TIP3    H258544   2.184   3.127   3.783  0.0419  0.1640 -1.2362
12377TIP3   OH258545   3.059   3.173   3.175  0.5673  0.2527  0.6577
12377TIP3    H158546   3.017   3.108   3.120  0.7339 -0.0582  0.8976
12377TIP3    H258547   3.050   3.255   3.127 -0.4067  0.2124  0.7615
12378TIP3   OH258548   3.151   5.202   3.409 -0.1964  0.1676 -0.8583
12378TIP3    H158549   3.088   5.235   3.473 -0.0992 -0.2115 -0.5600
12378TIP3    H258550   3.125   5.242   3.326 -0.9409 -0.1292 -0.7760
12379TIP3   OH258551   0.742   0.809  14.795  0.4851 -0.4768 -0.0356
12379TIP3    H158552   0.704   0.883  14.843  0.4672 -0.7672  0.4087
12379TIP3    H258553   0.672   0.779  14.737  0.4053 -0.3117 -0.0238
12380TIP3   OH258554   1.800   6.002  16.441 -0.2628  0.1871  0.1315
12380TIP3    H158555   1.877   6.016  16.386 -0.6302 -4.0820 -1.8864
12380TIP3    H258556   1.831   5.949  16.514 -1.0372 -0.7660 -0.2007
12381TIP3   OH258557   1.562   0.474   4.231  0.3292  0.1016 -0.5980
12381TIP3    H158558   1.489   0.480   4.293 -0.5356  0.3123 -1.6011
12381TIP3    H258559   1.574   0.564   4.200  1.6808  0.2463  0.2738
12382TIP3   OH258560   2.596   3.302   0.345 -0.3401  0.2206  0.7838
12382TIP3    H158561   2.584   3.293   0.251  2.6824  1.1845  0.1807
12382TIP3    H258562   2.537   3.372   0.371  0.2003  1.3255 -0.8307
12383TIP3   OH258563   5.901   6.431   4.629  0.2486 -0.7252 -0.3003
12383TIP3    H158564   5.830   6.397   4.576 -0.4200 -0.0900  0.1740
12383TIP3    H258565   5.915   6.365   4.696 -1.6838  0.2833  1.1974
12384TIP3   OH258566   5.037   1.876  14.757 -0.4092 -0.1390  0.2478
12384TIP3    H158567   5.035   1.884  14.661  0.0312  0.8668  0.3084
12384TIP3    H258568   4.990   1.953  14.789  0.0852 -0.0787  0.8484
12385TIP3   OH258569   3.700   6.424   4.782  0.0967  0.0450 -0.6310
12385TIP3    H158570   3.646   6.478   4.723 -0.6955  0.9163  0.8490
12385TIP3    H258571   3.774   6.397   4.728 -0.2366  1.4144 -1.8295
12386TIP3   OH258572   0.938   4.007   3.998 -0.0398 -0.4648  0.5074
12386TIP3    H158573   0.907   3.990   3.908  1.9602 -2.7271  0.1427
12386TIP3    H258574   0.954   4.101   4.000  0.7418 -0.4693 -1.8568
12387TIP3   OH258575   0.033   0.849   2.113 -0.1149  0.3925  0.1872
12387TIP3    H158576   0.001   0.873   2.200  1.5306 -0.7435  1.1439
12387TIP3    H258577   0.041   0.754   2.116  0.7787  0.4218 -0.9254
12388TIP3   OH258578   5.942   5.338  15.793  0.2844  0.1813 -0.3281
12388TIP3    H158579   5.954   5.365  15.884  0.1158  0.5023 -0.3979
12388TIP3    H258580   5.951   5.243  15.794  1.5532  0.2875 -0.1739
12389TIP3   OH258581   1.295   4.224   4.507 -0.1057  0.2589 -0.1661
12389TIP3    H158582   1.308   4.129   4.515 -3.8837 -0.6269 -1.9361
12389TIP3    H258583   1.320   4.244   4.417  0.2632  0.8524  0.0660
12390TIP3   OH258584   0.924   0.885   4.942  0.2232  0.4107 -0.3793
12390TIP3    H158585   1.015   0.900   4.966  0.3917  0.8968 -1.2755
12390TIP3    H258586   0.928   0.838   4.859 -0.3433 -0.7108  0.2022
12391TIP3   OH258587   4.631   3.954   3.406  0.1700 -0.2808 -0.2955
12391TIP3    H158588   4.618   4.033   3.459 -0.6149 -1.5395  1.5163
12391TIP3    H258589   4.584   3.886   3.454 -0.8122 -1.4922 -2.7948
12392TIP3   OH258590   4.534   5.398  14.609 -0.2664  0.2926 -0.0121
12392TIP3    H158591   4.585   5.425  14.532 -0.9967  0.8619 -0.3021
12392TIP3    H258592   4.582   5.435  14.684  0.9829 -1.0583 -0.0870
12393TIP3   OH258593   6.523   2.849   5.815 -0.5658 -0.3042  0.0882
12393TIP3    H158594   6.486   2.808   5.893 -1.1563 -1.2553 -0.6684
12393TIP3    H258595   6.598   2.794   5.793 -0.0090  0.3453  0.3625
12394TIP3   OH258596   2.056   0.456   2.324  0.6252 -0.0092 -0.5484
12394TIP3    H158597   2.100   0.477   2.242  0.2281  1.9771 -0.3132
12394TIP3    H258598   1.983   0.517   2.328  0.3937 -0.3483  1.0903
12395TIP3   OH258599   1.104   0.467  11.436 -0.1535  0.3631 -0.7456
12395TIP3    H158600   1.194   0.486  11.409 -0.3051  1.1174 -0.7589
12395TIP3    H258601   1.087   0.379  11.404  1.2905 -0.6428  1.0261
12396TIP3   OH258602   2.884   4.276   4.934  0.1277 -0.8771 -0.6833
12396TIP3    H158603   2.955   4.302   4.993 -0.6376 -1.2991  0.4485
12396TIP3    H258604   2.871   4.352   4.877 -1.0307  0.7230  1.5513
12397TIP3   OH258605   5.611   3.862   1.471 -0.0660  0.2003  0.4454
12397TIP3    H158606   5.651   3.936   1.427 -0.8585  0.1432 -0.3874
12397TIP3    H258607   5.637   3.786   1.419  0.7324 -0.1215  1.2857
12398TIP3   OH258608   4.170   0.167  16.994 -0.3752  0.0664 -0.0715
12398TIP3    H158609   4.232   0.117  17.047 -1.4611 -1.0445  0.2043
12398TIP3    H258610   4.141   0.105  16.927  0.7152  1.3373 -1.8083
12399TIP3   OH258611   0.004   0.904  11.969  0.0547  0.0005  0.4598
12399TIP3    H158612   0.071   0.909  12.037  1.5825 -1.8903 -0.8189
12399TIP3    H258613  -0.075   0.939  12.011  1.8040  2.4675  1.9616
12400TIP3   OH258614   4.725   1.383  14.759  0.2378 -0.2973 -0.7636
12400TIP3    H158615   4.654   1.385  14.823  1.3289  2.8764  0.5442
12400TIP3    H258616   4.690   1.429  14.682 -0.2792 -2.0333 -1.6225
12401TIP3   OH258617   3.768   4.942  13.025 -0.2299 -0.1626  0.0552
12401TIP3    H158618   3.793   5.018  12.972 -0.1685 -1.1169 -1.3488
12401TIP3    H258619   3.764   4.976  13.114  1.0184  1.2109 -0.3498
12402TIP3   OH258620   5.634   6.127   2.602  0.2708  0.4679  0.3970
12402TIP3    H158621   5.674   6.209   2.627  1.1002  0.5075 -0.9775
12402TIP3    H258622   5.701   6.081   2.552  0.0324 -1.3132  1.5982
12403TIP3   OH258623   6.074   3.631   0.860 -0.4481  0.2214  0.0689
12403TIP3    H158624   6.142   3.564   0.853  1.4511  2.1912 -1.7266
12403TIP3    H258625   6.027   3.627   0.777 -0.3691  1.0659 -0.0201
12404TIP3   OH258626   1.675   1.426  16.832 -0.9982  0.7478  0.5829
12404TIP3    H158627   1.676   1.506  16.883  0.0498 -0.4893  2.6364
12404TIP3    H258628   1.763   1.422  16.793 -0.2655 -0.3617  2.2128
12405TIP3   OH258629   0.335   4.121  11.651  0.1287  0.1845  0.2902
12405TIP3    H158630   0.344   4.085  11.563  1.2995 -1.5652  1.0864
12405TIP3    H258631   0.288   4.204  11.638  1.0658  0.4164 -2.0611
12406TIP3   OH258632   5.653   3.015   6.445 -0.4522  0.6177 -0.0023
12406TIP3    H158633   5.665   3.094   6.499 -0.4125  0.7692 -0.2316
12406TIP3    H258634   5.561   2.991   6.458 -0.0226 -0.3516  1.4976
12407TIP3   OH258635   3.864   1.607   0.129 -0.2941 -0.0685  0.0757
12407TIP3    H158636   3.883   1.557   0.049 -2.3611  0.0982 -0.5807
12407TIP3    H258637   3.791   1.664   0.105  0.6333  1.8112  1.4063
12408TIP3   OH258638   4.226   0.557  12.161 -0.5257 -0.2918 -0.5849
12408TIP3    H158639   4.257   0.619  12.227  1.8292  0.0519 -1.8931
12408TIP3    H258640   4.279   0.479  12.175 -0.4707 -0.4489 -1.6054
12409TIP3   OH258641   4.290   6.714  15.379  0.1422 -0.0078  0.4651
12409TIP3    H158642   4.301   6.775  15.452  2.5630 -0.9777  1.0004
12409TIP3    H258643   4.254   6.635  15.420 -1.9067  0.6114 -0.0395
12410TIP3   OH258644   0.853   3.786  16.458  0.6489 -0.0310 -0.1621
12410TIP3    H158645   0.880   3.830  16.539  0.7357 -0.6823  0.1739
12410TIP3    H258646   0.759   3.803  16.451  0.9805  1.6425 -0.9483
12411TIP3   OH258647   0.990   2.032  15.981  0.0469 -0.1256  0.3808
12411TIP3    H158648   0.933   2.007  16.054 -1.0355  0.1475 -0.3482
12411TIP3    H258649   0.982   2.127  15.976  1.7197  0.1021  1.1696
12412TIP3   OH258650   2.305   4.182  12.380  0.2215  0.4766  0.2554
12412TIP3    H158651   2.317   4.087  12.378  0.2176  0.4830 -0.2385
12412TIP3    H258652   2.375   4.216  12.324 -0.0059  0.7397  0.1263
12413TIP3   OH258653   3.772   1.706   5.899 -0.4972 -0.0978  0.1973
12413TIP3    H158654   3.759   1.632   5.959 -1.2649  0.2638  0.4974
12413TIP3    H258655   3.683   1.733   5.875 -0.3088  1.9014  1.5408
12414TIP3   OH258656   2.080   2.271  12.364  0.8394  0.0613 -0.1868
12414TIP3    H158657   2.161   2.313  12.333 -0.1459  0.2749 -2.7443
12414TIP3    H258658   2.060   2.206  12.296 -0.5177 -0.8551  1.0211
12415TIP3   OH258659   3.663   2.938   3.809 -0.2858 -0.0854 -0.4376
12415TIP3    H158660   3.608   2.865   3.838  0.8862 -0.5070  0.8804
12415TIP3    H258661   3.683   2.986   3.889  1.4200 -0.0805 -0.8335
12416TIP3   OH258662   5.574   5.808   0.326 -1.3196 -0.2042 -0.7898
12416TIP3    H158663   5.614   5.726   0.353 -0.5448  0.0328 -1.2089
12416TIP3    H258664   5.546   5.849   0.408 -0.1901 -0.1075 -0.4434
12417TIP3   OH258665   1.297   6.249  16.940  0.0396  0.3102 -0.0479
12417TIP3    H158666   1.214   6.233  16.986  0.1329  0.2508  0.0984
12417TIP3    H258667   1.273   6.309  16.870 -0.9336 -2.7331 -2.5419
12418TIP3   OH258668   2.437   5.692   3.099 -0.2244 -0.0618 -0.5959
12418TIP3    H158669   2.521   5.667   3.137  0.0885 -0.4532 -1.5102
12418TIP3    H258670   2.379   5.618   3.117 -1.0498  1.0953  1.9631
12419TIP3   OH258671   4.667   3.939  12.201  0.2282  0.1209  0.6855
12419TIP3    H158672   4.667   3.957  12.107  0.7261 -1.9722  0.2212
12419TIP3    H258673   4.758   3.948  12.227  0.0120  1.2189  1.1071
12420TIP3   OH258674   1.469   4.059   5.405 -0.7950  0.1242 -0.6161
12420TIP3    H158675   1.434   4.071   5.494 -0.6113  0.3649 -0.5752
12420TIP3    H258676   1.523   3.980   5.412  0.7884  1.2070 -0.0209
12421TIP3   OH258677   3.407   3.257  11.902 -0.2478  0.7700 -0.1890
12421TIP3    H158678   3.326   3.263  11.952  0.1413  0.1536  0.5459
12421TIP3    H258679   3.387   3.196  11.830  0.0431 -0.8605  1.0406
12422TIP3   OH258680   5.746   1.961   1.124  0.1609  0.8304  0.1108
12422TIP3    H158681   5.729   2.053   1.104  1.8838  0.6130 -3.0003
12422TIP3    H258682   5.821   1.963   1.184 -0.0825  1.4705  0.3949
12423TIP3   OH258683   3.190   3.372  11.300 -0.1875 -0.4299 -0.0063
12423TIP3    H158684   3.274   3.377  11.345  1.1199 -2.9849 -1.8824
12423TIP3    H258685   3.151   3.290  11.331 -0.3394 -1.0155 -1.6348
12424TIP3   OH258686   1.912   0.154  13.787  0.1058 -0.1067  0.3030
12424TIP3    H158687   1.929   0.072  13.833  1.2661 -0.1058 -0.0715
12424TIP3    H258688   1.995   0.174  13.743  0.3552  2.0803  1.6423
12425TIP3   OH258689   0.265   3.865  15.390  0.6950  0.4073  0.4524
12425TIP3    H158690   0.254   3.803  15.462 -0.4600  0.6076  0.4666
12425TIP3    H258691   0.274   3.950  15.433  1.5324  0.3495  0.4054
12426TIP3   OH258692   4.199   4.718   3.893  0.1120  0.1879  0.8519
12426TIP3    H158693   4.253   4.771   3.951  1.3914 -0.1240  0.0194
12426TIP3    H258694   4.201   4.630   3.933  1.3137 -0.1193  0.1980
12427TIP3   OH258695   5.703   1.937  17.202  0.0877 -0.2872 -0.0371
12427TIP3    H158696   5.795   1.941  17.176 -0.1023  1.9359 -0.5137
12427TIP3    H258697   5.705   1.938  17.298  0.5489  0.9586 -0.0485
12428TIP3   OH258698   6.579   1.083  15.093  0.3256 -0.2766  0.2980
12428TIP3    H158699   6.646   1.151  15.091 -1.1035  1.1932  0.2326
12428TIP3    H258700   6.499   1.127  15.063 -0.7299 -1.9014  0.5903
12429TIP3   OH258701   2.266   4.488   1.287  0.6643  0.3816 -0.1581
12429TIP3    H158702   2.286   4.566   1.339  0.7463  0.0298  0.3482
12429TIP3    H258703   2.347   4.471   1.238  0.8454  0.2802  0.1714
12430TIP3   OH258704   1.795   0.792   3.573  0.1011  0.2033  0.2770
12430TIP3    H158705   1.864   0.858   3.565  0.4892 -0.1982  0.2996
12430TIP3    H258706   1.766   0.799   3.664 -0.4600  0.9316  0.0567
12431TIP3   OH258707   3.664   2.649   0.215  0.1782  0.3718  0.5552
12431TIP3    H158708   3.607   2.699   0.157 -0.8257 -1.1830  0.1267
12431TIP3    H258709   3.606   2.616   0.284  1.4185  2.4937  2.7526
12432TIP3   OH258710   2.574   0.762  13.270  0.0695  0.1265 -0.3397
12432TIP3    H158711   2.548   0.670  13.281 -0.9667  0.3619 -0.6444
12432TIP3    H258712   2.538   0.786  13.185 -0.5546  1.0956  0.1778
12433TIP3   OH258713   3.237   2.872  11.703 -0.0663  0.1892  0.1872
12433TIP3    H158714   3.162   2.851  11.758 -0.7863 -0.5280 -1.0354
12433TIP3    H258715   3.308   2.817  11.738 -0.5112 -0.2699  0.3873
12434TIP3   OH258716   0.979   3.045   3.900 -0.1324 -0.5493  0.1208
12434TIP3    H158717   1.029   3.107   3.953 -0.6516  0.6821 -0.7958
12434TIP3    H258718   0.908   3.016   3.958  0.4745 -0.7835  0.7603
12435TIP3   OH258719   3.569   3.872  14.737 -0.0890  0.3947  0.0797
12435TIP3    H158720   3.615   3.803  14.689 -1.4051  0.0941 -0.7937
12435TIP3    H258721   3.615   3.952  14.712  1.6220 -0.1475  1.3123
12436TIP3   OH258722   6.382   0.263   4.879 -0.3058 -0.0220 -0.8614
12436TIP3    H158723   6.372   0.306   4.794  2.1913  1.1236 -0.6563
12436TIP3    H258724   6.384   0.170   4.858  0.4595  0.2451 -2.1152
12437TIP3   OH258725   0.560   5.229  11.027  0.1002 -0.0570  0.4866
12437TIP3    H158726   0.469   5.200  11.036  0.5968 -1.2370  2.2358
12437TIP3    H258727   0.557   5.323  11.047 -0.9227  0.2614 -0.9965
12438TIP3   OH258728   0.430   5.061   1.118 -0.0414 -0.1946 -0.9052
12438TIP3    H158729   0.364   5.130   1.114 -0.2019 -0.3183 -0.4300
12438TIP3    H258730   0.399   5.002   1.186 -0.5453 -1.4088 -2.1257
12439TIP3   OH258731   1.016   2.620   0.409 -0.4674 -0.4816  0.0034
12439TIP3    H158732   1.018   2.715   0.420  0.4247 -0.2819 -1.6246
12439TIP3    H258733   0.949   2.605   0.342 -1.0436 -1.0656  0.6972
12440TIP3   OH258734   4.514   6.675  13.331 -0.9396  0.2260 -0.4639
12440TIP3    H158735   4.537   6.676  13.238 -0.5771  1.9854 -0.3944
12440TIP3    H258736   4.593   6.705  13.376 -0.9406 -1.1098  0.4841
12441TIP3   OH258737   5.135   3.685  12.272  0.4397 -0.7428  0.1791
12441TIP3    H158738   5.193   3.697  12.347  1.6210  0.8387 -0.9121
12441TIP3    H258739   5.144   3.593  12.248 -1.0964 -1.7104  2.7961
12442TIP3   OH258740   0.815   1.484   4.930 -0.0907 -0.0914 -0.3866
12442TIP3    H158741   0.826   1.447   5.018  0.4585 -0.3089 -0.5458
12442TIP3    H258742   0.738   1.540   4.938  0.5728  0.7492  0.5243
12443TIP3   OH258743   2.144   0.811  15.620  0.2227 -0.3172  0.4345
12443TIP3    H158744   2.067   0.801  15.563 -1.4091 -0.1111  2.4902
12443TIP3    H258745   2.217   0.821  15.559 -0.6948 -4.5004 -1.7082
12444TIP3   OH258746   6.710   5.958  12.087 -0.7575 -0.1478  0.3175
12444TIP3    H158747   6.778   5.997  12.032  0.3460 -0.7756  1.2123
12444TIP3    H258748   6.636   5.946  12.027 -0.2931  1.0399 -0.5495
12445TIP3   OH258749   0.910   0.687  17.307 -0.3728 -0.5332  0.2970
12445TIP3    H158750   0.974   0.753  17.280  1.1069 -1.9279  0.2481
12445TIP3    H258751   0.841   0.737  17.351 -0.4818  1.2820 -1.7710
12446TIP3   OH258752   5.383   4.036  13.242  0.3405 -0.4804 -0.1900
12446TIP3    H158753   5.447   4.106  13.251 -1.3744  1.1220  0.0945
12446TIP3    H258754   5.322   4.067  13.175  0.0478 -2.1325 -0.7459
12447TIP3   OH258755   6.482   6.300  12.766  0.2554  0.2899 -0.0706
12447TIP3    H158756   6.570   6.333  12.749 -0.5780  2.4333 -0.6035
12447TIP3    H258757   6.435   6.316  12.684 -0.7510 -0.3795  0.3663
12448TIP3   OH258758   6.256   1.426  16.070  0.0626 -0.0786 -0.1117
12448TIP3    H158759   6.324   1.391  16.127 -0.3134  0.0544  0.4307
12448TIP3    H258760   6.302   1.457  15.993  0.5929 -0.1627  0.1695
12449TIP3   OH258761   1.357   0.928   3.384 -0.1191 -0.5947 -0.1146
12449TIP3    H158762   1.292   0.861   3.400 -1.8910  0.5254 -2.1467
12449TIP3    H258763   1.434   0.880   3.352 -1.0194 -1.7482 -0.6223
12450TIP3   OH258764   5.150   1.769   0.669 -0.1908 -0.3389  0.5605
12450TIP3    H158765   5.112   1.686   0.696  0.3735 -0.6332  0.4752
12450TIP3    H258766   5.191   1.750   0.584 -2.6565  0.7531 -0.9855
12451TIP3   OH258767   2.529   4.727  11.729  0.6248 -0.5346 -0.1612
12451TIP3    H158768   2.481   4.678  11.795  2.3287 -1.2180  0.6463
12451TIP3    H258769   2.616   4.739  11.767  0.3161  3.1873 -0.2898
12452TIP3   OH258770   6.253   2.683   2.505 -0.2213 -0.6319  0.1070
12452TIP3    H158771   6.347   2.703   2.501 -0.1776 -1.0282 -2.9472
12452TIP3    H258772   6.249   2.597   2.548  0.8037 -0.6781  0.1439
12453TIP3   OH258773   6.721   5.564   5.957  0.2524  0.4442  0.0610
12453TIP3    H158774   6.709   5.490   6.017  0.9781 -0.4462 -0.8608
12453TIP3    H258775   6.694   5.530   5.871 -1.5002  1.9200 -0.0419
12454TIP3   OH258776   3.130   2.385  11.815 -0.8067  0.1809 -0.0386
12454TIP3    H158777   3.143   2.427  11.730  0.7999 -1.9537 -0.9313
12454TIP3    H258778   3.121   2.292  11.795  0.7418 -0.5282  2.1739
12455TIP3   OH258779   2.910   4.336  16.035  0.0169 -0.2836 -0.5444
12455TIP3    H158780   2.898   4.374  16.122  1.5320 -0.1032 -0.3783
12455TIP3    H258781   2.849   4.385  15.979  2.8309  3.6458 -0.6474
12456TIP3   OH258782   1.425   0.182  12.961  0.3061  0.3497  0.1284
12456TIP3    H158783   1.370   0.140  12.894 -1.5899  0.9299  1.2282
12456TIP3    H258784   1.380   0.265  12.979  2.7468  1.8885 -0.4205
12457TIP3   OH258785   1.652   1.217  13.613  0.0198  0.2950 -0.0176
12457TIP3    H158786   1.655   1.310  13.639 -1.8000 -0.1383  2.0311
12457TIP3    H258787   1.560   1.200  13.595  0.4563 -0.9317 -1.2053
12458TIP3   OH258788   0.219   1.049  14.882  0.1006 -0.3662  0.2338
12458TIP3    H158789   0.193   1.124  14.935  2.0945  1.9310 -1.7746
12458TIP3    H258790   0.254   0.986  14.945 -2.7191 -0.2221  2.1168
12459TIP3   OH258791   1.210   4.729   6.051  0.1275 -0.3562  0.7529
12459TIP3    H158792   1.154   4.651   6.062 -0.2873 -0.0840  0.6158
12459TIP3    H258793   1.194   4.781   6.129 -0.3646  0.0621  0.3789
12460TIP3   OH258794   0.977   5.601   1.495  0.0558 -0.3299 -0.3658
12460TIP3    H158795   0.992   5.622   1.587 -1.2496 -1.5024  0.1557
12460TIP3    H258796   0.927   5.675   1.462  0.9570  0.3300 -0.2793
12461TIP3   OH258797   2.866   3.528  12.356  0.5758 -0.2778  0.1993
12461TIP3    H158798   2.806   3.493  12.422  1.3895  1.2752  1.8461
12461TIP3    H258799   2.819   3.601  12.317  1.5849  1.5151  2.1141
12462TIP3   OH258800   5.804   1.195  14.512  0.3767  0.1118 -0.2016
12462TIP3    H158801   5.763   1.108  14.510  0.5063  0.0379  0.2453
12462TIP3    H258802   5.769   1.240  14.435  1.7542 -0.9977 -1.5535
12463TIP3   OH258803   0.029   2.381  13.481  0.3861 -0.2204 -0.5130
12463TIP3    H158804  -0.025   2.317  13.435  0.4219 -0.0753 -0.7556
12463TIP3    H258805  -0.030   2.420  13.545 -0.3030  1.2123 -1.9632
12464TIP3   OH258806   3.525   0.178   4.136  0.8261  0.7316 -0.3601
12464TIP3    H158807   3.614   0.205   4.158  0.8899  0.4333 -0.2609
12464TIP3    H258808   3.535   0.123   4.058  1.0191 -1.5109  1.1587
12465TIP3   OH258809   3.052   0.003  16.562 -0.1551  0.3855 -0.1201
12465TIP3    H158810   2.999  -0.037  16.492 -0.3912  1.1891 -0.4193
12465TIP3    H258811   3.142  -0.024  16.543 -0.2467  0.4144 -0.6174
12466TIP3   OH258812   1.273   5.845   5.838  0.3741  0.2968  0.3431
12466TIP3    H158813   1.192   5.891   5.814  0.6356  0.0929 -1.0113
12466TIP3    H258814   1.335   5.915   5.859  0.4633  0.5518 -0.7011
12467TIP3   OH258815   6.536   4.025  14.149 -0.0360 -0.0815 -0.0565
12467TIP3    H158816   6.605   3.961  14.132  0.9115  0.8716  0.0939
12467TIP3    H258817   6.539   4.085  14.075 -1.2681 -0.4818 -0.4624
12468TIP3   OH258818   6.283   0.879  10.780 -0.2825  0.4316 -0.2175
12468TIP3    H158819   6.227   0.803  10.797  0.9910 -0.1005  1.9809
12468TIP3    H258820   6.360   0.843  10.737  0.0241  0.5803  0.2066
12469TIP3   OH258821   2.848   4.557   1.949 -0.3321 -0.0618 -0.1150
12469TIP3    H158822   2.919   4.548   2.014 -0.1931  1.3277 -0.0308
12469TIP3    H258823   2.780   4.498   1.979 -0.3898  0.7661  1.5164
12470TIP3   OH258824   0.032   2.380  16.477 -0.3965 -0.0163 -0.2321
12470TIP3    H158825  -0.064   2.370  16.479 -0.3786 -0.3662 -0.8660
12470TIP3    H258826   0.047   2.465  16.437 -0.4314 -0.4374 -1.1706
12471TIP3   OH258827   5.416   4.322   5.808 -0.6596  0.0735  0.2581
12471TIP3    H158828   5.380   4.287   5.726  0.1924 -0.7855  0.2289
12471TIP3    H258829   5.430   4.245   5.863 -0.7665  0.5939  1.0391
12472TIP3   OH258830   3.390   1.015  17.281  0.0160 -0.0705  0.2721
12472TIP3    H158831   3.412   1.034  17.190  0.2638 -0.0870  0.3267
12472TIP3    H258832   3.465   1.049  17.331  0.3301 -0.9178  0.3912
12473TIP3   OH258833   4.555   6.443  12.657  0.5176  0.3633  0.0818
12473TIP3    H158834   4.497   6.413  12.586 -1.5112  0.8876  1.4328
12473TIP3    H258835   4.546   6.538  12.656  0.4442  0.3729  1.0540
12474TIP3   OH258836   2.398   4.988   3.866  0.4584  0.4303 -0.1023
12474TIP3    H158837   2.358   4.915   3.820  0.6761 -0.1647  0.6412
12474TIP3    H258838   2.407   5.056   3.799  0.6585 -0.3711 -0.9113
12475TIP3   OH258839   2.678   1.308  13.891 -0.1640  0.9235 -0.2171
12475TIP3    H158840   2.694   1.398  13.920 -1.4525  1.5631 -1.3363
12475TIP3    H258841   2.602   1.316  13.833  0.0828 -0.8069 -0.8174
12476TIP3   OH258842   0.752   6.680  11.442  0.3269 -0.4917  0.6584
12476TIP3    H158843   0.664   6.707  11.418  0.8727  0.5210 -0.3043
12476TIP3    H258844   0.741   6.596  11.487 -1.0760 -0.5633  0.2094
12477TIP3   OH258845   1.450   6.554   5.464 -0.0350 -0.2178  0.2246
12477TIP3    H158846   1.415   6.470   5.494  1.8800 -0.4973  1.9157
12477TIP3    H258847   1.545   6.544   5.470  0.2509  2.2263  0.9389
12478TIP3   OH258848   0.695   3.210  14.751 -0.7130  0.1705 -0.1753
12478TIP3    H158849   0.778   3.175  14.781 -0.7177  1.0155  0.8901
12478TIP3    H258850   0.669   3.272  14.820 -3.1471 -1.4400  0.5018
12479TIP3   OH258851   0.162   6.220  15.164  0.2736 -0.9238  0.7238
12479TIP3    H158852   0.166   6.260  15.077  0.8531 -0.0045  1.1637
12479TIP3    H258853   0.254   6.209  15.189  0.1143 -0.5508  1.5043
12480TIP3   OH258854   5.678   3.974   2.127 -0.1509  0.1556 -0.0923
12480TIP3    H158855   5.606   3.941   2.181 -0.9215 -0.6612 -1.5553
12480TIP3    H258856   5.650   4.062   2.102 -1.6002 -0.8295 -2.1959
12481TIP3   OH258857   4.731   6.422   2.415  0.8639  0.0720  0.0549
12481TIP3    H158858   4.652   6.390   2.459  0.2170  1.8365  0.2219
12481TIP3    H258859   4.754   6.351   2.354 -1.8001  0.1605 -1.1884
12482TIP3   OH258860   6.021   4.839  13.742  0.2458 -0.4935  0.0123
12482TIP3    H158861   6.115   4.845  13.761  0.3401  1.4217 -0.8361
12482TIP3    H258862   6.016   4.830  13.647 -0.3653  4.0365 -0.6476
12483TIP3   OH258863   2.621   3.165  12.381  0.4855 -0.3752  0.4770
12483TIP3    H158864   2.538   3.173  12.428  0.5066  1.0006  0.3113
12483TIP3    H258865   2.676   3.110  12.438 -0.5752 -1.4444  0.4990
12484TIP3   OH258866   2.506   1.511   3.607 -0.2387 -0.4199  0.0732
12484TIP3    H158867   2.481   1.601   3.627 -2.1218 -1.2550  1.8731
12484TIP3    H258868   2.600   1.516   3.589 -0.6593  2.1737 -2.0133
12485TIP3   OH258869   3.605   3.990  13.053 -0.0203 -0.0042 -0.2771
12485TIP3    H158870   3.673   3.967  13.117  0.4274  0.6069 -0.5200
12485TIP3    H258871   3.645   4.059  12.999 -1.3380  1.4267  0.4837
12486TIP3   OH258872   5.205   4.448   2.358 -0.0044  0.0608 -0.2062
12486TIP3    H158873   5.155   4.415   2.433 -0.1166 -0.0609 -0.3345
12486TIP3    H258874   5.266   4.511   2.396 -0.3473  0.3100 -0.0628
12487TIP3   OH258875   6.594   2.110   1.008  0.4117  0.2640 -0.4707
12487TIP3    H158876   6.536   2.035   1.000  0.7686 -0.0731  0.0329
12487TIP3    H258877   6.537   2.186   0.997 -0.3275 -0.0290  1.0558
12488TIP3   OH258878   0.859   6.167  14.317 -0.5178  0.5757 -0.3881
12488TIP3    H158879   0.853   6.245  14.263  0.5550 -0.4554 -2.0855
12488TIP3    H258880   0.808   6.101  14.270  1.0964 -0.5717 -0.6176
12489TIP3   OH258881   4.542   4.103  13.416 -0.2521  0.6191 -0.2534
12489TIP3    H158882   4.476   4.172  13.426  1.3002  1.8905  2.1526
12489TIP3    H258883   4.614   4.145  13.370 -0.5188 -0.3700 -1.6331
12490TIP3   OH258884   3.348   1.787   1.381 -0.2566 -0.1006  0.2591
12490TIP3    H158885   3.358   1.714   1.443  1.9644 -0.1616 -0.1129
12490TIP3    H258886   3.430   1.789   1.332 -1.9275 -0.1092 -2.7973
12491TIP3   OH258887   0.709   4.180  13.491 -0.2563  0.0169  0.0832
12491TIP3    H158888   0.615   4.194  13.483 -0.0739  2.7470  1.4801
12491TIP3    H258889   0.730   4.211  13.580  1.6449 -2.7043  0.6943
12492TIP3   OH258890   3.824   2.914  15.535  0.1688 -0.4167 -0.0342
12492TIP3    H158891   3.732   2.905  15.560 -0.1576  2.1870 -0.0300
12492TIP3    H258892   3.870   2.849  15.588 -1.4849 -0.6067  1.2528
12493TIP3   OH258893   5.527   0.334   6.292 -0.3298  0.5401 -0.1192
12493TIP3    H158894   5.564   0.421   6.305 -1.2123  0.9828 -0.5528
12493TIP3    H258895   5.517   0.299   6.381  0.6252  0.6098  0.0325
12494TIP3   OH258896   5.014   3.180  16.791 -0.0381  0.1546  0.1550
12494TIP3    H158897   4.989   3.134  16.871  0.6378  0.6087  0.6332
12494TIP3    H258898   4.932   3.194  16.744 -0.5017  0.3750  1.0293
12495TIP3   OH258899   2.196   0.568   4.762 -0.2996 -0.4420 -0.4680
12495TIP3    H158900   2.163   0.498   4.819  1.1264 -0.7868 -0.0231
12495TIP3    H258901   2.117   0.605   4.721 -1.3056 -0.6632  1.1650
12496TIP3   OH258902   6.114   4.427  13.708 -0.4554 -1.0530 -0.1127
12496TIP3    H158903   6.019   4.428  13.720 -0.1782 -0.6355  3.0817
12496TIP3    H258904   6.147   4.480  13.780  2.2327 -1.3762 -1.0098
12497TIP3   OH258905   1.885   1.699  16.438 -0.7010 -0.3069 -0.1573
12497TIP3    H158906   1.931   1.634  16.491 -1.6611 -0.5164  0.4521
12497TIP3    H258907   1.890   1.779  16.489  0.8508  0.2360 -1.1064
12498TIP3   OH258908   5.830   6.523  11.635  0.0438 -0.3166  0.0350
12498TIP3    H158909   5.902   6.580  11.662 -0.6288  0.2349  0.7151
12498TIP3    H258910   5.839   6.444  11.689 -1.2758  0.7637  1.9925
12499TIP3   OH258911   2.242   6.231  15.771 -0.3762 -0.2914 -0.5382
12499TIP3    H158912   2.295   6.274  15.838  0.4955  0.6008 -1.7374
12499TIP3    H258913   2.203   6.303  15.721 -1.1487 -0.9328 -0.8835
12500TIP3   OH258914   5.589   4.628  15.622 -0.2955 -0.1059  0.0696
12500TIP3    H158915   5.659   4.614  15.686  0.1073 -1.2359 -0.5814
12500TIP3    H258916   5.607   4.713  15.583  0.1565  0.0377  0.5932
12501TIP3   OH258917   3.125   3.011  12.483 -0.6123  0.1314  0.6743
12501TIP3    H158918   3.108   2.950  12.554 -0.0799 -0.6969  0.1102
12501TIP3    H258919   3.194   3.069  12.516 -1.1577  0.4627  1.2315
12502TIP3   OH258920   2.730   1.226  16.848 -0.5782  0.0492  0.1291
12502TIP3    H158921   2.716   1.243  16.755  0.2702  2.7428  0.4099
12502TIP3    H258922   2.663   1.278  16.892  0.0220  0.0777  1.0290
12503TIP3   OH258923   0.156   0.786   3.256 -0.1352  0.1554  0.1102
12503TIP3    H158924   0.242   0.827   3.264  0.0659 -0.3781  0.7401
12503TIP3    H258925   0.160   0.738   3.173 -0.2290  1.0479 -0.4238
12504TIP3   OH258926   4.683   4.622   0.322 -0.5431  0.2765  0.3716
12504TIP3    H158927   4.593   4.638   0.351 -1.1261 -0.2382 -1.0575
12504TIP3    H258928   4.693   4.677   0.245 -0.3976 -1.2979 -0.7814
12505TIP3   OH258929   0.907   3.910   0.699  0.0367 -0.9827 -0.0899
12505TIP3    H158930   0.891   3.950   0.614  1.9637 -0.4388 -0.2513
12505TIP3    H258931   0.847   3.955   0.759 -0.1119 -0.1403 -0.8541
12506TIP3   OH258932   2.955   3.548  14.351 -0.0546  0.1310  0.0362
12506TIP3    H158933   2.931   3.638  14.374 -1.2688 -0.2211  0.2147
12506TIP3    H258934   2.977   3.506  14.435 -0.7231 -0.0856  0.1052
12507TIP3   OH258935   6.447   0.409  16.847  0.0792  0.1086 -0.2514
12507TIP3    H158936   6.475   0.463  16.773  2.2022 -0.5931 -0.0320
12507TIP3    H258937   6.406   0.471  16.907 -1.5793  0.7142 -1.9073
12508TIP3   OH258938   4.578   3.342  11.854  0.2570 -0.0497  0.1368
12508TIP3    H158939   4.608   3.423  11.896  2.8661 -0.7626 -0.1787
12508TIP3    H258940   4.576   3.363  11.760  0.3715 -0.2010  0.1010
12509TIP3   OH258941   3.648   0.555  16.696  0.2571  0.3052  0.0122
12509TIP3    H158942   3.599   0.495  16.639 -0.4609 -0.2625  1.1872
12509TIP3    H258943   3.685   0.498  16.764  0.5001  1.0516  0.5150
12510TIP3   OH258944   5.641   1.657   2.624  0.4611 -0.4506 -0.2846
12510TIP3    H158945   5.549   1.648   2.650  0.4986  0.2045  0.1042
12510TIP3    H258946   5.656   1.585   2.563 -1.0519  0.9614 -2.4699
12511TIP3   OH258947   4.366   0.953  17.000 -0.3344 -0.1037 -0.7813
12511TIP3    H158948   4.339   0.885  17.060 -1.2127  0.8401 -0.0743
12511TIP3    H258949   4.285   0.984  16.960 -0.0226  0.8770 -0.6966
12512TIP3   OH258950   1.357   0.624  13.410 -0.3706 -0.4054  0.0535
12512TIP3    H158951   1.264   0.635  13.430 -0.8314  0.2557 -2.1796
12512TIP3    H258952   1.364   0.532  13.383 -1.0117  0.2179 -2.4819
12513TIP3   OH258953   2.815   6.348  16.975 -0.0742  0.2947 -0.5388
12513TIP3    H158954   2.721   6.332  16.982 -0.3582  1.7308 -0.6628
12513TIP3    H258955   2.856   6.266  17.003 -1.3520 -0.1537  0.0955
12514TIP3   OH258956   1.439   1.856  10.756 -0.3182 -0.5189 -0.3585
12514TIP3    H158957   1.515   1.824  10.708 -0.0891  0.6805 -0.8382
12514TIP3    H258958   1.365   1.811  10.717  0.0107 -0.6421 -0.8523
12515TIP3   OH258959   6.523   2.050   4.484  0.2002  0.2312  0.1041
12515TIP3    H158960   6.519   1.966   4.438  0.9463  0.5456 -0.5612
12515TIP3    H258961   6.461   2.106   4.437 -0.1202  0.1224  0.3970
12516TIP3   OH258962   1.547   2.417  14.323 -0.3552  0.2796 -0.2597
12516TIP3    H158963   1.506   2.339  14.360 -0.0704  0.5280  0.6123
12516TIP3    H258964   1.538   2.484  14.392 -0.2892  0.9126 -0.8523
12517TIP3   OH258965   0.706   1.863  12.606 -0.0075 -0.0569  0.5733
12517TIP3    H158966   0.760   1.800  12.653 -1.0476 -0.1920  1.6174
12517TIP3    H258967   0.764   1.939  12.594  1.0315 -0.9154 -0.0905
12518TIP3   OH258968   4.125   5.953  13.709  0.2639  0.7077 -0.2473
12518TIP3    H158969   4.088   6.013  13.773 -0.9772  0.8979 -1.1180
12518TIP3    H258970   4.112   5.866  13.747  0.2569  0.8668  0.1154
12519TIP3   OH258971   2.100   1.403   3.246  0.3745  0.2409 -0.4483
12519TIP3    H158972   2.170   1.466   3.258 -0.6920  1.3721  0.0532
12519TIP3    H258973   2.130   1.324   3.290  0.9137  1.0311  0.6305
12520TIP3   OH258974   2.525   6.546   2.154 -0.3259 -1.0182 -0.2265
12520TIP3    H158975   2.555   6.461   2.122 -0.4853 -0.7130 -1.2230
12520TIP3    H258976   2.531   6.604   2.078 -0.8119 -0.2909  0.2762
12521TIP3   OH258977   2.435   0.755   0.117  0.6202 -0.5877 -0.4859
12521TIP3    H158978   2.480   0.821   0.065  0.5674  0.0541  0.2639
12521TIP3    H258979   2.431   0.678   0.060  2.5641 -0.6440 -0.6123
12522TIP3   OH258980   0.506   3.875   0.595  0.3249 -0.1450  0.1681
12522TIP3    H158981   0.506   3.962   0.637 -2.9317  1.2602 -2.2698
12522TIP3    H258982   0.426   3.834   0.628 -0.7104 -0.1870 -2.2192
12523TIP3   OH258983   1.810   0.536  11.468  0.8228  0.1000 -0.3028
12523TIP3    H158984   1.875   0.588  11.516  0.4432  0.4680 -0.1833
12523TIP3    H258985   1.859   0.459  11.438  0.9925 -0.3092  0.9614
12524TIP3   OH258986   2.328   2.123   2.958 -0.0801 -0.0742 -0.2759
12524TIP3    H158987   2.370   2.074   3.030  0.7477 -0.1717 -0.8135
12524TIP3    H258988   2.242   2.145   2.992  0.8179  1.1684  1.3376
12525TIP3   OH258989   1.626   5.185   0.261  0.2547 -0.0744 -0.0236
12525TIP3    H158990   1.588   5.183   0.173 -0.9721 -1.2575  0.4950
12525TIP3    H258991   1.711   5.142   0.252  0.4246  0.3970 -0.7444
12526TIP3   OH258992   6.469   6.468   5.236  0.0188 -0.2993 -0.0853
12526TIP3    H158993   6.497   6.472   5.327 -0.4929 -0.7443  0.1000
12526TIP3    H258994   6.414   6.389   5.232 -0.3436 -0.0240 -0.6664
12527TIP3   OH258995   0.695   5.137   4.156  0.0978  0.3032 -0.0142
12527TIP3    H158996   0.708   5.183   4.238  0.0023  1.9171 -0.8687
12527TIP3    H258997   0.607   5.100   4.163 -0.9025  2.4509 -0.2658
12528TIP3   OH258998   4.760   5.911  12.355  0.1990 -0.4267  0.1379
12528TIP3    H158999   4.754   5.821  12.324  1.8181 -0.1230 -1.2260
12528TIP3    H259000   4.707   5.961  12.293  1.4826 -0.1352 -0.7778
12529TIP3   OH259001   6.303   3.110  13.614  0.5548  0.1631 -0.5188
12529TIP3    H159002   6.211   3.114  13.585  0.3761 -0.4894 -0.0673
12529TIP3    H259003   6.298   3.102  13.709  1.1099  0.9712 -0.4178
12530TIP3   OH259004   4.750   1.151   3.732  0.1533 -0.1939 -0.6055
12530TIP3    H159005   4.685   1.084   3.713  1.0465 -1.9075  1.8462
12530TIP3    H259006   4.699   1.227   3.760 -0.8735 -1.2634  0.5696
12531TIP3   OH259007   5.537   6.744   2.647  0.5021 -0.0187 -0.4826
12531TIP3    H159008   5.497   6.800   2.712 -0.6344 -0.9091 -0.3885
12531TIP3    H259009   5.619   6.714   2.688 -0.5237 -1.1306  0.8661
12532TIP3   OH259010   2.131   0.444   3.707  0.6817  0.1232 -0.0562
12532TIP3    H159011   2.133   0.515   3.772 -1.0463 -1.0142  1.3280
12532TIP3    H259012   2.150   0.365   3.757  2.7334 -0.4691 -1.5991
12533TIP3   OH259013   5.082   1.686  14.222  0.1803  0.0155 -0.4809
12533TIP3    H159014   5.009   1.652  14.171  0.4370  0.8875 -1.4646
12533TIP3    H259015   5.160   1.649  14.179  0.3671  0.0706 -0.1913
12534TIP3   OH259016   2.709   2.089  12.227 -0.2949 -0.1323 -0.0028
12534TIP3    H159017   2.731   2.000  12.200 -1.3992  0.1521 -2.0376
12534TIP3    H259018   2.638   2.078  12.291 -0.5067 -0.7139 -0.3313
12535TIP3   OH259019   1.511   0.825  11.628 -0.3744  0.0442  0.5644
12535TIP3    H159020   1.420   0.849  11.608 -0.8726 -2.0007  0.1236
12535TIP3    H259021   1.517   0.834  11.723 -1.0001  0.3141  0.5890
12536TIP3   OH259022   2.565   3.817  12.689 -0.5915  0.1570  0.3407
12536TIP3    H159023   2.650   3.773  12.684  0.3652  1.8859  0.6490
12536TIP3    H259024   2.503   3.746  12.707  0.8151 -1.1089  0.4538
12537TIP3   OH259025   5.805   0.711  16.493  0.1399 -0.1378  0.3043
12537TIP3    H159026   5.899   0.709  16.511  0.1210  0.1260  0.4364
12537TIP3    H259027   5.775   0.623  16.516  0.2569 -0.0489  0.7953
12538TIP3   OH259028   4.929   3.881  16.714  0.5236 -0.5435  0.0310
12538TIP3    H159029   4.838   3.908  16.704  0.8499  0.3060 -0.8420
12538TIP3    H259030   4.925   3.795  16.756 -0.7043 -0.7864 -0.5426
12539TIP3   OH259031   6.604   5.907   4.345  0.1401  0.9091 -0.5947
12539TIP3    H159032   6.582   5.817   4.367 -0.6104  1.4660  1.0932
12539TIP3    H259033   6.685   5.900   4.295 -0.6971 -0.7869 -1.8131
12540TIP3   OH259034   4.649   2.894   5.541 -0.0825 -0.3070  0.9318
12540TIP3    H159035   4.704   2.943   5.602  0.9239 -0.6431  0.3200
12540TIP3    H259036   4.655   2.803   5.571  2.8377 -0.9892 -1.3073
12541TIP3   OH259037   0.619   5.522   2.593 -0.5503  0.0055  0.5338
12541TIP3    H159038   0.616   5.426   2.595  1.3805 -0.0842  1.9398
12541TIP3    H259039   0.629   5.543   2.500  2.7300 -1.4180  0.4144
12542TIP3   OH259040   2.003   0.376  11.054  0.2664 -0.0378 -0.3365
12542TIP3    H159041   2.072   0.336  11.108 -0.7928 -1.2422  0.1761
12542TIP3    H259042   1.945   0.303  11.032 -1.5090  1.1403  0.2664
12543TIP3   OH259043   5.702   0.707   4.292  0.3156  0.1366 -0.2023
12543TIP3    H159044   5.721   0.738   4.203  0.9037  1.2145  0.2920
12543TIP3    H259045   5.719   0.613   4.288 -1.9965 -0.3170 -1.8687
12544TIP3   OH259046   6.491   1.520  12.684  0.4029  0.6959  0.1223
12544TIP3    H159047   6.459   1.527  12.594 -0.2422  0.5761  0.3410
12544TIP3    H259048   6.445   1.590  12.731 -1.3808 -0.9846  0.9712
12545TIP3   OH259049   1.494   5.532   3.960  0.6150 -0.1525  0.4480
12545TIP3    H159050   1.587   5.512   3.948  0.5707  0.6683 -1.6666
12545TIP3    H259051   1.492   5.611   4.013  1.2148  0.6763 -0.7298
12546TIP3   OH259052   1.626   4.915  14.643  0.1570 -0.3783  0.3988
12546TIP3    H159053   1.700   4.903  14.584 -0.1896  0.1256 -0.1485
12546TIP3    H259054   1.580   4.831  14.642  0.1358 -0.3632 -0.0757
12547TIP3   OH259055   6.627   2.762   5.146  0.1075  0.2159 -0.4725
12547TIP3    H159056   6.629   2.787   5.054  0.6801  0.2012 -0.4643
12547TIP3    H259057   6.712   2.788   5.181  0.3202 -0.7598 -0.2134
12548TIP3   OH259058   2.809   2.352  13.745  0.0310 -0.1775 -0.0881
12548TIP3    H159059   2.812   2.306  13.661  3.4359  1.0404 -0.8170
12548TIP3    H259060   2.873   2.307  13.800 -1.1454 -0.1072  1.4039
12549TIP3   OH259061   2.184   4.448   2.062 -0.0809  0.2470 -0.1083
12549TIP3    H159062   2.116   4.479   2.121  0.0479 -1.4854  1.0188
12549TIP3    H259063   2.164   4.489   1.978 -2.3562 -0.0250  0.2542
12550TIP3   OH259064   3.258   5.370  13.575  0.1037  0.0600  0.1352
12550TIP3    H159065   3.166   5.374  13.547  0.4417 -2.4803 -1.5942
12550TIP3    H259066   3.307   5.358  13.494  1.6715 -1.7228  1.2776
12551TIP3   OH259067   3.548   5.408  12.870 -0.0111  0.9578  0.1942
12551TIP3    H159068   3.513   5.486  12.828  2.4196  1.3323 -1.3509
12551TIP3    H259069   3.555   5.343  12.800  1.3858  0.6085  0.6129
12552TIP3   OH259070   3.968   0.217   2.967 -0.0990  0.2254 -0.2915
12552TIP3    H159071   3.951   0.123   2.970  1.2965 -0.0303  2.4578
12552TIP3    H259072   3.888   0.257   3.002 -0.5846  0.0757 -1.1981
12553TIP3   OH259073   3.516   0.272  14.359  0.2036  0.3424 -0.5885
12553TIP3    H159074   3.593   0.291  14.306  0.1355  0.0999 -0.7760
12553TIP3    H259075   3.472   0.200  14.313  1.3446 -1.4513  0.9680
12554TIP3   OH259076   0.241   6.260   5.814 -0.5061  0.9135  0.2692
12554TIP3    H159077   0.317   6.242   5.759  1.2335  1.3742  2.3744
12554TIP3    H259078   0.246   6.196   5.885 -2.5314  0.4868  0.0891
12555TIP3   OH259079   4.706   6.405  16.446  0.1507 -0.2421  0.5867
12555TIP3    H159080   4.789   6.358  16.455 -0.0640 -1.5341 -2.5677
12555TIP3    H259081   4.641   6.348  16.488  0.6284  0.0393  1.7346
12556TIP3   OH259082   4.044   5.570   4.574 -0.2692  0.0273  0.0265
12556TIP3    H159083   4.040   5.647   4.632 -2.4044 -0.8093  1.1070
12556TIP3    H259084   4.065   5.606   4.488  1.6533  1.4623  1.0011
12557TIP3   OH259085   4.469   6.219  15.773 -0.4198  0.3572  0.0486
12557TIP3    H159086   4.422   6.187  15.696  0.8749  2.3315 -1.6840
12557TIP3    H259087   4.407   6.278  15.816 -1.0251 -0.4590  0.2952
12558TIP3   OH259088   0.181   3.711  16.773 -0.0618 -0.3272  0.5252
12558TIP3    H159089   0.095   3.674  16.757  0.6619 -1.7373 -0.3549
12558TIP3    H259090   0.219   3.655  16.842  0.4378 -0.2282  0.3365
12559TIP3   OH259091   5.830   3.626  14.273  0.5200  0.6033  0.3296
12559TIP3    H159092   5.908   3.680  14.258  0.9788 -0.1630 -0.1516
12559TIP3    H259093   5.769   3.651  14.204  0.1004  1.6021  1.0344
12560TIP3   OH259094   2.514   5.297   0.699 -0.2360  0.6740  0.1429
12560TIP3    H159095   2.534   5.389   0.683 -0.6221  0.6775 -0.3420
12560TIP3    H259096   2.599   5.254   0.703 -0.0676  0.9832 -0.0690
12561TIP3   OH259097   3.496   4.754   2.362  0.1327 -0.1221 -0.3793
12561TIP3    H159098   3.536   4.758   2.275 -0.6599 -0.3471 -0.7610
12561TIP3    H259099   3.566   4.782   2.421  0.9644 -0.8420 -0.9910
12562TIP3   OH259100   2.511   1.408   4.972 -0.7274  0.1416  0.1185
12562TIP3    H159101   2.554   1.362   4.900 -1.0323  2.5107 -1.6854
12562TIP3    H259102   2.579   1.461   5.011 -0.9075  0.0311  0.5862
12563TIP3   OH259103   2.817   0.165  13.192 -0.1185 -0.2238 -0.3183
12563TIP3    H159104   2.837   0.073  13.210 -0.3888 -0.2435 -0.1185
12563TIP3    H259105   2.887   0.213  13.237  0.1871 -0.3422 -0.6653
12564TIP3   OH259106   2.275   1.579  13.437 -0.1267  0.0992 -0.1186
12564TIP3    H159107   2.229   1.598  13.356  0.7730 -0.6970 -0.8412
12564TIP3    H259108   2.358   1.541  13.409  0.9582  1.4147  1.1262
12565TIP3   OH259109   0.135   2.719  14.491 -0.3062  0.1898  0.0904
12565TIP3    H159110   0.122   2.814  14.482  1.4873  0.5112  0.4920
12565TIP3    H259111   0.230   2.709  14.497 -0.5526 -1.4385  2.2448
12566TIP3   OH259112   0.035   1.194  11.867  0.2595  0.1949 -0.8953
12566TIP3    H159113   0.018   1.203  11.961  0.3163 -1.4755 -0.7045
12566TIP3    H259114   0.106   1.131  11.861  0.5930  0.6645 -2.0528
12567TIP3   OH259115   3.833   2.567   4.863  0.2397  0.5558  0.0302
12567TIP3    H159116   3.877   2.620   4.796 -0.2791 -0.0652 -0.8126
12567TIP3    H259117   3.887   2.579   4.941  1.4970  0.3963 -0.7844
12568TIP3   OH259118   5.546   6.649   1.352  0.3470  0.7026 -0.2291
12568TIP3    H159119   5.493   6.608   1.420 -1.5096  0.3239 -1.8313
12568TIP3    H259120   5.566   6.736   1.386 -0.7402  0.6070  0.6929
12569TIP3   OH259121   4.707   2.046  13.397  0.0728 -0.1857  0.4609
12569TIP3    H159122   4.688   2.139  13.406  1.2569  0.0228  1.0108
12569TIP3    H259123   4.695   2.028  13.304 -1.0617  0.2950  0.5015
12570TIP3   OH259124   4.977   3.104   3.418  0.1189  0.5029  0.2477
12570TIP3    H159125   5.061   3.063   3.442  0.5756  1.5109  0.4476
12570TIP3    H259126   5.002   3.183   3.370 -0.6870  1.2909  1.0723
12571TIP3   OH259127   2.081   2.754   6.022 -0.4342 -0.3795 -0.0961
12571TIP3    H159128   2.109   2.842   6.049  1.9230 -1.0649 -0.0863
12571TIP3    H259129   1.992   2.745   6.058 -0.1418  1.4213  1.2247
12572TIP3   OH259130   6.236   1.945   1.177 -0.8249 -0.1622 -0.1852
12572TIP3    H159131   6.236   2.008   1.105  2.4242  1.2435  0.8815
12572TIP3    H259132   6.271   1.865   1.138  0.9496  0.5971 -0.2513
12573TIP3   OH259133   2.475   0.225  12.639 -0.1172  0.6200  0.0662
12573TIP3    H159134   2.455   0.131  12.637 -3.1893  1.1342 -2.7023
12573TIP3    H259135   2.389   0.268  12.641  1.1075  3.3431 -0.7784
12574TIP3   OH259136   6.601   4.700  15.957 -0.6434 -0.3471  0.3157
12574TIP3    H159137   6.543   4.631  15.990  1.2135 -1.0697  2.3092
12574TIP3    H259138   6.680   4.654  15.931 -1.0166  0.5514 -2.8504
12575TIP3   OH259139   5.797   4.709  14.031 -0.9458 -0.7846  0.2831
12575TIP3    H159140   5.764   4.691  13.943 -0.3094  0.3606 -0.2086
12575TIP3    H259141   5.739   4.659  14.089 -3.4674  1.0313 -0.5118
12576TIP3   OH259142   5.003   0.600  14.613 -0.7173 -0.4601 -0.2825
12576TIP3    H159143   4.997   0.590  14.518  1.7727  0.0795 -0.5622
12576TIP3    H259144   4.939   0.669  14.633 -0.2767  0.4495 -1.7946
12577TIP3   OH259145   0.267   5.913   2.043  0.3137 -0.4260  0.6118
12577TIP3    H159146   0.259   5.853   1.968 -1.4880  0.2466  0.1977
12577TIP3    H259147   0.358   5.942   2.041 -0.1591  1.3877 -2.8402
12578TIP3   OH259148   3.710   3.286  10.615 -0.8142  0.3445 -0.7353
12578TIP3    H159149   3.676   3.264  10.702 -0.6472 -0.7100 -0.9176
12578TIP3    H259150   3.632   3.288  10.559 -0.6756 -1.6823 -1.0744
12579TIP3   OH259151   1.633   0.026  13.055  0.0323  0.6160 -0.1128
12579TIP3    H159152   1.632  -0.046  12.992  0.2194 -0.5520  1.1779
12579TIP3    H259153   1.546   0.065  13.049 -0.5622 -0.6395  0.1831
12580TIP3   OH259154   5.353   1.811  11.334 -0.1071  1.0949  0.5794
12580TIP3    H159155   5.275   1.756  11.326 -2.1215  3.5436  1.9861
12580TIP3    H259156   5.349   1.869  11.258  0.1942  1.4259  0.8149
12581TIP3   OH259157   6.098   2.792   2.066  0.9097 -0.2279 -0.5285
12581TIP3    H159158   6.016   2.789   2.017 -0.4653  0.5731  1.5470
12581TIP3    H259159   6.131   2.881   2.051 -0.6188  0.7776  1.5159
12582TIP3   OH259160   3.472   4.214   2.502  0.3594 -0.6154 -0.3995
12582TIP3    H159161   3.390   4.178   2.536 -0.9268 -1.0745 -3.6703
12582TIP3    H259162   3.493   4.286   2.561 -1.4563 -1.5213  1.4776
12583TIP3   OH259163   4.544   0.574   2.059 -0.7032  0.6468  0.6640
12583TIP3    H159164   4.557   0.645   1.995 -0.9472  1.6720  1.7073
12583TIP3    H259165   4.603   0.596   2.131 -1.2605  0.1370  1.2889
12584TIP3   OH259166   4.439   3.846   2.053  1.1832 -0.2808 -0.2019
12584TIP3    H159167   4.497   3.779   2.015  1.9004 -0.2117  0.7143
12584TIP3    H259168   4.353   3.805   2.055  1.0461 -0.1733 -2.1427
12585TIP3   OH259169   0.833   1.406  13.534 -0.0115 -0.0127  0.2720
12585TIP3    H159170   0.893   1.421  13.608  2.1156  3.0449 -1.7864
12585TIP3    H259171   0.754   1.454  13.559  0.7758  1.2208  0.5432
12586TIP3   OH259172   2.007   4.004   6.129  0.5719 -0.4913 -0.6037
12586TIP3    H159173   1.960   3.932   6.086  0.4989 -1.2668  0.7249
12586TIP3    H259174   2.096   3.972   6.139  0.7245 -0.0948 -0.6642
12587TIP3   OH259175   0.080   2.469   2.546  0.8505 -0.1059  0.1550
12587TIP3    H159176   0.169   2.479   2.514  0.2313  0.0839 -1.6575
12587TIP3    H259177   0.089   2.429   2.633  2.7080  0.8780  0.4534
12588TIP3   OH259178   1.510   5.215  14.106  0.1780 -0.4056 -0.1856
12588TIP3    H159179   1.451   5.276  14.149  0.3916  0.1778 -0.7065
12588TIP3    H259180   1.460   5.133  14.102 -0.5966  0.0704 -0.6033
12589TIP3   OH259181   4.906   5.384   2.217  0.3326 -0.7194 -0.4472
12589TIP3    H159182   4.860   5.332   2.151  0.7757 -0.9787 -0.5516
12589TIP3    H259183   4.947   5.319   2.275  0.1753 -0.4926 -0.0751
12590TIP3   OH259184   4.104   3.437  15.489  0.4997 -0.2292 -0.6448
12590TIP3    H159185   4.112   3.391  15.405  0.3811 -2.5117  0.5134
12590TIP3    H259186   4.169   3.394  15.546  1.8840  2.4704 -0.0055
12591TIP3   OH259187   1.100   3.641   1.387 -0.4195  0.2062 -0.4072
12591TIP3    H159188   1.059   3.557   1.406  1.0046 -0.2949  0.5919
12591TIP3    H259189   1.106   3.685   1.472  0.9304  0.3270 -0.5389
12592TIP3   OH259190   3.751   1.322  13.530 -0.3275 -0.0739 -0.1797
12592TIP3    H159191   3.828   1.363  13.491  0.3379 -0.6508  0.5048
12592TIP3    H259192   3.777   1.303  13.620 -1.4260  0.1358  0.1958
12593TIP3   OH259193   0.125   0.158  11.669 -0.1685  0.7067 -0.5131
12593TIP3    H159194   0.177   0.189  11.595 -1.7968  1.1506 -1.5165
12593TIP3    H259195   0.050   0.218  11.672 -1.3868 -0.7875 -0.0458
12594TIP3   OH259196   6.511   0.119   6.156  0.0199  0.3205  0.3330
12594TIP3    H159197   6.493   0.140   6.064  0.6083 -1.3980 -0.2250
12594TIP3    H259198   6.425   0.101   6.194 -0.1814  0.5008 -0.0302
12595TIP3   OH259199   0.213   3.734  15.644 -0.5092  0.3709 -0.0119
12595TIP3    H159200   0.263   3.664  15.684 -0.5499 -0.4481 -1.3250
12595TIP3    H259201   0.125   3.724  15.680 -0.9819 -1.4392 -1.5348
12596TIP3   OH259202   4.482   0.337  11.466 -0.4738  1.0040 -0.2044
12596TIP3    H159203   4.542   0.262  11.461  1.0471  2.2226 -1.4541
12596TIP3    H259204   4.395   0.298  11.455  0.1926 -0.6629  0.0249
12597TIP3   OH259205   2.546   4.196   3.560  0.7052 -0.2819  0.3982
12597TIP3    H159206   2.583   4.266   3.507 -1.4265  0.6078  0.0161
12597TIP3    H259207   2.512   4.133   3.497 -1.5783  0.6445  0.5993
12598TIP3   OH259208   3.922   5.453   0.279  0.2596  0.3784 -0.2432
12598TIP3    H159209   3.964   5.369   0.264  0.8249  0.8586 -1.4784
12598TIP3    H259210   3.861   5.462   0.206 -0.4096  0.6733  0.3418
12599TIP3   OH259211   3.111   6.448  12.820 -0.0190 -0.4377  0.4698
12599TIP3    H159212   3.069   6.525  12.860 -0.6291 -1.2530  1.4518
12599TIP3    H259213   3.195   6.442  12.864  0.4943  0.2670 -0.3692
12600TIP3   OH259214   2.358   5.994   7.091  0.0911  0.0312 -0.1662
12600TIP3    H159215   2.436   6.045   7.070 -0.3607  0.7540 -0.1081
12600TIP3    H259216   2.391   5.917   7.137  0.7022  0.7381  0.5831
12601TIP3   OH259217   3.275   0.007  12.482  0.2603 -0.2280 -0.6268
12601TIP3    H159218   3.200  -0.011  12.538  1.1463 -0.2630  0.6048
12601TIP3    H259219   3.254   0.090  12.440  0.6028  1.1513  1.7269
12602TIP3   OH259220   3.802   2.950  11.579  0.0414 -0.2410 -0.3006
12602TIP3    H159221   3.771   2.981  11.664 -2.5455  0.8727 -1.5312
12602TIP3    H259222   3.869   3.013  11.553 -0.1447  0.2210  0.3262
12603TIP3   OH259223   2.091   4.544  16.169 -0.3240 -0.0898 -0.2036
12603TIP3    H159224   2.149   4.480  16.128 -0.8321 -0.6189 -0.0973
12603TIP3    H259225   2.086   4.516  16.261  2.1959  2.0436  0.7351
12604TIP3   OH259226   1.162   2.865   0.409  0.8005  0.4647 -0.2590
12604TIP3    H159227   1.204   2.810   0.343  0.2344  2.0255 -1.9882
12604TIP3    H259228   1.115   2.931   0.359  0.2450  1.6454  1.7226
12605TIP3   OH259229   6.167   6.460  13.368  0.5189  0.4459  0.2134
12605TIP3    H159230   6.238   6.524  13.369  0.9322  0.0066 -0.2745
12605TIP3    H259231   6.103   6.495  13.305  1.1822 -0.0709 -0.7682
12606TIP3   OH259232   0.088   3.444   2.257 -0.0406  0.6213  0.2507
12606TIP3    H159233   0.077   3.367   2.314 -1.8820  0.8920  0.3248
12606TIP3    H259234   0.153   3.417   2.193 -0.2218 -0.8047  0.6246
12607TIP3   OH259235   6.581   4.762   5.311 -0.4857 -0.0536 -0.0977
12607TIP3    H159236   6.533   4.794   5.387  0.4744  3.4511 -0.7815
12607TIP3    H259237   6.669   4.744   5.344 -1.1057 -2.5291  0.3494
12608TIP3   OH259238   5.852   3.436   3.086  0.0195  0.3492 -0.6216
12608TIP3    H159239   5.932   3.408   3.130 -0.4621 -0.7571 -0.4284
12608TIP3    H259240   5.881   3.501   3.022  0.7997  1.6022  0.9407
12609TIP3   OH259241   3.323   3.342   2.980 -0.0649  0.4783  0.6279
12609TIP3    H159242   3.376   3.397   3.037  1.7780 -1.6470  1.1320
12609TIP3    H259243   3.352   3.253   2.999 -1.6022 -0.5527 -1.4246
12610TIP3   OH259244   3.196   0.615  11.613  0.3575  0.5587 -0.5460
12610TIP3    H159245   3.266   0.675  11.639  2.0464 -1.8619  0.8750
12610TIP3    H259246   3.207   0.607  11.518  1.2832  1.0647 -0.4987
12611TIP3   OH259247   2.126   2.666  13.612 -0.0955  0.2771 -0.1703
12611TIP3    H159248   2.216   2.638  13.628 -0.3667 -0.2473  0.4642
12611TIP3    H259249   2.131   2.716  13.530  0.3796 -1.7940 -1.4951
12612TIP3   OH259250   5.048   3.684   0.242  0.4288 -0.1114  0.1552
12612TIP3    H159251   5.098   3.606   0.216 -0.6663 -0.0343 -2.6180
12612TIP3    H259252   4.993   3.654   0.314 -0.6533 -2.2675 -1.4363
12613TIP3   OH259253   0.422   2.663  12.935 -0.3420  0.1465  0.7498
12613TIP3    H159254   0.452   2.727  12.999 -1.7524  0.0338  1.5630
12613TIP3    H259255   0.380   2.716  12.867  0.8546  0.2428  0.0655
12614TIP3   OH259256   0.490   6.316  14.225  0.0005  0.4582 -0.4881
12614TIP3    H159257   0.500   6.227  14.260 -2.3314 -0.2652 -1.5075
12614TIP3    H259258   0.488   6.372  14.303 -0.9709 -0.6742  0.3413
12615TIP3   OH259259   6.559   1.435  10.514  0.3193  0.0275  0.1381
12615TIP3    H159260   6.564   1.530  10.504  2.3164  0.2317  2.2501
12615TIP3    H259261   6.619   1.400  10.448 -0.7157  0.1654 -0.9054
12616TIP3   OH259262   0.797   1.918  11.386  0.1825 -0.4741 -0.2289
12616TIP3    H159263   0.734   1.854  11.421 -1.1798  0.2755 -1.2014
12616TIP3    H259264   0.874   1.866  11.363  0.1623 -1.3453  1.4966
12617TIP3   OH259265   1.092   5.636  12.291 -0.1165 -0.2559 -0.1994
12617TIP3    H159266   1.149   5.563  12.314  0.2079  0.1225  0.2386
12617TIP3    H259267   1.136   5.713  12.329  0.0045  0.2871 -1.3968
12618TIP3   OH259268   3.981   6.068   5.815  0.4123 -0.1875  0.4760
12618TIP3    H159269   3.989   6.047   5.722 -0.3746  0.3140  0.2879
12618TIP3    H259270   3.954   6.160   5.816  3.7930  0.9320  1.2585
12619TIP3   OH259271   2.981   1.853  14.665  0.0103  0.3981  0.2840
12619TIP3    H159272   2.940   1.821  14.745 -0.4581  2.8387  1.1027
12619TIP3    H259273   3.045   1.918  14.694  1.6221 -0.4289 -1.2147
12620TIP3   OH259274   5.769   3.050  13.881 -0.2291  0.2549  0.0064
12620TIP3    H159275   5.854   3.071  13.920  0.2832 -2.5289  0.5991
12620TIP3    H259276   5.790   3.017  13.794 -0.8018  0.3191 -0.1598
12621TIP3   OH259277   6.042   2.767  15.485 -0.3025 -0.5110 -0.2627
12621TIP3    H159278   5.987   2.835  15.447 -0.5274 -0.2225  0.5525
12621TIP3    H259279   6.043   2.697  15.420 -0.4508  0.0762 -0.9064
12622TIP3   OH259280   1.110   4.232   2.797 -0.3291  0.3949 -0.8003
12622TIP3    H159281   1.064   4.163   2.844 -0.3802  1.5861  0.9865
12622TIP3    H259282   1.202   4.207   2.802 -0.5467 -1.2532 -3.1583
12623TIP3   OH259283   6.050   1.558   0.288  0.2048  0.1896  0.5502
12623TIP3    H159284   6.131   1.598   0.316 -0.2765  0.8470  1.0298
12623TIP3    H259285   6.076   1.494   0.222  1.1625 -0.0450  1.1397
12624TIP3   OH259286   0.239   3.486  14.525  0.0532 -0.2085 -0.1820
12624TIP3    H159287   0.323   3.500  14.567  0.6160  0.0953 -1.3716
12624TIP3    H259288   0.226   3.391  14.527  0.0630 -0.2007  0.6508
12625TIP3   OH259289   3.791   3.075   4.440 -0.7244  0.8093 -0.4582
12625TIP3    H159290   3.855   3.144   4.458  1.2469 -1.2382  1.0534
12625TIP3    H259291   3.803   3.054   4.348  0.8715  0.4620 -0.2040
12626TIP3   OH259292   5.964   6.721   1.966 -0.6505 -0.4550 -0.1136
12626TIP3    H159293   5.973   6.815   1.947  2.0557 -0.7216 -0.4191
12626TIP3    H259294   6.031   6.702   2.031  0.8922 -2.7016 -2.1640
12627TIP3   OH259295   0.667   2.720   2.944  0.1407 -0.4014  0.2303
12627TIP3    H159296   0.719   2.755   3.016  1.2143  0.1481 -0.7651
12627TIP3    H259297   0.711   2.638   2.921  1.4269  0.6925 -1.4568
12628TIP3   OH259298   5.059   3.091  15.329 -0.5115  0.5466  0.1796
12628TIP3    H159299   5.047   3.077  15.423  0.6076  1.9779  0.5850
12628TIP3    H259300   5.023   3.178  15.312  2.6160  1.9971  0.1260
12629TIP3   OH259301   6.561   4.723   2.335 -0.4228  0.1864  0.2571
12629TIP3    H159302   6.554   4.818   2.331 -2.2306  0.0476 -1.1235
12629TIP3    H259303   6.577   4.696   2.245  0.8842 -0.7949  0.7526
12630TIP3   OH259304   1.275   2.837   4.467  0.5297 -0.5778 -0.0050
12630TIP3    H159305   1.338   2.764   4.459  0.0571 -0.8226 -1.9840
12630TIP3    H259306   1.326   2.915   4.445  0.8621 -0.3468  1.4433
12631TIP3   OH259307   0.310   5.711  11.120 -0.2697 -0.7333  0.1505
12631TIP3    H159308   0.242   5.655  11.158 -1.2753  0.7492  0.6119
12631TIP3    H259309   0.262   5.770  11.061  0.8131 -0.5942 -0.6189
12632TIP3   OH259310   4.050   4.376   4.320 -0.0453 -0.9103  0.5171
12632TIP3    H159311   4.056   4.448   4.383  2.0553  0.1820 -0.8035
12632TIP3    H259312   4.059   4.297   4.373  0.0813 -0.1039  1.7414
12633TIP3   OH259313   5.984   3.074   1.828 -0.0819 -0.2508 -0.0948
12633TIP3    H159314   5.941   3.088   1.913 -0.6259 -2.3537  0.0242
12633TIP3    H259315   6.077   3.069   1.849 -0.0757  0.7826  0.1497
12634TIP3   OH259316   0.604   5.723  11.531  0.1292  0.5626  0.2954
12634TIP3    H159317   0.599   5.640  11.580 -0.0555  0.4397  0.0719
12634TIP3    H259318   0.513   5.752  11.525  0.2985  1.4336  1.4734
12635TIP3   OH259319   1.297   6.165   1.197  0.4339 -0.5801 -0.1762
12635TIP3    H159320   1.287   6.119   1.280 -1.1275  0.9485  0.5567
12635TIP3    H259321   1.277   6.256   1.218 -1.2452 -0.3412 -2.4315
12636TIP3   OH259322   0.199   2.800   3.671  0.4978 -0.0992  0.7930
12636TIP3    H159323   0.221   2.826   3.760  2.3826 -0.6295  0.5106
12636TIP3    H259324   0.105   2.818   3.664  1.0349  3.7634  1.5686
12637TIP3   OH259325   3.465   5.724   2.857  0.1403  0.3964 -0.0890
12637TIP3    H159326   3.459   5.707   2.762 -0.6289 -0.7651  0.1378
12637TIP3    H259327   3.429   5.644   2.897  3.7508 -0.7426  1.2772
12638TIP3   OH259328   0.332   1.082  10.532  0.1373  0.2450 -0.0302
12638TIP3    H159329   0.303   1.163  10.574  0.6670  0.7279 -0.5716
12638TIP3    H259330   0.254   1.048  10.489 -0.7023 -0.8234  2.1545
12639TIP3   OH259331   3.699   2.010   5.462  0.3331  0.4796 -0.1650
12639TIP3    H159332   3.628   2.003   5.399 -0.0150  1.2499  0.1270
12639TIP3    H259333   3.768   2.057   5.416  0.4508  0.2030 -0.2742
12640TIP3   OH259334   3.316   6.563   4.897 -0.1318 -0.5296 -0.0891
12640TIP3    H159335   3.390   6.618   4.924 -0.6144  0.4503 -0.6977
12640TIP3    H259336   3.309   6.577   4.803 -1.5290 -0.0246  0.0638
12641TIP3   OH259337   4.956   6.101   5.594  0.1073  0.2296  0.4769
12641TIP3    H159338   4.871   6.095   5.550 -0.1440 -0.8681  1.0708
12641TIP3    H259339   5.019   6.072   5.529 -0.1356 -0.2832  0.4618
12642TIP3   OH259340   3.384   1.069   5.342 -0.1140  0.0364  0.4066
12642TIP3    H159341   3.459   1.128   5.332 -1.6268  2.1163  0.6641
12642TIP3    H259342   3.351   1.088   5.430  0.2996 -2.4698  1.1996
12643TIP3   OH259343   1.714   1.996   5.842  0.0389 -0.3737  0.4810
12643TIP3    H159344   1.673   1.949   5.914 -0.4457 -0.4783  0.1389
12643TIP3    H259345   1.768   1.931   5.797  2.2383  0.1930  2.1259
12644TIP3   OH259346   5.022   6.369   0.202  0.9927 -0.7093 -0.4651
12644TIP3    H159347   4.995   6.355   0.112  2.3394 -0.8635 -0.8670
12644TIP3    H259348   5.094   6.308   0.216  1.2262 -0.2461  0.5093
12645TIP3   OH259349   3.433   0.344  13.710 -0.2176 -0.1137  0.1880
12645TIP3    H159350   3.503   0.404  13.735  0.7873 -0.4751 -1.6477
12645TIP3    H259351   3.438   0.273  13.774  1.7581 -0.6195 -0.4703
12646TIP3   OH259352   6.705   0.680  14.540  0.2765  0.1635 -0.1190
12646TIP3    H159353   6.666   0.647  14.621  0.0691  2.4471  0.7825
12646TIP3    H259354   6.699   0.606  14.479  1.0040 -1.8372  2.0860
12647TIP3   OH259355   6.583   6.594  16.251  0.7030 -0.1232 -0.0839
12647TIP3    H159356   6.671   6.629  16.269  0.2443  0.7827  0.4963
12647TIP3    H259357   6.529   6.672  16.239  0.1412 -0.6816 -1.3260
12648TIP3   OH259358   2.708   3.111   4.412 -0.1817  0.2122  0.3259
12648TIP3    H159359   2.655   3.184   4.444 -1.7946 -0.8620  0.2031
12648TIP3    H259360   2.758   3.083   4.489  1.5533  2.2745  0.0533
12649TIP3   OH259361   3.877   0.229  13.665 -0.8843 -0.1732 -0.0488
12649TIP3    H159362   3.955   0.203  13.616 -0.6745  2.5226 -1.3428
12649TIP3    H259363   3.809   0.168  13.636  0.2687 -1.3902 -0.3123
12650TIP3   OH259364   3.941   0.912  11.412  0.1642  0.5924  0.9559
12650TIP3    H159365   3.898   0.987  11.370 -2.1812 -0.3890  1.4124
12650TIP3    H259366   4.018   0.896  11.358 -0.2437  2.2115 -0.2206
12651TIP3   OH259367   5.836   6.498  14.225 -0.1432 -0.4110  0.5600
12651TIP3    H159368   5.875   6.433  14.167  0.1049 -0.8113  1.1647
12651TIP3    H259369   5.747   6.467  14.240  0.0636 -0.7737  1.0747
12652TIP3   OH259370   5.287   4.960   4.541  0.0798 -0.3547  0.2011
12652TIP3    H159371   5.264   4.913   4.461  0.5973  1.2238 -0.9163
12652TIP3    H259372   5.204   4.972   4.587 -0.6309  0.8410 -1.3119
12653TIP3   OH259373   3.544   3.649  12.253  0.3958  0.0026  0.4237
12653TIP3    H159374   3.489   3.599  12.313  1.3628 -1.6792 -0.0454
12653TIP3    H259375   3.589   3.584  12.200  2.0084  1.3509  0.0305
12654TIP3   OH259376   0.385   5.570  15.154 -0.2949 -0.2845  0.3479
12654TIP3    H159377   0.404   5.650  15.105  1.9034 -0.5915  0.5883
12654TIP3    H259378   0.314   5.528  15.105 -0.0097  0.7632 -1.0332
12655TIP3   OH259379   4.385   0.105  12.457 -0.1423 -0.4468  0.3202
12655TIP3    H159380   4.430   0.189  12.450 -0.9052 -0.0975 -0.7319
12655TIP3    H259381   4.295   0.128  12.479 -0.3707 -0.9766 -0.0333
12656TIP3   OH259382   1.953   2.144   4.795 -0.5845  0.1512 -0.3782
12656TIP3    H159383   1.902   2.163   4.716 -1.9965 -0.9849  0.2277
12656TIP3    H259384   1.893   2.096   4.852  0.4399  0.8467  1.3620
12657TIP3   OH259385   4.667   0.454  13.179 -0.1551 -0.3469  0.5727
12657TIP3    H159386   4.599   0.442  13.246  0.1473 -1.6846  0.6598
12657TIP3    H259387   4.672   0.370  13.134  2.0521 -0.5825  1.1461
12658TIP3   OH259388   4.505   4.826   0.429 -0.3403 -0.2073  0.0464
12658TIP3    H159389   4.484   4.910   0.388  1.0675  0.3535  0.4024
12658TIP3    H259390   4.491   4.840   0.523  1.9541  0.3619  0.3627
12659TIP3   OH259391   6.330   0.532   6.732 -0.0763  0.5451  0.2776
12659TIP3    H159392   6.267   0.574   6.674 -0.8141 -0.2798  0.4656
12659TIP3    H259393   6.404   0.509   6.676  0.1129  1.5823  0.0699
12660TIP3   OH259394   4.834   4.642   5.318 -0.0555  0.4623 -0.1482
12660TIP3    H159395   4.786   4.610   5.242 -0.7266 -3.0582  1.5888
12660TIP3    H259396   4.767   4.683   5.373  0.1767  1.6270 -0.6948
12661TIP3   OH259397   6.161   4.075   2.323  0.1985 -0.5805 -0.0566
12661TIP3    H159398   6.123   4.119   2.399  1.3366 -1.3299  0.9778
12661TIP3    H259399   6.090   4.021   2.289 -0.1068 -0.8550  0.9725
12662TIP3   OH259400   5.308   0.528   2.593 -0.1216  0.2451  0.0171
12662TIP3    H159401   5.253   0.555   2.520 -0.5089 -2.1268 -0.6349
12662TIP3    H259402   5.397   0.548   2.564 -0.4516  2.1652  0.2174
12663TIP3   OH259403   3.265   4.825   0.677  0.4554  0.1314  0.4066
12663TIP3    H159404   3.258   4.783   0.591  0.3720  0.3713  0.2962
12663TIP3    H259405   3.333   4.892   0.666  0.5518  0.0607  0.5675
12664TIP3   OH259406   0.811   2.728   4.959 -0.3338  0.6044 -0.0780
12664TIP3    H159407   0.829   2.660   4.894 -0.1948 -0.2082  0.7770
12664TIP3    H259408   0.897   2.755   4.990 -0.4039 -0.7698  1.4888
12665TIP3   OH259409   6.530   6.367   5.918 -0.3943  0.0904  0.7337
12665TIP3    H159410   6.580   6.423   5.977  1.3153 -2.8203  2.2673
12665TIP3    H259411   6.518   6.285   5.966  0.3432 -2.1934 -2.5949
12666TIP3   OH259412   5.180   3.328  16.289 -0.3279 -0.5102  0.1010
12666TIP3    H159413   5.238   3.265  16.332  0.3321 -1.5102 -2.1129
12666TIP3    H259414   5.188   3.308  16.196 -2.1320  1.1669 -0.4734
12667TIP3   OH259415   5.003   0.726   3.797 -0.4797 -0.0668 -0.4967
12667TIP3    H159416   4.997   0.638   3.758 -0.7078 -0.3199  0.0937
12667TIP3    H259417   4.941   0.724   3.870 -0.9131  0.7797 -0.8257
12668TIP3   OH259418   4.108   3.328   5.291 -0.2766 -0.0661 -0.7189
12668TIP3    H159419   4.175   3.339   5.223  0.8680  2.7372  0.7203
12668TIP3    H259420   4.025   3.342   5.245  0.3345 -0.1610 -1.8866
12669TIP3   OH259421   1.456   2.641  17.232  0.2709  0.6501 -0.1114
12669TIP3    H159422   1.485   2.565  17.182 -0.5872  0.5951 -0.5339
12669TIP3    H259423   1.368   2.619  17.262  0.2422  1.2385  0.2707
12670TIP3   OH259424   0.529   4.005   3.938  0.1137 -0.1171  0.8520
12670TIP3    H159425   0.458   4.014   3.873 -0.0077 -0.3392  0.9523
12670TIP3    H259426   0.609   4.021   3.888  0.0426 -0.5992  0.5762
12671TIP3   OH259427   2.294   2.402   1.910 -0.3279 -0.3963 -0.3551
12671TIP3    H159428   2.374   2.413   1.961  0.0379 -1.0355 -0.7793
12671TIP3    H259429   2.228   2.451   1.958 -0.0940 -1.3616  0.9941
12672TIP3   OH259430   4.170   2.956   6.531  0.1317 -0.5620  0.0754
12672TIP3    H159431   4.084   2.915   6.535 -0.1185 -0.2423 -1.4218
12672TIP3    H259432   4.162   3.023   6.463  1.0382  0.7493  1.1975
12673TIP3   OH259433   6.184   2.492   5.681  0.4430 -0.4899 -0.1488
12673TIP3    H159434   6.225   2.577   5.668  1.0705 -0.6739  0.6153
12673TIP3    H259435   6.171   2.459   5.592 -2.0563  1.4306 -0.6196
12674TIP3   OH259436   5.128   0.411  17.045 -0.2991  0.2595 -0.1114
12674TIP3    H159437   5.073   0.341  17.080  0.6208 -0.3354  0.1804
12674TIP3    H259438   5.077   0.447  16.973 -1.4027  0.2400  0.6334
12675TIP3   OH259439   6.524   4.772   1.622 -0.1652 -0.3006  0.6183
12675TIP3    H159440   6.597   4.800   1.677 -2.1078  1.2492  2.6602
12675TIP3    H259441   6.486   4.698   1.670 -1.5205  0.6783  1.1296
12676TIP3   OH259442   0.680   5.891   6.259  0.1451  0.1052  0.1066
12676TIP3    H159443   0.756   5.833   6.246  0.4873  0.5013  0.3328
12676TIP3    H259444   0.718   5.977   6.275 -0.3554  0.2809  0.3563
12677TIP3   OH259445   0.850   2.355  15.436  0.3560  0.1693 -0.0779
12677TIP3    H159446   0.844   2.293  15.508 -0.6257 -1.4569 -1.4694
12677TIP3    H259447   0.865   2.301  15.359  0.3510  1.7453 -1.2404
12678TIP3   OH259448   0.038   3.628   5.264 -0.0911 -0.1926 -0.0716
12678TIP3    H159449   0.012   3.661   5.350  0.6359  0.8443 -0.2254
12678TIP3    H259450  -0.020   3.554   5.248  0.2029 -0.8344  1.5972
12679TIP3   OH259451   5.645   2.839   1.471  0.7316 -0.0903  0.8130
12679TIP3    H159452   5.701   2.910   1.503  4.6765 -2.8263  0.6736
12679TIP3    H259453   5.706   2.776   1.432 -2.5273 -3.3463  0.4548
12680TIP3   OH259454   3.674   1.503   5.261 -0.2908 -0.8067  0.9498
12680TIP3    H159455   3.600   1.552   5.225  0.4908  0.4807  1.0187
12680TIP3    H259456   3.746   1.521   5.200  0.1547 -1.4486  1.2739
12681TIP3   OH259457   0.795   3.009  16.177  0.1001 -0.1316 -0.3443
12681TIP3    H159458   0.759   2.921  16.194 -2.0443  0.5882 -0.8741
12681TIP3    H259459   0.833   3.003  16.090 -0.4508 -0.4164 -0.5688
12682TIP3   OH259460   5.486   4.976   0.992  0.1694  0.6990 -0.1362
12682TIP3    H159461   5.541   4.950   1.065 -0.7370  0.0765  0.3481
12682TIP3    H259462   5.458   4.893   0.952  1.0776  1.0300 -1.5246
12683TIP3   OH259463   4.705   2.850   1.403  0.6626 -0.5036 -0.1396
12683TIP3    H159464   4.688   2.774   1.459  2.2528 -2.1616 -1.7379
12683TIP3    H259465   4.769   2.902   1.452  0.6583 -0.9589  0.3636
12684TIP3   OH259466   1.442   0.950  16.014 -0.3775  0.3858 -0.1840
12684TIP3    H159467   1.419   0.954  16.107  3.2479  0.6075  0.8357
12684TIP3    H259468   1.480   0.862  16.003  1.0966  1.0834 -0.9181
12685TIP3   OH259469   1.247   3.995  14.638  0.0362 -0.1349 -0.0978
12685TIP3    H159470   1.300   3.945  14.701  0.6404  0.1024 -0.4036
12685TIP3    H259471   1.276   3.963  14.552 -1.9311 -1.6363 -0.2686
12686TIP3   OH259472   6.192   3.065  12.703  0.0622 -0.2867 -0.3145
12686TIP3    H159473   6.143   3.147  12.700  1.1921  0.4280  0.1922
12686TIP3    H259474   6.267   3.079  12.646  0.1360 -1.0737 -0.4314
12687TIP3   OH259475   2.305   2.803   1.799  0.1009  0.0519  0.0559
12687TIP3    H159476   2.346   2.835   1.719  0.5087 -1.1891 -0.2582
12687TIP3    H259477   2.257   2.725   1.772 -2.1200  1.1942  0.5116
12688TIP3   OH259478   2.626   5.620   0.901  0.3702  0.7136 -0.5424
12688TIP3    H159479   2.669   5.575   0.828 -0.2153  0.1516 -0.5413
12688TIP3    H259480   2.553   5.666   0.860  1.0234  1.7769 -0.5635
12689TIP3   OH259481   1.154   2.112   4.071  0.2364  0.2270  0.1525
12689TIP3    H159482   1.157   2.202   4.104 -1.1431  0.9426 -1.4715
12689TIP3    H259483   1.229   2.105   4.012  1.1412 -0.1651  1.3265
12690TIP3   OH259484   4.251   5.010   5.672 -0.5875  0.0808 -0.2509
12690TIP3    H159485   4.228   5.009   5.764  0.7065 -1.4273  0.0996
12690TIP3    H259486   4.281   5.100   5.656  0.2920  0.0669  1.1203
12691TIP3   OH259487   3.840   4.977  11.049 -0.3009 -0.0627  0.4942
12691TIP3    H159488   3.830   4.887  11.019 -2.0071  0.2490  0.0060
12691TIP3    H259489   3.758   4.997  11.094  0.1446  1.1738  0.8143
12692TIP3   OH259490   1.807   3.630  16.451  0.0866  0.3971  0.1300
12692TIP3    H159491   1.739   3.582  16.498 -1.3736  0.5439 -1.7162
12692TIP3    H259492   1.841   3.567  16.387  1.4386  0.4494  0.7649
12693TIP3   OH259493   0.653   0.392  15.016 -0.1009  0.2570 -0.6126
12693TIP3    H159494   0.605   0.380  15.098 -0.3433  0.5178 -0.7143
12693TIP3    H259495   0.700   0.309  15.004 -2.5423 -1.0425 -1.8389
12694TIP3   OH259496   0.394   2.048   2.341  0.2969 -0.3543  0.5384
12694TIP3    H159497   0.422   2.100   2.266 -0.9352  0.7874  0.8301
12694TIP3    H259498   0.428   1.960   2.324  0.1015 -0.1045 -1.3148
12695TIP3   OH259499   3.295   4.502   0.201 -0.1290 -0.0681 -0.1467
12695TIP3    H159500   3.201   4.512   0.192 -0.4505 -2.0017  0.5073
12695TIP3    H259501   3.309   4.407   0.195  1.4430 -0.1073  2.6355
12696TIP3   OH259502   0.729   3.934  14.764  0.3637  0.3493  0.6963
12696TIP3    H159503   0.689   3.953  14.849 -1.6556  2.6261 -0.6359
12696TIP3    H259504   0.660   3.889  14.715  1.2578 -0.2984  0.0031
12697TIP3   OH259505   3.377   2.835   3.264 -0.0839  0.2515  0.0785
12697TIP3    H159506   3.314   2.887   3.314  0.4147  2.2942 -1.2909
12697TIP3    H259507   3.462   2.860   3.300  0.0813 -2.0007  1.4679
12698TIP3   OH259508   6.644   3.366  16.258  0.5943 -0.2851  0.7988
12698TIP3    H159509   6.669   3.293  16.202  2.3502  1.6960 -1.1708
12698TIP3    H259510   6.558   3.341  16.292  1.8731 -4.0432  1.7826
12699TIP3   OH259511   6.278   1.993  16.524 -0.2216  0.3883 -0.0075
12699TIP3    H159512   6.349   2.056  16.531 -0.0430  0.5270 -2.2508
12699TIP3    H259513   6.290   1.954  16.437 -1.1322 -1.7561  0.7693
12700TIP3   OH259514   2.309   0.972   4.729 -0.0455 -0.1066  0.0675
12700TIP3    H159515   2.329   1.043   4.790 -2.8400  0.4568  0.4553
12700TIP3    H259516   2.366   0.988   4.654 -2.1241  4.0440 -0.8926
12701TIP3   OH259517   4.908   3.137  13.624 -0.4842 -0.1642  0.6211
12701TIP3    H159518   4.821   3.105  13.649 -0.8181 -0.3633 -0.6856
12701TIP3    H259519   4.918   3.107  13.534  1.2708 -0.8176  1.0031
12702TIP3   OH259520   2.976   5.251  11.183 -0.5189  0.3782  0.4395
12702TIP3    H159521   2.906   5.259  11.118 -1.3827 -0.6436  1.2113
12702TIP3    H259522   3.046   5.205  11.138 -0.4070  1.2292 -0.2832
12703TIP3   OH259523   4.155   3.827  11.170  0.1028 -0.1673 -0.3102
12703TIP3    H159524   4.136   3.878  11.248 -1.2704  0.7296 -1.1792
12703TIP3    H259525   4.186   3.891  11.106  2.1949 -1.0253 -0.2349
12704TIP3   OH259526   1.116   0.638   3.979 -0.0608  0.1047  1.0119
12704TIP3    H159527   1.107   0.684   4.063 -2.2478  0.0983  0.8379
12704TIP3    H259528   1.072   0.694   3.916  0.0513 -0.7218  0.1864
12705TIP3   OH259529   0.065   5.607   4.750  0.4011 -0.2124 -0.3148
12705TIP3    H159530   0.114   5.666   4.807 -0.1628 -0.5578  0.5311
12705TIP3    H259531   0.024   5.665   4.686 -3.0177  0.8328  2.5322
12706TIP3   OH259532   6.499   0.912  12.080  0.4463 -0.1526  0.0327
12706TIP3    H159533   6.509   0.885  12.171 -0.0608 -0.2875  0.0504
12706TIP3    H259534   6.405   0.926  12.069  0.6525  1.5172  0.0116
12707TIP3   OH259535   5.662   3.369   0.993 -0.0821  0.1575  0.7120
12707TIP3    H159536   5.627   3.320   0.918  0.1026 -3.2261  2.6466
12707TIP3    H259537   5.694   3.451   0.955 -0.0479 -1.3400 -2.8793
12708TIP3   OH259538   6.716   6.693   0.149 -0.5196 -0.5209 -0.2586
12708TIP3    H159539   6.778   6.642   0.097  2.0038  1.4401  0.5602
12708TIP3    H259540   6.733   6.784   0.123 -2.0849  0.1844  1.0207
12709TIP3   OH259541   2.258   2.322   1.647  0.1227 -0.1367 -0.5505
12709TIP3    H159542   2.335   2.303   1.593  2.0233  1.7209  1.3384
12709TIP3    H259543   2.289   2.316   1.737 -2.0758  0.3086  0.2960
12710TIP3   OH259544   2.611   3.649  11.539 -0.1136  0.5287 -0.4790
12710TIP3    H159545   2.574   3.736  11.548 -2.4044 -0.3186 -0.9245
12710TIP3    H259546   2.662   3.636  11.619 -2.3460  1.1343  1.1486
12711TIP3   OH259547   3.906   4.786   0.789  0.4285 -0.1074 -0.2853
12711TIP3    H159548   3.908   4.769   0.695 -1.1615  0.1722 -0.3868
12711TIP3    H259549   3.906   4.699   0.829  1.0772 -0.2267 -0.5267
12712TIP3   OH259550   6.495   3.485   4.517 -0.2760 -0.1915 -0.0289
12712TIP3    H159551   6.582   3.523   4.529  0.1137 -1.2115  0.5093
12712TIP3    H259552   6.435   3.559   4.525  0.4891  0.3891  0.4979
12713TIP3   OH259553   3.722   2.922  14.160 -0.1091  0.1067 -0.5460
12713TIP3    H159554   3.727   3.005  14.112 -0.2916  1.2398  1.3103
12713TIP3    H259555   3.655   2.937  14.227  1.5952 -0.6789  1.4056
12714TIP3   OH259556   5.881   5.856  14.998  0.4291  0.1095  0.2256
12714TIP3    H159557   5.892   5.794  14.926 -0.6632 -2.0137  1.7535
12714TIP3    H259558   5.829   5.927  14.961 -1.6355 -1.7570 -0.7239
12715TIP3   OH259559   3.431   6.652  16.822 -0.1141 -0.1663  0.4549
12715TIP3    H159560   3.413   6.736  16.778 -1.1921  1.1109  3.1121
12715TIP3    H259561   3.513   6.667  16.869  1.0257 -1.5151 -1.0001
12716TIP3   OH259562   0.331   5.500   3.513  0.5500 -0.4778  0.2115
12716TIP3    H159563   0.285   5.547   3.582 -1.9258  1.1064 -2.2840
12716TIP3    H259564   0.412   5.549   3.499 -0.0060  0.5351  0.4908
12717TIP3   OH259565   0.859   1.558  16.434 -0.0745 -0.2949 -0.4855
12717TIP3    H159566   0.922   1.504  16.386 -0.1472  0.6127 -1.6616
12717TIP3    H259567   0.866   1.530  16.525 -0.1821 -2.3377 -1.0641
12718TIP3   OH259568   5.625   2.900  16.022 -0.3359  0.6992  0.4711
12718TIP3    H159569   5.625   2.844  16.100  1.5659  1.2743  0.9282
12718TIP3    H259570   5.641   2.839  15.950 -0.5663  0.3644  0.6963
12719TIP3   OH259571   6.434   2.534  14.717  0.0614 -0.1072 -0.4509
12719TIP3    H159572   6.442   2.529  14.812 -0.7447 -0.9364 -0.4096
12719TIP3    H259573   6.501   2.596  14.690  0.4997 -0.0947  0.6298
12720TIP3   OH259574   5.907   2.381  13.561  0.5454  0.1112 -0.4180
12720TIP3    H159575   5.872   2.461  13.523  0.5306 -0.6949 -2.2269
12720TIP3    H259576   5.982   2.359  13.506 -0.1374 -1.7187 -0.6939
12721TIP3   OH259577   3.523   3.719   4.830  0.1484  0.1585 -0.0339
12721TIP3    H159578   3.571   3.668   4.895  0.4663  1.2035  0.5703
12721TIP3    H259579   3.550   3.810   4.845  1.8945  0.2854 -2.9703
12722TIP3   OH259580   2.623   5.548   6.956  0.0719 -0.2856 -0.7542
12722TIP3    H159581   2.639   5.459   6.987 -2.8527 -0.8389 -0.6195
12722TIP3    H259582   2.548   5.541   6.897  0.1720  2.0130 -1.2674
12723TIP3   OH259583   2.844   1.250  12.238  0.2828  0.3697  0.0740
12723TIP3    H159584   2.913   1.271  12.300  0.6819  0.9492 -0.5490
12723TIP3    H259585   2.877   1.281  12.153 -1.8217  3.2518  0.1416
12724TIP3   OH259586   6.108   5.439  12.116  0.1836 -1.0084 -0.0205
12724TIP3    H159587   6.103   5.524  12.071 -0.3615 -1.1556 -0.2442
12724TIP3    H259588   6.066   5.455  12.201  1.0039 -0.7920  0.3549
12725TIP3   OH259589   3.864   6.498  14.673 -0.4652  0.0246  0.9690
12725TIP3    H159590   3.866   6.593  14.675 -0.9806  0.0428  2.9541
12725TIP3    H259591   3.953   6.472  14.697 -0.0566 -0.0506 -0.4866
12726TIP3   OH259592   0.846   6.204  14.564  0.2291 -0.2136 -0.3034
12726TIP3    H159593   0.855   6.114  14.596  1.3348 -0.7646 -2.0461
12726TIP3    H259594   0.853   6.197  14.469 -1.4291  1.5317 -0.6123
12727TIP3   OH259595   6.368   2.677  15.466  0.5828 -0.6056 -0.1519
12727TIP3    H159596   6.325   2.697  15.383 -1.5237  0.8816  1.2041
12727TIP3    H259597   6.300   2.637  15.520  1.8619 -1.4087  0.9524
12728TIP3   OH259598   3.323   4.847  10.977 -0.2884 -0.2755  0.3556
12728TIP3    H159599   3.379   4.919  10.947 -1.2411 -0.6127 -2.4771
12728TIP3    H259600   3.359   4.769  10.934 -1.6717 -0.8359  0.1881
12729TIP3   OH259601   5.045   5.465  13.111 -0.3049  0.0268  0.3041
12729TIP3    H159602   5.063   5.494  13.201  1.5410 -1.9903  0.6634
12729TIP3    H259603   4.954   5.436  13.113 -0.3083  0.0504  1.5048
12730TIP3   OH259604   4.455   6.198   5.432 -0.4016 -0.3111 -0.1858
12730TIP3    H159605   4.447   6.220   5.340 -1.5024  0.8142  0.1530
12730TIP3    H259606   4.365   6.198   5.465  0.1185  2.0686  1.4891
12731TIP3   OH259607   3.735   2.964   1.465  0.1443 -0.4242  0.1862
12731TIP3    H159608   3.830   2.972   1.473 -0.0807  1.5079  1.6845
12731TIP3    H259609   3.721   2.929   1.377  2.2119 -0.0425 -0.3433
12732TIP3   OH259610   4.804   1.969   0.969 -0.1642 -0.1957 -0.0910
12732TIP3    H159611   4.879   2.028   0.979  0.2293 -0.6229 -0.4955
12732TIP3    H259612   4.740   2.002   1.031 -1.5669  3.1660 -3.0100
12733TIP3   OH259613   0.369   2.421   2.494  0.1307  0.0724  0.1550
12733TIP3    H159614   0.424   2.446   2.569  0.8710  1.6331 -0.8573
12733TIP3    H259615   0.358   2.326   2.503  1.6110 -0.0274  1.3139
12734TIP3   OH259616   0.498   1.101   4.821 -0.2521 -0.3121  0.1013
12734TIP3    H159617   0.416   1.095   4.773 -0.8347 -1.1287  1.1863
12734TIP3    H259618   0.562   1.058   4.764 -0.8506 -0.9229 -0.1155
12735TIP3   OH259619   5.963   5.030   2.772 -0.3405 -0.5180 -0.0936
12735TIP3    H159620   5.959   5.109   2.718  0.3493 -1.2068 -1.1873
12735TIP3    H259621   5.911   5.052   2.849  1.7418  1.8682  0.7973
12736TIP3   OH259622   0.785   2.584   2.516 -0.1635 -0.9615 -0.1015
12736TIP3    H159623   0.724   2.644   2.472 -1.2885 -1.7642  0.3341
12736TIP3    H259624   0.799   2.514   2.452 -0.8326 -1.5043  0.3412
12737TIP3   OH259625   5.436   6.509   5.839  0.2069  0.8624  0.8170
12737TIP3    H159626   5.445   6.429   5.891 -1.5647  1.5337  2.2504
12737TIP3    H259627   5.429   6.478   5.748  0.7589 -0.5063  1.2177
12738TIP3   OH259628   5.038   6.069  11.297 -0.3201 -0.0323  0.3699
12738TIP3    H159629   5.113   6.095  11.352 -0.2460  0.3751  0.0751
12738TIP3    H259630   4.978   6.143  11.302 -1.7343 -1.1985  2.3809
12739TIP3   OH259631   5.891   0.432   2.565 -0.0102  0.4728 -0.1453
12739TIP3    H159632   5.891   0.506   2.626 -0.9495 -0.8212  1.5251
12739TIP3    H259633   5.804   0.394   2.573  0.2540 -0.4693 -1.4075
12740TIP3   OH259634   0.544   6.317   1.038 -0.0514 -0.3402  0.1021
12740TIP3    H159635   0.456   6.319   1.075  0.2854 -0.3061  0.9365
12740TIP3    H259636   0.582   6.237   1.073 -0.0528 -0.8382 -0.9986
12741TIP3   OH259637   4.997   1.928   4.325  0.4210  0.9537  0.7059
12741TIP3    H159638   4.947   1.870   4.382 -1.0006  1.7309  0.3002
12741TIP3    H259639   5.047   1.869   4.269 -0.8137  0.0826  0.4598
12742TIP3   OH259640   2.155   0.024  10.675 -0.1034  0.5699 -0.5672
12742TIP3    H159641   2.154  -0.071  10.664 -1.1249  0.5709 -0.5942
12742TIP3    H259642   2.246   0.049  10.662  0.1479 -0.3927 -0.7068
12743TIP3   OH259643   4.639   3.639   1.995  0.0076  0.0717  0.0662
12743TIP3    H159644   4.675   3.587   2.067  0.9312  3.0149  1.9033
12743TIP3    H259645   4.714   3.658   1.939  0.3724  1.9952  1.1447
12744TIP3   OH259646   2.729   2.568  15.495  0.2697 -0.0844  0.9329
12744TIP3    H159647   2.817   2.591  15.466 -0.1303 -1.0350 -1.2458
12744TIP3    H259648   2.684   2.652  15.503  0.0186  0.3051 -2.8174
12745TIP3   OH259649   1.140   6.268  11.886 -0.0121 -0.0944  0.3950
12745TIP3    H159650   1.234   6.254  11.898  0.3859  1.7344 -0.2255
12745TIP3    H259651   1.105   6.181  11.865  1.7302 -0.6213 -0.5214
12746TIP3   OH259652   4.948   0.142  14.454  0.4005 -0.4566  0.5794
12746TIP3    H159653   4.928   0.225  14.497  1.4199  0.4226 -0.5752
12746TIP3    H259654   4.886   0.137  14.381  1.1994 -0.0383 -0.1487
12747TIP3   OH259655   0.044   4.214  12.573 -0.2675 -0.7610 -0.0284
12747TIP3    H159656   0.046   4.127  12.532  0.4870 -0.6350 -0.2714
12747TIP3    H259657   0.106   4.266  12.522  0.6081 -0.5651  1.1819
12748TIP3   OH259658   0.153   6.583  12.418 -0.4525  0.1269 -0.3682
12748TIP3    H159659   0.112   6.635  12.487  0.3575  2.0442 -1.2458
12748TIP3    H259660   0.100   6.600  12.340  0.1746  0.1140 -0.8070
12749TIP3   OH259661   5.294   6.183   1.064 -0.5610  0.6192 -1.2322
12749TIP3    H159662   5.310   6.117   0.997  1.9619 -2.2595  1.8201
12749TIP3    H259663   5.377   6.232   1.070 -0.1846 -0.1604  0.6310
12750TIP3   OH259664   0.634   5.226   2.556  0.1973 -0.1039  0.1312
12750TIP3    H159665   0.714   5.181   2.581  0.7559  1.8523  2.2664
12750TIP3    H259666   0.572   5.207   2.627 -0.5462  0.0546 -0.4582
12751TIP3   OH259667   5.228   6.491   1.316 -0.1916 -0.6940 -0.2060
12751TIP3    H159668   5.169   6.419   1.336  0.0300 -0.7090  0.3985
12751TIP3    H259669   5.211   6.511   1.224 -1.7715 -0.1285  0.1802
12752TIP3   OH259670   4.044   5.752  13.863  0.2241  0.2861  0.0900
12752TIP3    H159671   3.981   5.713  13.803 -1.0669 -0.1330  1.6270
12752TIP3    H259672   4.125   5.703  13.847  0.6503  1.7663 -2.8890
12753TIP3   OH259673   4.024   3.854   1.805 -0.5625  0.3700  0.3461
12753TIP3    H159674   4.103   3.816   1.766 -0.0783 -1.2353  2.6782
12753TIP3    H259675   3.961   3.859   1.733  1.2236  0.4881 -1.2876
12754TIP3   OH259676   4.162   3.567   1.709  0.4107  0.2875 -0.3348
12754TIP3    H159677   4.174   3.490   1.765 -1.1918  1.5458  1.8807
12754TIP3    H259678   4.246   3.613   1.714  0.5930 -0.0959  0.2514
12755TIP3   OH259679   5.062   0.454  12.937  0.3581 -0.4449  0.4154
12755TIP3    H159680   5.057   0.404  12.856  0.8974 -0.7551  0.5719
12755TIP3    H259681   5.115   0.401  12.996  0.6147  0.1269  0.7140
12756TIP3   OH259682   1.742   2.064   1.748 -0.0314  0.3471  0.0959
12756TIP3    H159683   1.736   2.052   1.653 -3.8167 -1.3724  0.3608
12756TIP3    H259684   1.722   1.978   1.784 -2.1815  1.6692  2.3862
12757TIP3   OH259685   5.886   6.503   3.701  0.1178 -0.5018  0.4287
12757TIP3    H159686   5.935   6.575   3.661  1.2449 -1.2173  0.4817
12757TIP3    H259687   5.915   6.425   3.654 -1.5896 -0.8741 -0.0900
12758TIP3   OH259688   4.898   4.081  14.893  0.1516 -0.2766 -0.0256
12758TIP3    H159689   4.919   4.018  14.824  1.4097 -0.1732  0.2344
12758TIP3    H259690   4.939   4.162  14.863  0.9431 -0.3003  0.9573
12759TIP3   OH259691   2.800   4.601   4.484 -0.3740 -0.1233 -0.0870
12759TIP3    H159692   2.714   4.605   4.526  0.3004 -1.3420  1.5141
12759TIP3    H259693   2.829   4.511   4.497  1.8553  0.6637  0.9029
12760TIP3   OH259694   0.599   4.704  17.348 -0.5990 -0.1767  0.6255
12760TIP3    H159695   0.518   4.756  17.343 -1.4102 -1.2170  1.9386
12760TIP3    H259696   0.627   4.713  17.439  0.8633  0.2726  0.1517
12761TIP3   OH259697   2.316   3.069   2.618 -0.1206 -0.1655 -0.0079
12761TIP3    H159698   2.340   3.116   2.698 -0.9437  0.4590 -0.1122
12761TIP3    H259699   2.298   2.980   2.648  1.1137 -0.3476  0.2464
12762TIP3   OH259700   3.510   3.049  12.662  0.0918 -0.4099  0.5871
12762TIP3    H159701   3.535   2.958  12.675 -0.2595 -0.6489 -0.3443
12762TIP3    H259702   3.592   3.094  12.643  0.2005 -0.6345  0.5228
12763TIP3   OH259703   2.942   2.917  16.661  0.2689  0.1755 -0.3338
12763TIP3    H159704   2.923   2.937  16.569  1.7115  1.4777 -0.3938
12763TIP3    H259705   2.930   3.000  16.707 -1.1039 -0.6176  0.8007
12764TIP3   OH259706   6.105   3.020  13.020 -0.2996 -0.1933  0.5360
12764TIP3    H159707   6.095   3.085  12.951  0.5199  0.7018  1.2402
12764TIP3    H259708   6.069   2.939  12.982  2.5958 -0.4657 -2.0217
12765TIP3   OH259709   3.229   1.535  13.848 -0.3770 -0.9321 -0.8358
12765TIP3    H159710   3.178   1.558  13.926 -1.2563 -2.1708 -1.0194
12765TIP3    H259711   3.286   1.611  13.833 -1.1619 -0.1139  0.2067
12766TIP3   OH259712   3.665   0.507   5.124  0.3922 -0.1069  0.6454
12766TIP3    H159713   3.701   0.520   5.211  0.6036  2.4583  0.2514
12766TIP3    H259714   3.578   0.469   5.139  0.3486  0.4850  1.9659
12767TIP3   OH259715   4.705   2.691  15.919  0.4424 -0.5256 -0.5341
12767TIP3    H159716   4.647   2.767  15.928  2.7348  1.4823 -1.5195
12767TIP3    H259717   4.710   2.676  15.825  2.5762  0.3509 -0.6374
12768TIP3   OH259718   1.716   4.349  14.978  0.7443  0.3445  0.0184
12768TIP3    H159719   1.674   4.435  14.980  1.4892  0.7165  0.0053
12768TIP3    H259720   1.775   4.353  14.902 -1.1051 -1.1038 -1.5683
12769TIP3   OH259721   2.722   1.389   4.731  0.3248  0.6772 -0.2991
12769TIP3    H159722   2.794   1.360   4.787  0.0915 -0.2739 -0.4716
12769TIP3    H259723   2.754   1.376   4.642 -0.3628 -0.6034 -0.3856
12770TIP3   OH259724   0.267   3.192   0.587 -0.0817 -0.2294 -0.0727
12770TIP3    H159725   0.259   3.097   0.600 -0.1782 -0.2160 -0.0358
12770TIP3    H259726   0.332   3.200   0.517 -0.2551 -0.3335 -0.2499
12771TIP3   OH259727   2.643   2.026   1.290  0.8714  0.4418  0.2459
12771TIP3    H159728   2.689   1.956   1.246  1.2399  1.1449 -0.5132
12771TIP3    H259729   2.635   2.095   1.224  0.4162  1.0673  0.9336
12772TIP3   OH259730   0.070   0.604  16.494  0.1989  0.3674 -0.4784
12772TIP3    H159731   0.148   0.551  16.483 -0.4938 -0.5426 -1.2145
12772TIP3    H259732   0.101   0.686  16.532  1.7811  0.8315 -2.6440
12773TIP3   OH259733   2.811   4.106  12.677  0.1625  0.1411  0.3628
12773TIP3    H159734   2.824   4.019  12.639 -0.0762  0.3371 -0.1739
12773TIP3    H259735   2.802   4.164  12.601  0.1790  0.6110  0.7186
12774TIP3   OH259736   5.797   5.689   4.358 -0.5077  0.3324 -0.3479
12774TIP3    H159737   5.856   5.741   4.303  1.6154 -1.4043  0.1301
12774TIP3    H259738   5.711   5.697   4.316  0.3127  1.9288 -1.8415
12775TIP3   OH259739   6.642   4.640   3.003 -0.0116 -0.1896 -0.4963
12775TIP3    H159740   6.603   4.559   3.038  1.8405 -1.7314 -1.8368
12775TIP3    H259741   6.574   4.706   3.018 -1.1612 -1.7022  1.6857
12776TIP3   OH259742   4.081   4.987  13.122  0.5879 -0.0603 -0.1659
12776TIP3    H159743   4.149   5.040  13.163  0.5842  2.2267 -2.7893
12776TIP3    H259744   4.126   4.907  13.095  1.3560 -0.1117  1.2107
12777TIP3   OH259745   3.605   4.243   5.017  0.2154  0.4526 -0.3334
12777TIP3    H159746   3.578   4.305   5.085  0.4893  0.2124 -0.0038
12777TIP3    H259747   3.535   4.177   5.016 -1.2109  1.8710 -2.1707
12778TIP3   OH259748   1.369   3.489   1.332 -0.3335 -0.4204  0.2350
12778TIP3    H159749   1.294   3.529   1.288 -0.0692  0.1503  0.2970
12778TIP3    H259750   1.341   3.399   1.350 -0.3833 -0.7096 -1.2365
12779TIP3   OH259751   0.208   2.479   3.111 -0.2592  0.1659  0.1533
12779TIP3    H159752   0.180   2.393   3.077  2.2171 -0.4143 -0.6167
12779TIP3    H259753   0.154   2.542   3.063 -3.0393 -0.9087  1.6423
12780TIP3   OH259754   2.590   4.541   0.507 -0.6981 -0.5572  0.0948
12780TIP3    H159755   2.683   4.553   0.486 -0.5439 -2.4436 -0.4982
12780TIP3    H259756   2.558   4.630   0.524  0.9788  0.2431 -0.6381
12781TIP3   OH259757   0.004   0.988  13.637  0.4993 -0.1062 -0.1818
12781TIP3    H159758   0.091   0.993  13.676  0.6484  1.7575 -0.6873
12781TIP3    H259759  -0.055   0.972  13.712  1.1433 -0.2786  0.2992
12782TIP3   OH259760   4.444   2.392   0.725 -0.3358  0.2353 -0.1056
12782TIP3    H159761   4.381   2.329   0.689 -1.9154  1.0607  1.0732
12782TIP3    H259762   4.397   2.435   0.797  1.3994  1.3065  0.4621
12783TIP3   OH259763   0.548   1.953  10.983  0.2741  0.7311  0.6619
12783TIP3    H159764   0.459   1.982  10.960  0.3618 -0.1360 -0.9025
12783TIP3    H259765   0.556   1.866  10.943  1.3789  0.2118  1.9196
12784TIP3   OH259766   0.578   1.979   5.947 -0.2792 -0.4172  0.5279
12784TIP3    H159767   0.622   1.998   5.864 -0.4016  0.7121  0.7125
12784TIP3    H259768   0.646   1.938   6.001  0.0568 -0.3022  0.1965
12785TIP3   OH259769   4.010   4.928   2.589  0.2103 -0.1738  0.1060
12785TIP3    H159770   3.989   5.016   2.622  1.2300 -0.4723  1.6771
12785TIP3    H259771   4.082   4.942   2.528 -0.7711  0.2382 -1.0038
12786TIP3   OH259772   5.738   4.338   3.362  0.1348  0.2447  0.1344
12786TIP3    H159773   5.654   4.313   3.324  0.2515 -0.8937  0.5793
12786TIP3    H259774   5.717   4.408   3.423 -0.5040 -0.0452  0.2562
12787TIP3   OH259775   5.186   5.083  15.361  0.2758  0.2467 -0.0672
12787TIP3    H159776   5.190   5.003  15.414  0.8035  1.6123  2.0834
12787TIP3    H259777   5.276   5.095  15.331  0.4389  0.5834  0.5302
12788TIP3   OH259778   1.085   4.251  15.810 -0.0047 -0.2433  0.2130
12788TIP3    H159779   0.998   4.254  15.849 -0.7818 -1.1195 -1.3416
12788TIP3    H259780   1.070   4.264  15.716  1.7599  1.5744  0.1284
12789TIP3   OH259781   5.152   0.770  10.844  0.3447  0.1827 -0.3765
12789TIP3    H159782   5.117   0.719  10.917  2.5074 -1.1847 -0.2165
12789TIP3    H259783   5.204   0.839  10.886  0.1649  0.4754 -0.6321
12790TIP3   OH259784   2.028   2.376  12.610  0.2983 -0.0314 -0.4399
12790TIP3    H159785   1.962   2.444  12.605 -0.1126 -0.4909 -1.6112
12790TIP3    H259786   2.036   2.342  12.520 -0.4517 -2.3811  0.2905
12791TIP3   OH259787   4.793   6.675  13.383 -0.1234 -0.0517  0.1725
12791TIP3    H159788   4.818   6.666  13.291 -1.5828  3.1994 -0.6787
12791TIP3    H259789   4.876   6.682  13.430  0.6295 -0.2619 -1.0879
12792TIP3   OH259790   5.201   6.384  16.861  0.2639 -0.3192 -0.3424
12792TIP3    H159791   5.274   6.323  16.848  0.2094 -0.8333  1.5014
12792TIP3    H259792   5.133   6.331  16.904 -0.7844  0.4258 -1.0376
12793TIP3   OH259793   5.741   0.556  11.738 -0.1384 -0.4075  0.3539
12793TIP3    H159794   5.662   0.587  11.783 -2.1039 -0.8736 -2.5292
12793TIP3    H259795   5.778   0.635  11.699 -1.0272 -0.5836 -0.9114
12794TIP3   OH259796   2.840   0.479  16.053 -0.7492 -0.9644 -0.2261
12794TIP3    H159797   2.745   0.474  16.053 -0.8973  0.7364 -1.6303
12794TIP3    H259798   2.862   0.516  16.139 -1.4101 -0.6404 -0.1930
12795TIP3   OH259799   4.298   1.936  11.152 -0.2528 -0.7049 -0.4351
12795TIP3    H159800   4.300   1.884  11.072 -2.6817  1.2714 -1.9447
12795TIP3    H259801   4.212   1.918  11.190 -0.1806  0.3791  0.2966
12796TIP3   OH259802   3.299   5.968  11.315 -0.2498  0.2480 -0.5458
12796TIP3    H159803   3.344   5.893  11.354 -0.5138  0.8271  0.9312
12796TIP3    H259804   3.368   6.031  11.298 -0.1784  0.1308 -0.6941
12797TIP3   OH259805   3.447   5.274  13.090  0.2857 -0.0568 -0.2774
12797TIP3    H159806   3.408   5.199  13.044 -0.0082  0.8604 -1.5759
12797TIP3    H259807   3.481   5.330  13.020 -0.4435  1.5496  0.5956
12798TIP3   OH259808   0.072   0.686  13.340 -0.0082  0.3669  0.0004
12798TIP3    H159809   0.117   0.767  13.364 -1.0246  1.2448 -0.9329
12798TIP3    H259810   0.067   0.636  13.421  0.7477  1.1760  0.5690
12799TIP3   OH259811   0.331   2.740  14.855 -0.9015  0.3811 -0.2811
12799TIP3    H159812   0.237   2.735  14.870 -0.6010  1.2328  2.3385
12799TIP3    H259813   0.352   2.833  14.863  0.2038  0.1877 -0.6892
12800TIP3   OH259814   5.320   4.944   0.581  0.1190 -0.1776  0.1216
12800TIP3    H159815   5.299   4.916   0.670  1.1613 -1.3916  0.0086
12800TIP3    H259816   5.259   5.016   0.563 -0.2645 -0.0851  1.7153
12801TIP3   OH259817   5.200   1.332   5.539 -0.0885  0.3834  0.7582
12801TIP3    H159818   5.220   1.283   5.460 -1.2590  0.3449  0.4704
12801TIP3    H259819   5.275   1.391   5.550  0.8092 -0.6835  0.5023
12802TIP3   OH259820   2.313   3.203   4.995 -0.8006 -0.1251 -0.4811
12802TIP3    H159821   2.407   3.217   4.999 -0.2111 -3.3859 -0.4182
12802TIP3    H259822   2.290   3.222   4.904  0.1759 -0.5513 -0.8276
12803TIP3   OH259823   1.430   6.701   0.008 -0.0910  0.4679  0.3981
12803TIP3    H159824   1.456   6.695   0.100 -0.9973  2.0555  0.7978
12803TIP3    H259825   1.341   6.666   0.006  0.4115 -0.8281 -0.1492
12804TIP3   OH259826   0.461   6.650  16.813 -0.4005  0.5312 -0.0098
12804TIP3    H159827   0.483   6.560  16.787 -1.7171  1.1869 -4.2741
12804TIP3    H259828   0.543   6.698  16.802 -0.4373  0.3849 -1.0472
12805TIP3   OH259829   5.173   4.411  12.334  0.3692 -0.2262  0.3531
12805TIP3    H159830   5.154   4.329  12.288 -0.6014  0.4520 -0.4985
12805TIP3    H259831   5.146   4.394  12.424 -0.7299 -0.5607 -0.0152
12806TIP3   OH259832   5.945   3.373  13.195  0.1527  0.3640  0.5541
12806TIP3    H159833   6.023   3.320  13.211  1.1134  2.2274  2.6481
12806TIP3    H259834   5.892   3.320  13.135  2.4772 -1.4682 -0.0601
12807TIP3   OH259835   0.700   5.175   0.057 -0.3573  0.0730  0.0460
12807TIP3    H159836   0.735   5.185  -0.032 -1.3991  1.7806 -0.2097
12807TIP3    H259837   0.749   5.238   0.109 -1.0334  0.4105  0.2818
12808TIP3   OH259838   5.194   3.110  15.856  0.2795 -0.7834  0.9931
12808TIP3    H159839   5.263   3.162  15.815 -0.8597 -1.4810 -2.1129
12808TIP3    H259840   5.224   3.019  15.846 -1.3185 -1.1487 -1.1119
12809TIP3   OH259841   1.906   5.753   0.587  0.2934 -0.9887  0.6048
12809TIP3    H159842   1.838   5.765   0.521 -0.1867  0.9154  1.3680
12809TIP3    H259843   1.987   5.745   0.537 -0.2712 -1.4099 -0.2596
12810TIP3   OH259844   4.301   5.056   1.852  0.2080  0.0005  0.0854
12810TIP3    H159845   4.346   5.002   1.787 -1.5006 -1.0900 -0.2551
12810TIP3    H259846   4.343   5.035   1.935 -0.1696 -1.6027 -0.1046
12811TIP3   OH259847   2.613   6.341   2.970 -0.3225 -0.0777 -0.1815
12811TIP3    H159848   2.631   6.426   3.011 -0.9970 -1.5276  3.4120
12811TIP3    H259849   2.517   6.335   2.970 -0.5312  0.5431 -3.8304
12812TIP3   OH259850   5.533   4.952  12.991 -0.2049 -0.3291 -0.7461
12812TIP3    H159851   5.551   4.976  12.900 -0.5073 -1.8201 -1.2315
12812TIP3    H259852   5.617   4.925  13.027  0.1976  1.6050 -0.1033
12813TIP3   OH259853   5.728   3.949  15.979 -0.3540 -0.1365  0.1667
12813TIP3    H159854   5.640   3.947  15.942 -0.2413 -0.8786 -0.0738
12813TIP3    H259855   5.755   4.041  15.973 -0.8564 -0.0195 -0.3392
12814TIP3   OH259856   5.984   3.984   4.220 -0.0691  0.1853 -0.1699
12814TIP3    H159857   6.022   3.930   4.290 -2.2334 -0.5264  0.5519
12814TIP3    H259858   6.034   3.961   4.142  1.3347 -0.2460  0.8109
12815TIP3   OH259859   5.238   2.027  12.584 -0.3152 -0.2079  0.4805
12815TIP3    H159860   5.176   1.956  12.568 -0.1820 -0.2057 -0.0468
12815TIP3    H259861   5.241   2.034  12.680 -1.8620  0.4608  0.4992
12816TIP3   OH259862   6.378   3.186  12.484  0.0564 -0.2644  0.3572
12816TIP3    H159863   6.431   3.129  12.427 -1.6135 -1.6100  0.0825
12816TIP3    H259864   6.363   3.265  12.432  0.7672 -0.3668 -0.0187
12817TIP3   OH259865   5.300   3.434   4.923  0.1516  0.3038  0.6662
12817TIP3    H159866   5.354   3.487   4.981  0.4153  0.6671  0.0873
12817TIP3    H259867   5.357   3.411   4.850 -0.3706  0.3939  0.2241
12818TIP3   OH259868   6.020   1.461  12.493  0.5107  0.2652 -0.4704
12818TIP3    H159869   5.956   1.531  12.485 -1.7952 -1.3880  1.8757
12818TIP3    H259870   6.005   1.406  12.415 -1.6051 -0.5083  0.4008
12819TIP3   OH259871   0.023   3.399   4.648 -0.0469  0.6743 -0.3040
12819TIP3    H159872   0.086   3.347   4.698  1.0172  0.3046 -1.9152
12819TIP3    H259873  -0.057   3.347   4.648  1.2030 -1.4881 -2.5027
12820TIP3   OH259874   4.449   3.017   5.329  0.1325 -0.3567  0.3571
12820TIP3    H159875   4.495   3.015   5.413  2.0914 -1.7381 -0.6718
12820TIP3    H259876   4.516   3.039   5.265 -1.6246  2.3558 -0.7554
12821TIP3   OH259877   5.844   4.581   1.450 -0.4654 -0.0719  0.2760
12821TIP3    H159878   5.819   4.548   1.536  2.3370  1.2010  1.6873
12821TIP3    H259879   5.820   4.674   1.452 -0.8282 -0.1357 -0.5346
12822TIP3   OH259880   6.474   5.330  14.614  0.1444 -0.3932  0.2855
12822TIP3    H159881   6.507   5.271  14.682 -0.5172 -0.5712  0.4632
12822TIP3    H259882   6.417   5.275  14.560 -0.8725  0.1722  0.7409
12823TIP3   OH259883   4.502   1.031   0.319 -0.2202  0.0717  0.0935
12823TIP3    H159884   4.500   1.000   0.409 -0.5708 -1.2031 -0.3263
12823TIP3    H259885   4.584   0.997   0.284  0.0849  0.8572  0.0164
12824TIP3   OH259886   3.620   4.233   6.810 -0.2492 -0.6771 -0.0629
12824TIP3    H159887   3.649   4.280   6.731  1.6012 -0.4288  0.7198
12824TIP3    H259888   3.577   4.300   6.863 -1.6607 -0.8811 -0.9022
12825TIP3   OH259889   0.545   2.956   0.607 -0.1495  0.0327  0.2317
12825TIP3    H159890   0.572   2.918   0.691  0.8087  1.7727  0.7514
12825TIP3    H259891   0.581   3.045   0.608  0.7088 -0.1970 -2.4377
12826TIP3   OH259892   1.781   0.561  13.003 -0.2449 -0.0011 -0.3869
12826TIP3    H159893   1.749   0.486  12.953  1.1516  0.1944 -1.6342
12826TIP3    H259894   1.707   0.623  13.001 -0.8519 -0.7121 -0.6760
12827TIP3   OH259895   2.683   1.371  17.290 -1.2674 -0.0067  0.4805
12827TIP3    H159896   2.741   1.442  17.263  1.0926 -1.8334  0.3687
12827TIP3    H259897   2.632   1.350  17.212  1.3932 -1.4398 -1.0407
12828TIP3   OH259898   6.168   0.201  12.598  0.2631 -0.1866 -0.2001
12828TIP3    H159899   6.245   0.162  12.557  0.2273  0.0674 -0.5092
12828TIP3    H259900   6.187   0.198  12.692  0.6148 -0.1937 -0.2704
12829TIP3   OH259901   3.382   0.338   0.203  0.3864 -0.6842  0.2871
12829TIP3    H159902   3.462   0.298   0.168  0.6530 -0.3201  0.4781
12829TIP3    H259903   3.314   0.317   0.139  0.9832  0.4572 -0.7410
12830TIP3   OH259904   4.108   5.502  17.077 -0.0611 -0.0557 -0.4201
12830TIP3    H159905   4.051   5.469  17.007 -0.4320  2.3285 -1.3385
12830TIP3    H259906   4.119   5.594  17.057  1.3409  0.3002  1.6975
12831TIP3   OH259907   5.482   2.090  14.817  0.1821  0.1766 -0.1676
12831TIP3    H159908   5.499   2.095  14.911  1.4854  0.8148 -0.4189
12831TIP3    H259909   5.525   2.010  14.788 -0.6415 -0.2828 -0.1483
12832TIP3   OH259910   3.922   6.621  16.551 -0.6243  0.4861 -0.6873
12832TIP3    H159911   3.940   6.576  16.468  1.0267 -0.5907  0.1977
12832TIP3    H259912   3.941   6.556  16.618 -3.4281  0.8035  0.5822
12833TIP3   OH259913   4.842   5.297   1.750  0.1737  0.5565  0.3917
12833TIP3    H159914   4.816   5.311   1.841 -0.5707  0.1029  0.2576
12833TIP3    H259915   4.766   5.327   1.699  0.8291  1.3955 -0.1104
12834TIP3   OH259916   4.115   0.971  12.635  0.4323 -0.0211 -0.2441
12834TIP3    H159917   4.194   1.003  12.680  0.0213 -1.1143  1.3332
12834TIP3    H259918   4.124   0.876  12.636 -1.6425 -0.2593  1.4166
12835TIP3   OH259919   3.899   1.583  14.387 -0.7445 -0.5799  0.3845
12835TIP3    H159920   3.977   1.529  14.393 -1.6642 -1.9166  0.8348
12835TIP3    H259921   3.886   1.616  14.476  0.1455  0.9248 -0.0074
12836TIP3   OH259922   5.156   6.486   5.774 -0.0170  0.3387 -0.1081
12836TIP3    H159923   5.147   6.391   5.783  0.9282  0.2117 -0.4539
12836TIP3    H259924   5.244   6.505   5.807 -0.0191  1.0372 -0.4943
12837TIP3   OH259925   2.281   6.134   1.949  0.2301  0.2604  0.3040
12837TIP3    H159926   2.245   6.215   1.984  0.0049  1.1932 -1.9310
12837TIP3    H259927   2.305   6.155   1.859  1.0548 -1.9085 -0.0448
12838TIP3   OH259928   2.873   3.135   1.735 -1.2751 -0.8466  0.4126
12838TIP3    H159929   2.952   3.106   1.780 -0.3004 -1.1908 -1.4419
12838TIP3    H259930   2.843   3.059   1.686  0.6225  0.6118 -3.5318
12839TIP3   OH259931   4.598   0.012   0.217 -0.2673 -0.3350  0.3866
12839TIP3    H159932   4.640  -0.072   0.237 -0.1166 -0.1158  1.0351
12839TIP3    H259933   4.583   0.052   0.303 -1.3379 -0.1776  0.1401
12840TIP3   OH259934   0.204   4.417   5.422  0.2428  0.0047  0.1805
12840TIP3    H159935   0.120   4.377   5.445  0.6983 -0.7896  0.5318
12840TIP3    H259936   0.254   4.415   5.504  0.4417  0.8963  0.0876
12841TIP3   OH259937   0.112   0.322  10.910  0.5526  0.1106 -0.5797
12841TIP3    H159938   0.131   0.259  10.841 -0.8471 -0.7108 -0.2554
12841TIP3    H259939   0.071   0.270  10.979  1.0071  1.0878  0.4506
12842TIP3   OH259940   5.562   4.454   5.400 -0.0794 -0.1556  0.0157
12842TIP3    H159941   5.528   4.386   5.458 -0.0417 -1.2888 -1.2527
12842TIP3    H259942   5.511   4.446   5.320  1.9279 -0.7135 -1.2823
12843TIP3   OH259943   3.263   3.597   1.168 -0.0763 -0.3676  0.0527
12843TIP3    H159944   3.296   3.680   1.133  0.5296  0.0602  1.5704
12843TIP3    H259945   3.306   3.530   1.114  0.2962  0.2746 -0.4675
12844TIP3   OH259946   5.961   5.078   4.663 -0.0243 -0.4917 -0.2179
12844TIP3    H159947   6.039   5.064   4.716  0.3689 -0.2457 -0.7149
12844TIP3    H259948   5.991   5.067   4.573 -0.7712 -1.3138 -0.3795
12845TIP3   OH259949   1.089   3.133  15.805  0.1055 -0.5256  0.1134
12845TIP3    H159950   1.066   3.119  15.713 -1.0236 -0.5016  0.3772
12845TIP3    H259951   1.099   3.228  15.814  2.0605 -0.6390 -0.3763
12846TIP3   OH259952   0.669   3.898  13.591 -0.1076 -0.0190 -0.2557
12846TIP3    H159953   0.691   3.990  13.577 -0.9741 -0.0046 -1.7501
12846TIP3    H259954   0.689   3.883  13.683  0.2735  1.6014 -0.0326
12847TIP3   OH259955   0.642   4.787  16.358 -0.3936  0.6564  0.8752
12847TIP3    H159956   0.704   4.856  16.381 -0.4377  1.3799 -0.9818
12847TIP3    H259957   0.686   4.706  16.383  1.2557  1.1619 -0.2003
12848TIP3   OH259958   2.008   4.226  15.296  0.5547 -0.0105 -0.1647
12848TIP3    H159959   2.003   4.195  15.387 -0.6512  2.8500  0.8830
12848TIP3    H259960   1.958   4.161  15.246  1.8142 -2.0205  1.0435
12849TIP3   OH259961   3.511   4.821  11.607  0.0278  0.6546 -0.6212
12849TIP3    H159962   3.541   4.774  11.685 -0.1604 -0.1721 -1.0301
12849TIP3    H259963   3.513   4.755  11.538 -0.1652  1.2815 -1.2364
12850TIP3   OH259964   6.564   1.096   0.394  0.2290  0.2095 -0.4411
12850TIP3    H159965   6.514   1.059   0.322  0.0018  0.5981 -0.4835
12850TIP3    H259966   6.652   1.059   0.384 -0.4645 -1.9679  0.6870
12851TIP3   OH259967   1.577   2.147   5.642  0.4300  0.4571 -0.3327
12851TIP3    H159968   1.523   2.194   5.705  0.1439 -1.2047  0.7299
12851TIP3    H259969   1.634   2.092   5.696  1.6460  0.5349 -1.4879
12852TIP3   OH259970   6.749   6.369   3.174 -0.4089 -0.1342  0.3792
12852TIP3    H159971   6.752   6.337   3.264 -1.0949 -0.4255  0.3077
12852TIP3    H259972   6.840   6.369   3.145  0.0463  1.6500  1.6362
12853TIP3   OH259973   6.585   0.606   4.041  0.0162  0.2835 -0.6814
12853TIP3    H159974   6.495   0.614   4.073 -0.0622  0.2792 -0.9016
12853TIP3    H259975   6.634   0.671   4.091 -0.3378  1.1411 -1.4196
12854TIP3   OH259976   4.201   6.434   0.059 -0.0055 -0.2103  0.7909
12854TIP3    H159977   4.131   6.477   0.009 -1.4361 -0.9043  2.1208
12854TIP3    H259978   4.220   6.494   0.131  1.1894  0.2263  0.1363
12855TIP3   OH259979   6.420   6.593  15.232 -0.6032 -1.0126 -0.0570
12855TIP3    H159980   6.463   6.673  15.265  0.6249 -1.2911 -0.9088
12855TIP3    H259981   6.420   6.603  15.137 -0.0721 -2.1903 -0.2002
12856TIP3   OH259982   2.109   3.763  10.913 -0.0998 -0.2190 -0.1744
12856TIP3    H159983   2.065   3.835  10.957 -0.2482 -1.4608  1.8368
12856TIP3    H259984   2.042   3.695  10.904  0.2587 -0.4584 -1.2589
12857TIP3   OH259985   4.301   0.517  16.513 -0.4850 -0.2736  0.2168
12857TIP3    H159986   4.223   0.556  16.553 -1.0564 -1.5225  0.3660
12857TIP3    H259987   4.289   0.423  16.524  1.3652 -0.4797  0.8313
12858TIP3   OH259988   1.808   4.011  16.763 -0.3715  0.0216  0.0160
12858TIP3    H159989   1.797   3.938  16.823  1.8883 -0.3337  0.0870
12858TIP3    H259990   1.898   4.003  16.731  0.1791  3.0730  0.4616
12859TIP3   OH259991   4.289   5.143   2.788  0.1602 -0.4686  0.1430
12859TIP3    H159992   4.275   5.062   2.837  2.0276  0.8927  3.2065
12859TIP3    H259993   4.209   5.194   2.804 -0.0510 -0.7921  0.1381
12860TIP3   OH259994   6.012   5.591   0.469  0.0756 -0.1115 -0.0889
12860TIP3    H159995   5.929   5.623   0.506  0.3480  0.4460  0.0636
12860TIP3    H259996   6.077   5.655   0.500  0.8977 -1.6048  1.4515
12861TIP3   OH259997   5.719   6.349  15.696  0.1404 -0.5521  0.1021
12861TIP3    H159998   5.761   6.376  15.615  0.2000  1.2329  0.6886
12861TIP3    H259999   5.676   6.428  15.728 -0.5024 -1.4083  1.4414
12862TIP3   OH260000   5.148   5.653  13.931 -0.3078  0.0629  0.3613
12862TIP3    H160001   5.126   5.564  13.959  0.9865 -0.1690  0.6946
12862TIP3    H260002   5.184   5.642  13.843 -2.8900  0.6172 -0.8413
12863TIP3   OH260003   5.271   3.990   2.403 -0.4543  0.0084 -0.3516
12863TIP3    H160004   5.297   4.032   2.484  0.2342 -1.5615  0.2951
12863TIP3    H260005   5.195   4.039   2.373  0.5000  1.8870  0.1508
12864TIP3   OH260006   5.969   5.170   0.367 -0.5512  0.2034 -0.2769
12864TIP3    H160007   6.013   5.195   0.285  0.5358 -0.0359  0.2202
12864TIP3    H260008   5.963   5.075   0.363  2.2403 -0.1286  1.2167
12865TIP3   OH260009   4.434   1.613   1.983 -0.1497  0.4281 -0.4793
12865TIP3    H160010   4.431   1.706   2.005  3.2756  0.7287 -0.8197
12865TIP3    H260011   4.440   1.611   1.888 -0.3283 -0.1752 -0.4810
12866TIP3   OH260012   5.598   6.100  16.065  0.6663 -0.1623  0.6298
12866TIP3    H160013   5.684   6.093  16.108  0.7218 -1.0491  0.3978
12866TIP3    H260014   5.535   6.091  16.137  0.7660 -0.1925  0.7150
12867TIP3   OH260015   5.854   6.177  16.992 -0.0568 -0.0957  0.0185
12867TIP3    H160016   5.900   6.227  16.924  0.2788 -0.9507 -0.4064
12867TIP3    H260017   5.922   6.120  17.028 -0.0939  0.7525  1.4946
12868TIP3   OH260018   6.570   5.432   1.856 -0.1952 -0.2142  0.0911
12868TIP3    H160019   6.521   5.457   1.934  1.1598  0.8012  0.6485
12868TIP3    H260020   6.599   5.343   1.874  0.9752  0.3667  1.2280
12869TIP3   OH260021   6.041   6.542   5.012 -0.3340 -0.1249 -0.6179
12869TIP3    H160022   5.987   6.618   4.990 -0.4458 -0.3197 -1.0248
12869TIP3    H260023   6.024   6.528   5.105  0.8150  1.2419 -0.1595
12870TIP3   OH260024   4.014   0.633   1.960  0.1231  0.4087  0.3370
12870TIP3    H160025   3.985   0.689   1.889 -0.7517 -0.1887  0.2098
12870TIP3    H260026   4.031   0.693   2.033  2.1720  1.1573 -0.6922
12871TIP3   OH260027   1.464   2.055   1.876  0.4375  1.1246  0.0313
12871TIP3    H160028   1.499   2.021   1.794  2.4366 -0.9514  1.5859
12871TIP3    H260029   1.465   1.980   1.935 -3.4049  1.8784  1.3128
12872TIP3   OH260030   3.584   3.974   3.457 -0.5098  0.0230  0.1372
12872TIP3    H160031   3.655   3.914   3.431 -0.0910  0.4965  0.1785
12872TIP3    H260032   3.528   3.921   3.515  0.4824 -0.0060  1.1016
12873TIP3   OH260033   3.269   1.464   4.635 -0.3822  0.0323 -0.2587
12873TIP3    H160034   3.253   1.370   4.640 -0.5617  0.1303  2.4557
12873TIP3    H260035   3.357   1.471   4.599 -0.9770 -1.0623 -2.0638
12874TIP3   OH260036   5.668   1.007   2.249  0.3320  0.3189 -0.3079
12874TIP3    H160037   5.749   0.959   2.232 -0.1223 -0.4140 -0.4670
12874TIP3    H260038   5.629   1.020   2.163  0.7819  1.6152 -0.3410
12875TIP3   OH260039   0.722   0.684   0.917 -0.3179 -0.3031 -0.3202
12875TIP3    H160040   0.670   0.643   0.986  1.8662 -0.9177  1.0534
12875TIP3    H260041   0.812   0.655   0.934  0.8005  2.2530 -1.4074
12876TIP3   OH260042   5.773   0.943  16.962  0.2325 -0.1790  0.3002
12876TIP3    H160043   5.694   0.996  16.951  0.9890  1.1455  1.0220
12876TIP3    H260044   5.742   0.862  17.002 -0.8660 -0.0433 -0.2321
12877TIP3   OH260045   1.340   2.709  12.855 -0.1394  0.0503  0.4869
12877TIP3    H160046   1.246   2.714  12.839  0.0591  1.2239 -0.4080
12877TIP3    H260047   1.368   2.630  12.807 -0.8091 -0.9192  1.6369
12878TIP3   OH260048   1.641   3.112   1.377 -0.3483 -0.2097  0.2086
12878TIP3    H160049   1.567   3.053   1.364  0.1297 -0.6496 -0.6186
12878TIP3    H260050   1.716   3.054   1.389  0.1394  0.2134 -0.6951
12879TIP3   OH260051   2.796   0.593   4.473  0.2866  0.2640  0.0152
12879TIP3    H160052   2.837   0.659   4.528  0.6086  0.2335 -0.1908
12879TIP3    H260053   2.707   0.625   4.459  0.3245  0.4644  0.2296
12880TIP3   OH260054   3.563   5.056  15.364  0.4251 -0.1331  0.1382
12880TIP3    H160055   3.657   5.049  15.383  0.3857 -0.1446  0.3240
12880TIP3    H260056   3.524   4.979  15.405  0.4790 -0.7220 -0.8606
12881TIP3   OH260057   4.414   3.081  16.360  0.3865  0.1965  0.2027
12881TIP3    H160058   4.347   3.068  16.293  0.0376  0.7718  0.4344
12881TIP3    H260059   4.409   3.003  16.414  1.3198 -0.7308 -0.9749
12882TIP3   OH260060   0.134   0.594  16.020 -0.0407 -1.0612 -0.3095
12882TIP3    H160061   0.051   0.552  16.041  0.6496 -3.1724 -1.4196
12882TIP3    H260062   0.148   0.657  16.091 -0.9540 -3.0773  1.8053
12883TIP3   OH260063   1.162   6.611   0.678  0.3670  0.0273 -0.6440
12883TIP3    H160064   1.199   6.639   0.594  0.9924  0.0655 -0.3596
12883TIP3    H260065   1.145   6.517   0.666 -0.5793  0.2544 -1.1802
12884TIP3   OH260066   5.105   3.896  15.310  0.7579  0.0069  0.0150
12884TIP3    H160067   5.020   3.912  15.351 -0.6708 -2.2204 -1.8421
12884TIP3    H260068   5.125   3.805  15.332  0.7355 -0.7298 -2.7132
12885TIP3   OH260069   6.696   5.173  14.481  0.3604  0.0169  0.3131
12885TIP3    H160070   6.622   5.138  14.530 -0.6593  0.6407 -0.7043
12885TIP3    H260071   6.666   5.174  14.390  1.2516  1.1920 -0.0014
12886TIP3   OH260072   3.029   2.912   4.221  1.0237 -0.4717  0.6325
12886TIP3    H160073   3.040   2.873   4.135  2.1170 -1.6305  1.2647
12886TIP3    H260074   2.939   2.893   4.245  1.1793 -1.5477  0.4026
12887TIP3   OH260075   4.945   3.085  11.854 -0.0307 -0.0321  0.5639
12887TIP3    H160076   4.913   3.068  11.765 -0.2828  0.5119  0.5440
12887TIP3    H260077   5.013   3.019  11.868 -1.1189 -1.1854  0.5790
12888TIP3   OH260078   4.348   3.506  16.417  0.1510  0.0865 -0.1965
12888TIP3    H160079   4.327   3.568  16.487  1.7991 -0.1950  0.6068
12888TIP3    H260080   4.329   3.554  16.336 -0.2032  1.0322  0.4325
12889TIP3   OH260081   3.126   2.169  15.310 -0.5939 -0.6093 -0.3360
12889TIP3    H160082   3.201   2.140  15.258 -0.5392  0.9223 -1.1646
12889TIP3    H260083   3.058   2.188  15.246  0.0332  3.0150 -0.1159
12890TIP3   OH260084   3.057   1.797   1.879 -0.1845  0.3673 -0.4417
12890TIP3    H160085   3.071   1.774   1.970 -0.2479  0.3133 -0.4454
12890TIP3    H260086   2.962   1.793   1.867 -0.5507  3.5769  0.3342
12891TIP3   OH260087   1.596   0.006  11.888 -0.1648  0.0281 -0.0312
12891TIP3    H160088   1.654  -0.033  11.823 -1.1623 -1.0045 -0.3362
12891TIP3    H260089   1.539   0.064  11.838  0.6529  1.1395  0.2844
12892TIP3   OH260090   0.610   5.945   5.842 -0.2242  0.7309  0.3312
12892TIP3    H160091   0.681   5.926   5.781  0.6538 -0.2416  1.6073
12892TIP3    H260092   0.531   5.941   5.789  0.4397 -0.9118 -0.5880
12893TIP3   OH260093   4.578   2.027  15.508 -0.9724 -0.5732 -0.2304
12893TIP3    H160094   4.532   2.034  15.425  0.9045  0.8621 -1.2225
12893TIP3    H260095   4.605   1.935  15.513 -0.7775 -0.6001 -1.4262
12894TIP3   OH260096   1.291   3.702   3.860 -0.2224  0.1013 -0.6417
12894TIP3    H160097   1.290   3.714   3.765 -0.3180 -0.5285 -0.7246
12894TIP3    H260098   1.217   3.643   3.877  0.9871 -1.3928 -0.4070
12895TIP3   OH260099   3.008   2.835   1.763 -0.3467 -0.4006 -0.4334
12895TIP3    H160100   3.063   2.758   1.777 -2.4265 -1.8146  0.4597
12895TIP3    H260101   3.054   2.906   1.808  0.1641 -1.7732  1.3036
12896TIP3   OH260102   3.720   2.988   3.049 -0.5230  0.0881 -0.4695
12896TIP3    H160103   3.810   2.991   3.081 -1.0585  1.2057  1.0458
12896TIP3    H260104   3.695   3.080   3.039 -1.0231 -0.2107 -2.3478
12897TIP3   OH260105   3.566   0.434   3.918 -0.2194  0.3655 -0.4806
12897TIP3    H160106   3.508   0.499   3.959  0.4431  0.7152 -0.0784
12897TIP3    H260107   3.506   0.368   3.881 -0.8329 -0.3566  1.6697
12898TIP3   OH260108   4.318   1.169  15.401 -0.0232 -0.4505 -0.0554
12898TIP3    H160109   4.406   1.205  15.395 -1.4694  3.3994 -1.1782
12898TIP3    H260110   4.276   1.220  15.470 -2.0582 -0.4472 -1.2190
12899TIP3   OH260111   1.393   1.077  12.262  0.0760 -0.0719  0.0331
12899TIP3    H160112   1.334   1.121  12.323 -3.3887 -2.9453 -0.8907
12899TIP3    H260113   1.400   1.137  12.187  1.7683  2.0511  1.7365
12900TIP3   OH260114   0.201   3.034  12.848 -0.5971  0.5407 -0.2836
12900TIP3    H160115   0.106   3.030  12.858 -0.3984 -0.1969  2.0446
12900TIP3    H260116   0.235   3.008  12.934  1.7269 -0.0401 -1.2942
12901TIP3   OH260117   3.808   1.283  14.732 -0.8550 -0.0640  0.5494
12901TIP3    H160118   3.866   1.358  14.745  1.1793 -1.5941  0.9293
12901TIP3    H260119   3.843   1.239  14.655 -1.5073 -1.0377  0.7948
12902TIP3   OH260120   1.915   6.532   0.428 -0.0379 -0.4286  0.0372
12902TIP3    H160121   1.890   6.454   0.478 -0.1764 -0.6873 -0.4356
12902TIP3    H260122   1.981   6.502   0.367  1.0760  0.1516  0.9168
12903TIP3   OH260123   1.757   1.953   4.865 -0.1826 -0.0813  0.6086
12903TIP3    H160124   1.738   1.965   4.772 -1.2204  0.0560  0.8288
12903TIP3    H260125   1.808   1.872   4.869  0.6340  0.3829 -0.1584
12904TIP3   OH260126   1.961   2.726  15.055 -0.2768  0.0423 -0.3798
12904TIP3    H160127   1.910   2.717  15.136 -0.4780  1.8524 -0.2597
12904TIP3    H260128   2.043   2.768  15.082 -0.0846  0.0905 -1.0183
12905TIP3   OH260129   6.020   3.010  10.957  0.3252  0.0393 -0.2462
12905TIP3    H160130   6.063   3.000  10.872 -0.2042  0.5793 -0.5889
12905TIP3    H260131   5.944   2.952  10.952 -0.1248  0.6308 -0.4394
12906TIP3   OH260132   0.551   6.104  11.158  0.0640  0.1034  0.0109
12906TIP3    H160133   0.543   6.190  11.118  2.1671  0.2514 -0.2175
12906TIP3    H260134   0.522   6.043  11.090  2.1076  0.4483 -1.2507
12907TIP3   OH260135   1.424   1.560  16.266 -0.8212  0.4628  0.5315
12907TIP3    H160136   1.402   1.469  16.287 -0.9127  0.7590  1.8379
12907TIP3    H260137   1.516   1.570  16.292 -0.7716  0.7043  0.2718
12908TIP3   OH260138   6.553   4.314   4.434  0.0616 -0.5960  0.3303
12908TIP3    H160139   6.569   4.362   4.353 -1.5977 -0.5847 -0.0306
12908TIP3    H260140   6.506   4.377   4.489  1.2129 -0.5866  1.3475
12909TIP3   OH260141   4.240   3.681   4.521  0.1486 -0.2604 -0.2965
12909TIP3    H160142   4.205   3.603   4.477 -0.4314 -0.1990  0.0367
12909TIP3    H260143   4.281   3.646   4.601  1.2482 -0.3775 -0.9040
12910TIP3   OH260144   6.023   0.642   1.736  0.0828 -0.3885 -0.1924
12910TIP3    H160145   6.112   0.664   1.763 -0.3789 -0.3211  1.3376
12910TIP3    H260146   5.972   0.722   1.752 -0.0437  0.0495 -2.3428
12911TIP3   OH260147   6.243   5.666   2.430  0.5841 -0.3655 -0.4057
12911TIP3    H160148   6.332   5.687   2.461 -0.6044  5.8901  0.0898
12911TIP3    H260149   6.254   5.652   2.336  2.1320  0.1478 -0.3429
12912TIP3   OH260150   3.617   1.514  15.240  0.2136 -0.1079 -0.1821
12912TIP3    H160151   3.566   1.444  15.200  1.1923 -0.9296 -0.0458
12912TIP3    H260152   3.702   1.473  15.260  1.4676  1.5869 -1.7468
12913TIP3   OH260153   3.665   1.710   4.812  0.8448 -0.4788 -0.2063
12913TIP3    H160154   3.688   1.618   4.821  0.1212 -0.5501  1.1976
12913TIP3    H260155   3.569   1.710   4.808  0.6420  0.3502  2.5708
12914TIP3   OH260156   0.773   5.247  13.657  0.4605 -0.3077  0.0064
12914TIP3    H160157   0.807   5.336  13.645  0.2084 -0.0822  0.8936
12914TIP3    H260158   0.791   5.203  13.574  0.1706  0.7092 -0.6052
12915TIP3   OH260159   3.666   4.117  14.663 -0.5999  0.0587 -0.5092
12915TIP3    H160160   3.576   4.137  14.690 -1.3136 -2.4476 -0.7639
12915TIP3    H260161   3.682   4.174  14.588 -1.5556  1.3177  0.2059
12916TIP3   OH260162   5.514   2.016   3.289  0.6291 -0.1248 -0.3998
12916TIP3    H160163   5.508   2.018   3.385 -0.9116 -0.4100 -0.4568
12916TIP3    H260164   5.436   1.967   3.262  1.7046 -1.1420 -1.7523
12917TIP3   OH260165   3.476   0.598   5.387  0.0692 -0.3424  0.0611
12917TIP3    H160166   3.420   0.664   5.347  0.0778 -1.3644 -1.7431
12917TIP3    H260167   3.454   0.517   5.341  2.3223 -0.9663 -0.0527
12918TIP3   OH260168   0.786   3.771  14.400  0.3877 -0.2847 -0.0013
12918TIP3    H160169   0.753   3.710  14.334 -0.7304 -0.0004  0.2757
12918TIP3    H260170   0.859   3.725  14.441  0.4660 -0.8567 -0.7625
12919TIP3   OH260171   4.613   4.282   5.834 -0.2337  0.2564  0.0717
12919TIP3    H160172   4.705   4.255   5.836  0.3779  2.1916  0.4370
12919TIP3    H260173   4.587   4.274   5.742  0.5581  0.4771 -0.1764
12920TIP3   OH260174   6.574   6.425  12.478 -0.0940  0.8335 -0.0214
12920TIP3    H160175   6.569   6.330  12.483 -0.6416  0.6606 -2.6427
12920TIP3    H260176   6.630   6.450  12.552 -1.0726 -1.3569  1.5672
12921TIP3   OH260177   0.495   1.056  12.886  0.0781  0.4523 -0.1859
12921TIP3    H160178   0.530   1.130  12.935 -2.0020  0.5045  1.3649
12921TIP3    H260179   0.428   1.019  12.943  0.1288 -1.8315 -1.4836
12922TIP3   OH260180   6.724   6.006  11.231 -0.0625 -0.2632  0.3481
12922TIP3    H160181   6.735   6.100  11.216 -0.3945 -0.4319 -1.0705
12922TIP3    H260182   6.782   5.965  11.167 -0.9724 -1.0284  0.0072
12923TIP3   OH260183   0.504   5.759  16.767  0.0548  0.2669  0.3283
12923TIP3    H160184   0.425   5.736  16.719  0.1984  0.5195 -0.0278
12923TIP3    H260185   0.562   5.798  16.702 -0.2433  1.8247  0.9433
12924TIP3   OH260186   0.767   1.937  15.698  0.0935  0.0952 -0.0627
12924TIP3    H160187   0.858   1.965  15.689  0.0151  0.1406 -0.7739
12924TIP3    H260188   0.772   1.856  15.749  0.3271  1.2819  1.9094
12925TIP3   OH260189   0.460   5.533   5.170  0.4696  0.2569  0.0416
12925TIP3    H160190   0.450   5.544   5.265 -2.0068  0.3529 -0.1708
12925TIP3    H260191   0.503   5.448   5.160  0.5024  0.1140  1.2339
12926TIP3   OH260192   2.211   5.467  11.786  0.8286  0.0383 -0.5843
12926TIP3    H160193   2.273   5.480  11.858 -0.0587 -0.8203  0.3610
12926TIP3    H260194   2.135   5.520  11.810  0.5182 -0.2725 -0.8710
12927TIP3   OH260195   4.514   0.926  11.840  0.1250 -0.2504 -0.2183
12927TIP3    H160196   4.527   1.005  11.892  0.2224 -0.9461  0.8571
12927TIP3    H260197   4.466   0.867  11.898 -1.2447 -0.4678 -1.5029
12928TIP3   OH260198   2.299   3.511   6.353 -0.1009 -0.8617  0.2119
12928TIP3    H160199   2.239   3.483   6.423  0.3582 -0.6134  0.7137
12928TIP3    H260200   2.371   3.554   6.400 -0.0278 -0.2545 -0.4483
12929TIP3   OH260201   4.292   3.359  14.990  0.0268  0.1592 -0.1712
12929TIP3    H160202   4.386   3.366  14.973  0.2288 -1.3430  0.1881
12929TIP3    H260203   4.253   3.337  14.906  0.4009 -2.2361  0.2287
12930TIP3   OH260204   1.002   0.229  12.955  0.3485 -0.1966 -0.5183
12930TIP3    H160205   1.017   0.151  12.902  0.8644 -0.1889 -0.3872
12930TIP3    H260206   1.087   0.271  12.961  0.3593 -0.3532  0.5668
12931TIP3   OH260207   4.793   1.362   4.517  0.4104  0.4070  0.2077
12931TIP3    H160208   4.748   1.399   4.440 -1.7170  1.2601  1.7666
12931TIP3    H260209   4.839   1.437   4.555 -1.0394  0.7633  1.3949
12932TIP3   OH260210   4.298   0.911   2.687  0.1834 -0.0369 -0.3557
12932TIP3    H160211   4.340   0.854   2.622 -0.0005 -1.7730  0.9676
12932TIP3    H260212   4.304   0.861   2.769  1.1221  2.4041  1.1627
12933TIP3   OH260213   0.504   5.289   3.656  0.2400  0.2639  0.1528
12933TIP3    H160214   0.476   5.346   3.584 -1.0774 -1.6331 -0.9050
12933TIP3    H260215   0.599   5.280   3.644  0.5116  2.2672  0.4237
12934TIP3   OH260216   0.611   4.077  11.788 -0.5437  0.5595 -0.1924
12934TIP3    H160217   0.533   4.080  11.732 -1.1814  0.8239  0.6787
12934TIP3    H260218   0.651   4.164  11.777 -1.2488  0.9843  0.5580
12935TIP3   OH260219   0.969   6.208   6.656 -0.0540  0.1170 -0.4877
12935TIP3    H160220   1.055   6.247   6.674 -0.5833  0.7975  0.7502
12935TIP3    H260221   0.930   6.266   6.591 -1.2216  2.4130  2.0200
12936TIP3   OH260222   5.516   3.639  16.710 -0.1602  0.0580  0.3371
12936TIP3    H160223   5.589   3.686  16.670 -1.7073  0.7966 -1.7924
12936TIP3    H260224   5.518   3.552  16.671 -1.9922  0.9454 -1.9721
12937TIP3   OH260225   3.860   2.235  16.142 -0.3035  0.6018  0.0653
12937TIP3    H160226   3.799   2.163  16.123  1.0527 -0.8186  0.8481
12937TIP3    H260227   3.887   2.266  16.056 -0.8581  0.1227 -0.2897
12938TIP3   OH260228   6.083   1.407   0.019 -0.1032 -0.8162 -0.2473
12938TIP3    H160229   6.099   1.314   0.033  0.2473 -0.5446  1.2978
12938TIP3    H260230   6.166   1.441  -0.014 -0.3632 -1.1103 -1.2444
12939TIP3   OH260231   0.303   5.146  10.980 -0.2139  0.7583  0.1992
12939TIP3    H160232   0.323   5.172  10.890  0.4894 -1.2099 -0.2528
12939TIP3    H260233   0.222   5.193  11.001  0.3213  2.2700 -0.9712
12940TIP3   OH260234   2.310   6.019  13.018 -0.2567 -0.5763  0.2211
12940TIP3    H160235   2.272   6.067  13.092  1.0670 -0.2443  0.7211
12940TIP3    H260236   2.385   5.973  13.057 -1.5738 -3.2369 -0.1801
12941TIP3   OH260237   0.645   3.009  10.930  0.7004 -0.3112  0.7252
12941TIP3    H160238   0.673   3.076  10.992  0.5340 -1.0693  1.6461
12941TIP3    H260239   0.594   2.948  10.983 -2.1293  0.6343 -0.7440
12942TIP3   OH260240   2.319   4.299   4.718 -0.8481 -0.7452  0.2157
12942TIP3    H160241   2.265   4.352   4.776 -0.8375 -0.0238 -0.4258
12942TIP3    H260242   2.408   4.315   4.747 -0.8484 -0.4503  0.0549
12943TIP3   OH260243   5.334   4.223   4.058 -0.4779  0.3848  1.1548
12943TIP3    H160244   5.335   4.189   4.148  1.7208 -1.5455  0.4835
12943TIP3    H260245   5.305   4.149   4.005 -0.7012  1.1787  0.1449
12944TIP3   OH260246   5.280   5.440   5.705  0.7349 -0.2501 -0.1558
12944TIP3    H160247   5.222   5.400   5.770 -0.5367  1.8079  0.0553
12944TIP3    H260248   5.311   5.366   5.652 -1.5572 -1.5094  0.1518
12945TIP3   OH260249   1.489   3.070   2.641 -0.3709 -0.2673  0.0672
12945TIP3    H160250   1.414   3.015   2.623 -0.4592 -0.2888  0.4947
12945TIP3    H260251   1.510   3.054   2.733 -0.1243  0.0759  0.0752
12946TIP3   OH260252   0.257   3.513   5.127 -0.2856  0.5163 -0.2224
12946TIP3    H160253   0.174   3.530   5.173 -0.3884 -0.6937  0.0733
12946TIP3    H260254   0.324   3.547   5.186 -0.3673 -1.6425  1.2223
12947TIP3   OH260255   1.274   3.327  16.566 -0.4019  0.6520 -0.5622
12947TIP3    H160256   1.250   3.394  16.503  0.3570  0.2588 -1.3020
12947TIP3    H260257   1.346   3.279  16.523  0.6520  0.8581  0.9157
12948TIP3   OH260258   4.701   6.269  14.035 -0.1256 -0.5619 -0.2178
12948TIP3    H160259   4.653   6.195  13.998  2.2398 -3.0223  1.2717
12948TIP3    H260260   4.793   6.245  14.026  0.6988 -0.0281  4.3760
12949TIP3   OH260261   4.944   5.504  10.843 -0.1335  0.0396  0.2695
12949TIP3    H160262   4.850   5.499  10.857 -0.2113  2.5469  1.1901
12949TIP3    H260263   4.983   5.476  10.926 -0.2282  2.4602  1.1954
12950TIP3   OH260264   5.825   4.111   0.496  0.0252 -0.1863  0.0076
12950TIP3    H160265   5.888   4.111   0.423  0.2526 -3.1088  0.1057
12950TIP3    H260266   5.875   4.080   0.571 -1.1392 -0.9916  0.4695
12951TIP3   OH260267   6.327   3.308  14.416  0.4332  0.8281 -0.0924
12951TIP3    H160268   6.266   3.235  14.429  1.1598 -0.1887 -2.0100
12951TIP3    H260269   6.282   3.365  14.353  0.0780  1.8382  1.0297
12952TIP3   OH260270   2.547   1.710  11.639 -0.9627  0.0101 -0.0080
12952TIP3    H160271   2.594   1.756  11.709 -0.2985 -0.4630 -0.1315
12952TIP3    H260272   2.460   1.750  11.639 -0.7333  0.5412  0.5806
12953TIP3   OH260273   0.599   6.171   3.891  0.3233 -0.1538 -0.2669
12953TIP3    H160274   0.529   6.217   3.938  1.5620  0.4644  1.0573
12953TIP3    H260275   0.579   6.078   3.902 -0.1115  0.0094  0.3608
12954TIP3   OH260276   5.991   5.091  14.061  0.2752 -0.4878 -0.2112
12954TIP3    H160277   5.911   5.118  14.016 -0.5472 -0.8026  0.9926
12954TIP3    H260278   5.974   5.110  14.153  1.7169 -0.2914  0.0426
12955TIP3   OH260279   4.549   2.520   2.068 -0.4672 -0.0893  0.0324
12955TIP3    H160280   4.512   2.607   2.060 -0.2595  0.2314  1.9800
12955TIP3    H260281   4.639   2.529   2.037 -1.1423 -0.2394 -2.1210
12956TIP3   OH260282   4.568   5.318   5.109  0.3743  0.2311 -0.2498
12956TIP3    H160283   4.555   5.259   5.034 -2.1478  0.0245  0.2586
12956TIP3    H260284   4.560   5.406   5.073 -0.3183  0.1434 -0.3140
12957TIP3   OH260285   3.663   4.342  16.117 -0.0649 -0.6766  0.2650
12957TIP3    H160286   3.699   4.256  16.138  1.2219 -0.2930 -0.2748
12957TIP3    H260287   3.718   4.404  16.164  0.1906 -0.0515 -0.8189
12958TIP3   OH260288   1.485   1.894   1.631  0.0857 -0.1894  0.1167
12958TIP3    H160289   1.561   1.853   1.590  0.4731 -0.3019  0.9152
12958TIP3    H260290   1.437   1.820   1.669 -0.6149 -0.1545 -0.6789
12959TIP3   OH260291   6.370   5.670  14.254 -0.3653  0.0983  0.0803
12959TIP3    H160292   6.364   5.766  14.252 -1.7377  0.0423  0.1589
12959TIP3    H260293   6.374   5.644  14.163 -1.1907  0.1906  0.0106
12960TIP3   OH260294   3.233   5.261   4.231 -0.6210  0.1490  0.1466
12960TIP3    H160295   3.285   5.311   4.294  0.7424 -2.2642  1.0725
12960TIP3    H260296   3.176   5.205   4.285 -0.0182 -1.3650 -0.7148
12961TIP3   OH260297   6.455   1.694  13.923 -0.0185 -0.0002 -0.0239
12961TIP3    H160298   6.367   1.663  13.900  1.3081 -2.4708 -2.4063
12961TIP3    H260299   6.472   1.655  14.009 -1.2688  0.6195  0.5276
12962TIP3   OH260300   4.170   5.284   1.887  0.6681  0.1519 -0.1619
12962TIP3    H160301   4.215   5.201   1.873  0.0445  0.0330 -1.7464
12962TIP3    H260302   4.188   5.334   1.807  1.7602  1.9122  1.1183
12963TIP3   OH260303   0.829   4.003  16.964  0.7783  0.1358 -0.4057
12963TIP3    H160304   0.739   3.985  16.938  1.0263 -0.2362 -1.0360
12963TIP3    H260305   0.829   3.992  17.059 -0.4256  2.7323 -0.0257
12964TIP3   OH260306   5.961   5.653   3.739  0.0835 -0.1364  0.3428
12964TIP3    H160307   5.997   5.632   3.652  0.5591  0.3873  0.4050
12964TIP3    H260308   5.901   5.582   3.758  1.8659 -1.6247  0.6867
12965TIP3   OH260309   4.663   3.178  12.350  0.2594  0.1391 -0.1721
12965TIP3    H160310   4.719   3.187  12.427 -0.3424  1.2875  0.1397
12965TIP3    H260311   4.576   3.204  12.380 -0.0588  0.2185 -1.1374
12966TIP3   OH260312   0.407   4.309   5.152 -0.2559 -0.5982 -0.5552
12966TIP3    H160313   0.415   4.365   5.229  0.5417  0.0433 -1.0921
12966TIP3    H260314   0.400   4.220   5.187 -1.6023 -0.1782  0.3091
12967TIP3   OH260315   4.726   3.174  15.824  0.2880  0.4093 -0.0005
12967TIP3    H160316   4.657   3.146  15.765  0.2709  0.0963  0.1671
12967TIP3    H260317   4.806   3.172  15.771  0.0596  1.5084 -0.4075
12968TIP3   OH260318   1.930   5.976   3.288 -0.0672 -0.0480 -0.4770
12968TIP3    H160319   1.853   5.919   3.279 -0.9794  1.0580  0.0661
12968TIP3    H260320   1.895   6.065   3.287  1.1696  0.4813  0.1273
12969TIP3   OH260321   4.342   5.186   4.009  0.5739  0.0183 -0.6524
12969TIP3    H160322   4.275   5.255   4.011  0.3597 -0.2006 -0.2541
12969TIP3    H260323   4.321   5.135   3.931  0.4353  0.1069 -0.6731
12970TIP3   OH260324   0.732   1.748   4.591 -0.1258  0.2625 -0.2878
12970TIP3    H160325   0.773   1.675   4.638 -0.2277  0.0569 -0.5164
12970TIP3    H260326   0.641   1.722   4.580 -0.1202  0.3402 -0.5331
12971TIP3   OH260327   3.915   1.198  16.336 -0.3726 -0.0878 -0.1780
12971TIP3    H160328   3.991   1.221  16.389 -0.1986 -0.9678 -0.0340
12971TIP3    H260329   3.936   1.232  16.249  0.3336 -0.6076 -0.2182
12972TIP3   OH260330   2.191   5.070   3.524  0.0752 -0.0528  0.1383
12972TIP3    H160331   2.284   5.078   3.504  0.1546 -0.7482  0.2090
12972TIP3    H260332   2.189   5.031   3.611 -0.2840  0.8189  0.5342
12973TIP3   OH260333   4.454   1.313  13.180  0.3127 -0.1832  0.1475
12973TIP3    H160334   4.447   1.376  13.109  0.3000  0.4801  0.7295
12973TIP3    H260335   4.396   1.241  13.155 -1.9041  1.2775  0.7796
12974TIP3   OH260336   5.440   2.736  17.286 -0.2706  0.3230 -0.3447
12974TIP3    H160337   5.469   2.646  17.301  0.1709  0.1885 -1.8970
12974TIP3    H260338   5.515   2.779  17.245 -1.1201  0.8824 -1.3422
12975TIP3   OH260339   4.946   4.273   3.765 -0.1225 -0.0077  0.5825
12975TIP3    H160340   4.987   4.203   3.715 -2.8689 -0.3532 -1.3951
12975TIP3    H260341   4.909   4.228   3.842  0.4347 -0.2111  0.7429
12976TIP3   OH260342   3.922   4.752  15.895  0.1413 -0.2149  0.1727
12976TIP3    H160343   3.910   4.829  15.839  0.2084 -1.2842 -1.3982
12976TIP3    H260344   3.887   4.679  15.843  1.5821 -1.4991  0.8953
12977TIP3   OH260345   3.730   5.404   1.795  0.2283 -1.0636 -0.0877
12977TIP3    H160346   3.664   5.365   1.738  0.9391  0.5540 -2.1982
12977TIP3    H260347   3.690   5.486   1.825  0.2614 -1.4031  0.9019
12978TIP3   OH260348   2.826   4.115  15.017  0.2202 -0.5665 -0.1729
12978TIP3    H160349   2.785   4.127  14.931  0.8098 -1.8126 -0.6529
12978TIP3    H260350   2.804   4.026  15.042  2.9462 -1.4790 -0.6734
12979TIP3   OH260351   5.821   2.883   4.661 -0.1776 -0.3207 -0.1466
12979TIP3    H160352   5.778   2.968   4.667 -0.2179 -0.4592  2.5506
12979TIP3    H260353   5.904   2.901   4.615  0.5168  1.5097  1.7086
12980TIP3   OH260354   0.138   1.349   4.368  0.3059  0.7201  0.3716
12980TIP3    H160355   0.094   1.274   4.409  0.3836 -0.6748 -1.8964
12980TIP3    H260356   0.171   1.400   4.441  0.1655 -1.4074  2.0359
12981TIP3   OH260357   2.480   5.975   5.159  0.0116 -0.2179 -0.1781
12981TIP3    H160358   2.479   6.036   5.233 -0.1678  0.0727 -0.4149
12981TIP3    H260359   2.573   5.968   5.135 -0.0824  1.1115 -1.0653
12982TIP3   OH260360   5.661   0.381   5.580  0.0095 -0.3740  0.0520
12982TIP3    H160361   5.715   0.454   5.549  2.0317 -1.6893  0.2621
12982TIP3    H260362   5.695   0.305   5.534 -2.9220 -1.0845 -1.1752
12983TIP3   OH260363   1.940   6.691   4.797  0.6550 -0.5949  0.4937
12983TIP3    H160364   2.035   6.689   4.786  0.3892 -0.5996 -2.7098
12983TIP3    H260365   1.924   6.760   4.862  2.7536  0.7775 -0.3648
12984TIP3   OH260366   0.150   4.005   0.826  0.1202  0.0728 -0.1667
12984TIP3    H160367   0.221   4.005   0.890 -0.6384 -0.6608  0.7134
12984TIP3    H260368   0.074   4.039   0.874 -0.8689 -1.9847 -0.1680
12985TIP3   OH260369   5.448   3.084  16.652 -0.7212  0.2025 -0.0764
12985TIP3    H160370   5.531   3.035  16.657 -0.6237  0.2419 -1.1914
12985TIP3    H260371   5.446   3.119  16.563 -2.2749 -0.3946 -0.3052
12986TIP3   OH260372   1.200   3.650  16.878 -0.0407 -0.0144 -0.3263
12986TIP3    H160373   1.184   3.680  16.788  1.2850  1.9030  0.0279
12986TIP3    H260374   1.244   3.566  16.867  0.2353  0.2621 -1.4767
12987TIP3   OH260375   2.126   2.446   4.412 -0.2238  1.0980 -0.2118
12987TIP3    H160376   2.039   2.453   4.452 -0.5034  0.7059 -0.7304
12987TIP3    H260377   2.186   2.480   4.478 -0.5801 -0.2044  0.8251
12988TIP3   OH260378   4.164   0.654   3.580  0.0568 -0.0155  0.2686
12988TIP3    H160379   4.139   0.702   3.502  1.2318 -1.3094 -0.9515
12988TIP3    H260380   4.093   0.590   3.592  0.4394 -0.5922 -0.4519
12989TIP3   OH260381   3.754   2.894  13.754 -0.1712  0.1557  0.2940
12989TIP3    H160382   3.806   2.814  13.752 -1.1552 -0.5139  0.7963
12989TIP3    H260383   3.816   2.962  13.783  0.5645 -0.4931  0.2715
12990TIP3   OH260384   4.127   0.526  11.355  0.4951  0.6904 -0.2918
12990TIP3    H160385   4.089   0.486  11.434 -0.0190 -0.1014 -0.9301
12990TIP3    H260386   4.191   0.463  11.325  1.2104  1.3181 -0.1179
12991TIP3   OH260387   3.782   3.342   1.583 -0.0433 -0.0187 -0.4118
12991TIP3    H160388   3.692   3.347   1.552 -0.6788  0.4680  1.3690
12991TIP3    H260389   3.835   3.339   1.503 -1.5928  0.2032 -1.4952
12992TIP3   OH260390   4.894   1.126  16.311  0.3722  0.1362 -0.1570
12992TIP3    H160391   4.989   1.134  16.306  0.4536  3.7309  2.9374
12992TIP3    H260392   4.867   1.101  16.222  4.1604 -2.0122 -0.8959
12993TIP3   OH260393   3.001   0.797   1.173  0.2816  0.5230  0.0578
12993TIP3    H160394   3.075   0.777   1.230  0.5514  1.3124 -0.0049
12993TIP3    H260395   2.955   0.713   1.164  2.6735 -0.7100 -2.1490
12994TIP3   OH260396   3.678   3.243   5.254  0.0916 -0.0596  0.3284
12994TIP3    H160397   3.668   3.246   5.349  1.4271  0.5935  0.4703
12994TIP3    H260398   3.602   3.291   5.221 -0.7882 -0.9392  1.0176
12995TIP3   OH260399   1.198   0.790   0.735  0.8628  0.1309 -0.0562
12995TIP3    H160400   1.186   0.754   0.647  1.1971 -1.5296  0.5494
12995TIP3    H260401   1.150   0.873   0.734 -2.3220 -1.5717 -0.7005
12996TIP3   OH260402   1.184   6.644   1.156 -0.0774  0.3113  0.0300
12996TIP3    H160403   1.103   6.619   1.111 -0.2398  0.9070 -0.0246
12996TIP3    H260404   1.227   6.705   1.095 -0.4785  1.4120  0.8140
12997TIP3   OH260405   6.429   3.426  15.022  0.0784 -0.4049  0.1365
12997TIP3    H160406   6.451   3.340  14.984 -0.3755 -1.1732  1.5428
12997TIP3    H260407   6.496   3.440  15.088  0.4547  0.5937 -0.4423
12998TIP3   OH260408   5.380   6.359  15.312  0.4068  0.1608  0.2130
12998TIP3    H160409   5.297   6.406  15.306 -1.5107 -3.0406 -0.8445
12998TIP3    H260410   5.425   6.397  15.387 -2.4010  1.4614  1.3509
12999TIP3   OH260411   0.615   2.842  15.913  0.2789  0.2434  0.1583
12999TIP3    H160412   0.688   2.895  15.944  0.3711  0.0492  0.2762
12999TIP3    H260413   0.544   2.861  15.974 -0.1487  1.3437 -0.6476
13000TIP3   OH260414   6.210   0.575   4.785 -0.0956 -0.1273 -0.2915
13000TIP3    H160415   6.254   0.510   4.730  0.0937 -1.1931  1.0858
13000TIP3    H260416   6.282   0.620   4.830 -0.3168 -0.3829  0.3170
13001TIP3   OH260417   1.766   1.518   0.082 -0.4406 -0.2188  0.7781
13001TIP3    H160418   1.841   1.491   0.134 -0.9773 -1.1231  1.1121
13001TIP3    H260419   1.755   1.611   0.101  1.3297  0.2246 -0.2246
13002TIP3   OH260420   2.627   2.327  12.440  0.1494 -0.5779 -0.2611
13002TIP3    H160421   2.557   2.333  12.375 -0.1884 -0.0726  0.1462
13002TIP3    H260422   2.582   2.315  12.523  0.2894  3.3172  0.5730
13003TIP3   OH260423   6.001   6.187  15.295 -0.1351 -0.1651 -0.6161
13003TIP3    H160424   5.961   6.259  15.342 -0.5027  1.1621 -2.7982
13003TIP3    H260425   5.947   6.111  15.315 -1.6210  0.8399 -0.7079
13004TIP3   OH260426   1.710   1.720   1.461  0.3247  0.5665  0.0241
13004TIP3    H160427   1.699   1.627   1.478 -0.2363  0.5316 -0.4755
13004TIP3    H260428   1.798   1.740   1.490  0.2260  0.0162  0.7203
13005TIP3   OH260429   0.673   3.890   5.961 -0.2727 -0.1159 -0.2650
13005TIP3    H160430   0.599   3.943   5.931  0.0431  0.4722 -0.0186
13005TIP3    H260431   0.750   3.939   5.934  0.0209  0.0046  0.7327
13006TIP3   OH260432   4.733   3.503   3.294  0.3943  0.1291 -0.5455
13006TIP3    H160433   4.797   3.500   3.222 -2.1328 -0.9082 -2.9423
13006TIP3    H260434   4.661   3.447   3.264 -1.4415  0.8202  2.2134
13007TIP3   OH260435   1.848   1.878   4.154 -0.8472 -0.5407  1.3658
13007TIP3    H160436   1.903   1.820   4.101 -2.7806 -0.8302 -0.4441
13007TIP3    H260437   1.901   1.896   4.232  2.1995 -0.0074 -0.6601
13008TIP3   OH260438   5.631   5.471   6.507 -0.4579  0.2973  0.1332
13008TIP3    H160439   5.636   5.419   6.427 -1.0064 -2.1827  1.5908
13008TIP3    H260440   5.682   5.421   6.571 -2.5182  0.5693  2.1152
13009TIP3   OH260441   3.149   5.052   0.979  0.5571 -0.0057 -0.6705
13009TIP3    H160442   3.238   5.081   0.997  0.2598  1.3250 -1.1714
13009TIP3    H260443   3.139   5.066   0.884  0.3489 -1.7101 -0.9254
13010TIP3   OH260444   6.054   1.942  13.472  0.8070  0.1262 -0.2730
13010TIP3    H160445   6.027   2.032  13.456  0.0017 -0.2591 -1.1514
13010TIP3    H260446   6.150   1.946  13.479  0.7028  1.2008  0.8092
13011TIP3   OH260447   1.536   5.674   0.955 -0.0851 -0.0215  0.3523
13011TIP3    H160448   1.460   5.729   0.976  0.0290  0.2272  0.1134
13011TIP3    H260449   1.543   5.614   1.030 -1.0164 -0.5925  0.0124
13012TIP3   OH260450   0.354   1.384   2.276  1.0269  0.5329  0.8819
13012TIP3    H160451   0.354   1.326   2.352 -0.2496  0.8156  1.1260
13012TIP3    H260452   0.272   1.364   2.231  3.0640 -1.7735 -2.1634
13013TIP3   OH260453   5.630   5.019   1.894 -0.7032 -0.2485  0.7749
13013TIP3    H160454   5.698   5.085   1.883 -0.8024  0.0568  1.8670
13013TIP3    H260455   5.547   5.067   1.885 -0.7805 -0.5174  0.0009
13014TIP3   OH260456   4.736   6.546  17.227  0.0228 -0.4590  0.4394
13014TIP3    H160457   4.824   6.581  17.234 -0.5959  1.9459 -2.0640
13014TIP3    H260458   4.680   6.615  17.262 -1.0467 -0.2548 -1.5258
13015TIP3   OH260459   0.829   5.337  12.115  0.0267 -0.1900  0.2959
13015TIP3    H160460   0.860   5.256  12.155  2.7839  1.0067  0.8516
13015TIP3    H260461   0.827   5.400  12.187 -1.8737  0.3204 -0.1637
13016TIP3   OH260462   5.825   5.093  13.301  0.1402  0.5048  0.6143
13016TIP3    H160463   5.761   5.035  13.343  0.3609 -1.0752 -1.0735
13016TIP3    H260464   5.907   5.075  13.348 -0.3963  1.8182  2.1410
13017TIP3   OH260465   1.161   3.187  16.233 -0.1335  0.0285 -0.2463
13017TIP3    H160466   1.125   3.213  16.318 -0.5088 -1.2942  0.0215
13017TIP3    H260467   1.221   3.116  16.254  0.7821  0.5615 -0.9683
13018TIP3   OH260468   3.748   4.337   3.950 -0.0706 -0.1833 -0.0959
13018TIP3    H160469   3.707   4.407   3.901 -2.1249 -1.1709  0.1196
13018TIP3    H260470   3.746   4.366   4.041 -2.2440 -1.0432  0.1905
13019TIP3   OH260471   3.238   5.924   6.224  0.3738 -0.2613  0.1402
13019TIP3    H160472   3.229   5.973   6.143 -0.1955 -1.7950 -0.7651
13019TIP3    H260473   3.331   5.903   6.229  0.4141 -0.1390 -0.1032
13020TIP3   OH260474   2.961   2.374  16.070 -0.2170  0.4040  0.2198
13020TIP3    H160475   3.048   2.336  16.053  0.4817  2.1115 -0.2496
13020TIP3    H260476   2.968   2.464  16.038 -2.1746  0.5790  0.2010
13021TIP3   OH260477   4.386   1.670  14.133 -0.6343  0.1379  0.2916
13021TIP3    H160478   4.355   1.623  14.056  0.0851  1.5791 -0.9438
13021TIP3    H260479   4.470   1.709  14.105 -0.7311  1.3318  1.5338
13022TIP3   OH260480   4.021   0.009   2.614  0.2702 -0.2288  0.0961
13022TIP3    H160481   4.106  -0.024   2.586  0.9013  1.5291 -0.1821
13022TIP3    H260482   4.040   0.091   2.660 -1.2266 -0.0470  0.4582
13023TIP3   OH260483   6.269   0.259  15.303 -0.7675 -0.2729 -0.4182
13023TIP3    H160484   6.255   0.200  15.229 -0.1629 -0.2865 -0.5244
13023TIP3    H260485   6.245   0.345  15.268 -0.5669 -0.2913 -0.6059
13024TIP3   OH260486   3.403   0.167   0.708  0.0104 -0.2923 -0.4389
13024TIP3    H160487   3.424   0.252   0.748  1.6334 -0.6830 -0.3982
13024TIP3    H260488   3.310   0.155   0.726  0.2820  0.3543  1.7318
13025TIP3   OH260489   1.222   3.455   3.459  0.4021  0.3147 -0.2254
13025TIP3    H160490   1.262   3.371   3.437  2.4452  0.7631  1.4298
13025TIP3    H260491   1.227   3.459   3.555  0.6747  2.4465 -0.2901
13026TIP3   OH260492   2.927   2.882   3.427  0.1998  0.6565  0.0239
13026TIP3    H160493   2.840   2.910   3.401  0.8057  1.5463 -1.1374
13026TIP3    H260494   2.985   2.952   3.397  1.4806 -0.6345 -0.6275
13027TIP3   OH260495   4.095   1.238  12.156  0.4132  0.4584 -0.2406
13027TIP3    H160496   4.068   1.146  12.147  0.9588 -0.0126  2.3539
13027TIP3    H260497   4.187   1.234  12.180  1.1309  1.8463 -2.4424
13028TIP3   OH260498   3.998   0.881  16.363 -0.0617 -0.0355 -0.3727
13028TIP3    H160499   3.947   0.935  16.423 -1.1096 -1.3225 -0.0582
13028TIP3    H260500   4.082   0.926  16.356 -0.3513  0.7974  1.0954
13029TIP3   OH260501   0.117   3.664   6.288 -0.4910 -0.2367  0.0164
13029TIP3    H160502   0.179   3.732   6.314 -0.2486 -0.8540  1.1259
13029TIP3    H260503   0.132   3.653   6.194  0.2070  0.4936  0.0266
13030TIP3   OH260504   1.630   5.940  14.277 -0.2868  0.5766 -0.1580
13030TIP3    H160505   1.594   6.028  14.271  0.3905  0.8211 -0.8671
13030TIP3    H260506   1.569   5.885  14.227  0.9206  1.2029 -2.4803
13031TIP3   OH260507   0.690   3.499  15.295 -0.3604  0.0005 -0.0480
13031TIP3    H160508   0.690   3.448  15.376  0.7767 -0.3735 -0.2624
13031TIP3    H260509   0.597   3.510  15.273 -0.6468 -1.2006  0.4846
13032TIP3   OH260510   3.526   0.746  16.513  0.6123 -0.4920 -0.2082
13032TIP3    H160511   3.476   0.670  16.542  0.6805 -0.0075  1.2826
13032TIP3    H260512   3.608   0.741  16.562  0.1558  1.1342  0.7973
13033TIP3   OH260513   1.831   4.034   3.421  0.3404 -0.7744 -0.4766
13033TIP3    H160514   1.794   3.968   3.479 -0.6374  0.7374  0.7004
13033TIP3    H260515   1.771   4.034   3.345 -0.1707 -0.6439 -0.0810
13034TIP3   OH260516   3.848   0.847   1.661 -0.1435 -0.1280  0.0695
13034TIP3    H160517   3.917   0.783   1.679  0.4244  0.1178 -1.1034
13034TIP3    H260518   3.813   0.820   1.576  0.5805  1.4978 -0.7902
13035TIP3   OH260519   4.142   0.932  13.960 -0.2356  0.4216  0.1204
13035TIP3    H160520   4.169   0.929  14.052 -1.8856 -1.9974  0.6291
13035TIP3    H260521   4.060   0.980  13.961  0.4370  1.6143 -0.3414
13036TIP3   OH260522   5.972   1.483   2.806  0.2342  0.2083  0.1708
13036TIP3    H160523   6.010   1.472   2.893  0.4208  2.2708  0.4156
13036TIP3    H260524   5.890   1.531   2.822  0.5181  1.0463 -0.8176
13037TIP3   OH260525   3.004   3.652   0.488  0.5934 -0.6056 -0.4556
13037TIP3    H160526   2.988   3.599   0.566  2.6157 -0.5309  0.0616
13037TIP3    H260527   2.938   3.623   0.426 -0.0810 -1.7810  0.7518
13038TIP3   OH260528   6.138   1.309  12.932  0.2224 -0.3788 -0.5333
13038TIP3    H160529   6.186   1.367  12.991 -0.3743  0.5378 -0.9196
13038TIP3    H260530   6.206   1.260  12.886  0.7193 -0.4117  0.2153
13039TIP3   OH260531   0.568   5.580  12.379 -0.3658  0.0367 -0.1995
13039TIP3    H160532   0.661   5.556  12.374 -0.1894  0.6186  0.2046
13039TIP3    H260533   0.533   5.556  12.293  0.1811 -0.0975 -0.3923
13040TIP3   OH260534   2.927   0.944   3.044  0.6584  0.1487  0.3308
13040TIP3    H160535   2.905   0.964   2.953  1.2685 -0.5615  0.0190
13040TIP3    H260536   2.844   0.953   3.090  0.1011 -0.5363 -0.4911
13041TIP3   OH260537   2.985   2.091   2.241 -0.0725  0.1676  0.0789
13041TIP3    H160538   3.036   2.131   2.312  0.3242  0.7996 -0.5540
13041TIP3    H260539   2.979   2.159   2.174 -0.7675 -0.2967 -0.3375
13042TIP3   OH260540   5.051   0.342   0.709 -0.0640 -0.3547 -0.3016
13042TIP3    H160541   5.035   0.421   0.761  0.5172  0.5218 -1.4161
13042TIP3    H260542   4.969   0.293   0.715 -0.1921 -0.0404  0.9970
13043TIP3   OH260543   5.980   2.548   0.061 -0.2282  0.3201  0.9373
13043TIP3    H160544   5.987   2.545   0.157 -3.1980  0.8064  1.2791
13043TIP3    H260545   6.036   2.476   0.031  1.2702  0.5382  2.9689
13044TIP3   OH260546   4.442   4.285  12.832 -0.1218 -0.1232  0.3494
13044TIP3    H160547   4.385   4.328  12.768  1.6813  0.4381 -0.9232
13044TIP3    H260548   4.524   4.269  12.786  0.3008 -2.3017  1.6741
13045TIP3   OH260549   6.722   0.230   0.112 -0.3402 -0.1227  0.1580
13045TIP3    H160550   6.629   0.248   0.099 -0.6478 -0.5221  1.6383
13045TIP3    H260551   6.740   0.259   0.201  1.0675  0.3315 -0.2419
13046TIP3   OH260552   3.102   4.784  14.096 -0.2849  0.5120 -0.6460
13046TIP3    H160553   3.073   4.826  14.015  0.5818  2.2753 -0.0925
13046TIP3    H260554   3.197   4.785  14.091 -0.2336  0.0509  0.1007
13047TIP3   OH260555   0.527   6.265  11.641 -0.2261  0.0797 -0.1450
13047TIP3    H160556   0.451   6.300  11.596  0.2921  0.9719 -0.3519
13047TIP3    H260557   0.527   6.171  11.619 -0.2636  0.3996 -1.6000
13048TIP3   OH260558   5.057   6.296   1.166  0.0768  0.2577  0.5515
13048TIP3    H160559   5.141   6.253   1.148  0.5062  0.8751  1.0328
13048TIP3    H260560   5.047   6.360   1.096 -1.2733 -1.5755 -1.0207
13049TIP3   OH260561   1.385   2.719  12.309 -0.7635 -0.1569  0.0780
13049TIP3    H160562   1.352   2.804  12.337 -2.4832 -0.4742 -0.8787
13049TIP3    H260563   1.465   2.707  12.360 -1.2324  1.3899  1.2636
13050TIP3   OH260564   1.923   5.968  12.559  0.6184  0.1927 -0.1792
13050TIP3    H160565   1.974   6.036  12.516 -0.7302  0.3299 -1.6985
13050TIP3    H260566   1.918   5.897  12.494 -2.5887  0.9325 -0.9624
13051TIP3   OH260567   3.328   5.936   4.940  0.0356  0.1474 -0.4236
13051TIP3    H160568   3.264   5.866   4.947 -1.4006  1.5099  0.7270
13051TIP3    H260569   3.384   5.925   5.017 -1.1007  1.1149  0.5562
13052TIP3   OH260570   0.728   4.100  12.177  0.4262 -0.0328  0.0334
13052TIP3    H160571   0.737   4.070  12.268 -0.2160 -0.2281  0.0373
13052TIP3    H260572   0.695   4.023  12.130  1.7024 -0.2425 -0.5760
13053TIP3   OH260573   2.676   4.777   0.309  0.0991  0.0025 -0.1136
13053TIP3    H160574   2.604   4.781   0.371  0.3936 -0.2715  0.2516
13053TIP3    H260575   2.703   4.868   0.297 -0.8666  0.1980 -0.9303
13054TIP3   OH260576   1.736   0.711  16.286  0.4311 -0.6252 -0.1050
13054TIP3    H160577   1.779   0.687  16.204 -1.9706 -0.0309 -1.6444
13054TIP3    H260578   1.733   0.807  16.284  1.3640 -0.5320  1.2955
13055TIP3   OH260579   2.719   6.407   0.706 -0.2714  0.1503  0.6781
13055TIP3    H160580   2.737   6.499   0.689  0.0667 -0.2462 -1.4337
13055TIP3    H260581   2.803   6.372   0.735 -0.3118  0.4351  1.1411
13056TIP3   OH260582   3.196   4.913   5.762 -0.4893  0.6768  0.1332
13056TIP3    H160583   3.121   4.918   5.704 -1.6377 -0.4840  1.4586
13056TIP3    H260584   3.222   4.821   5.760  0.5154  0.9450  0.1711
13057TIP3   OH260585   5.620   0.954  10.440 -0.2040 -0.1016  0.1429
13057TIP3    H160586   5.560   1.017  10.480  0.0406 -0.3479  0.9235
13057TIP3    H260587   5.703   1.001  10.433 -0.4412  0.1842 -0.7788
13058TIP3   OH260588   3.070   2.744   0.761 -0.1612  0.1722  0.5357
13058TIP3    H160589   3.125   2.726   0.838  0.1599  0.7953  0.4557
13058TIP3    H260590   2.988   2.698   0.778  0.0632 -0.0339  1.0618
13059TIP3   OH260591   0.219   0.593   2.375 -0.3366  0.0176  0.1888
13059TIP3    H160592   0.225   0.543   2.294 -1.4459  0.2827 -0.0790
13059TIP3    H260593   0.203   0.528   2.443 -2.7940 -0.0022 -0.2903
13060TIP3   OH260594   6.412   1.733  16.706  0.6470  0.5422 -0.5285
13060TIP3    H160595   6.319   1.738  16.686  0.9105  3.0170 -1.4058
13060TIP3    H260596   6.456   1.762  16.626  2.2030 -0.4807 -0.1013
13061TIP3   OH260597   0.312   1.932   1.686  0.1862 -0.4202 -0.1767
13061TIP3    H160598   0.266   1.989   1.748 -1.1761 -1.2695 -0.3669
13061TIP3    H260599   0.315   1.847   1.730  1.3174 -0.4650 -0.3126
13062TIP3   OH260600   6.619   1.609   3.319 -0.0578 -0.0217 -0.2706
13062TIP3    H160601   6.550   1.623   3.255  0.7866  1.9989 -0.8112
13062TIP3    H260602   6.683   1.554   3.273 -0.8851 -1.2148 -0.0407
13063TIP3   OH260603   2.843   1.950   2.490 -0.8280 -0.3871  0.2881
13063TIP3    H160604   2.826   1.870   2.540 -3.6936  0.4961  0.8726
13063TIP3    H260605   2.803   2.019   2.541  0.4835  1.2942 -0.8487
13064TIP3   OH260606   4.670   1.652   3.907 -0.1351  0.0318  0.1731
13064TIP3    H160607   4.722   1.699   3.972 -0.8471 -0.6812  1.2928
13064TIP3    H260608   4.717   1.667   3.825  1.3352  0.1698  0.9845
13065TIP3   OH260609   1.917   2.646   1.964 -0.4963  0.0393  0.6456
13065TIP3    H160610   1.942   2.606   2.047  2.0109 -1.3971 -0.6718
13065TIP3    H260611   1.959   2.732   1.966  2.6644 -1.3050 -0.4030
13066TIP3   OH260612   6.406   6.177  12.464 -0.1323  0.1297  0.1192
13066TIP3    H160613   6.348   6.209  12.396 -0.9669  1.4272  1.3881
13066TIP3    H260614   6.455   6.106  12.422 -2.1753 -0.6202 -1.1846
13067TIP3   OH260615   4.688   1.823  11.373 -0.0317  0.1926  0.1902
13067TIP3    H160616   4.599   1.857  11.371 -0.7722 -1.2323  3.0375
13067TIP3    H260617   4.684   1.744  11.319  0.0251  1.0899 -1.1678
13068TIP3   OH260618   0.062   6.168  13.347  0.0795 -0.8715  0.3708
13068TIP3    H160619  -0.033   6.168  13.360 -0.2706 -1.6396 -1.7287
13068TIP3    H260620   0.095   6.103  13.409 -0.9772 -1.7216  0.0824
13069TIP3   OH260621   2.753   5.346  13.583 -0.1966  0.3121 -0.6101
13069TIP3    H160622   2.679   5.406  13.572 -2.3796 -1.7827  1.2399
13069TIP3    H260623   2.827   5.402  13.605 -1.3387  2.4844 -1.9862
13070TIP3   OH260624   5.276   6.167  14.700 -0.2820  0.3031  0.5644
13070TIP3    H160625   5.292   6.202  14.788 -0.7398 -1.1147  1.2381
13070TIP3    H260626   5.226   6.087  14.715 -0.7014  0.2468 -1.0242
13071TIP3   OH260627   2.051   2.152  14.935  0.4410 -0.4289 -0.1856
13071TIP3    H160628   2.002   2.201  14.868  0.2875 -1.1310 -0.5924
13071TIP3    H260629   2.127   2.117  14.888  0.7215 -0.3181  0.1823
13072TIP3   OH260630   5.107   1.630   5.122 -0.0561 -0.5115  0.3623
13072TIP3    H160631   5.096   1.616   5.028  0.0431 -1.5118  0.4894
13072TIP3    H260632   5.187   1.584   5.144  0.1183  0.0268  0.8782
13073TIP3   OH260633   2.527   1.925  14.802  0.1061  0.2244 -0.3595
13073TIP3    H160634   2.595   1.985  14.832  0.0297  0.7474 -1.2152
13073TIP3    H260635   2.557   1.839  14.832 -0.0162  0.7171  1.2838
13074TIP3   OH260636   0.665   5.327   2.058  0.1060 -0.3896 -0.1234
13074TIP3    H160637   0.697   5.353   1.971  1.6844 -1.3638  0.1159
13074TIP3    H260638   0.570   5.336   2.053  0.2755  0.9976 -1.4650
13075TIP3   OH260639   2.417   3.286   5.655  0.1202 -0.5328 -0.2560
13075TIP3    H160640   2.442   3.375   5.679  0.5103 -0.8261  0.4706
13075TIP3    H260641   2.325   3.279   5.682  0.4741 -0.7684  0.9806
13076TIP3   OH260642   2.192   3.941  11.631 -0.0553 -0.3560  0.7349
13076TIP3    H160643   2.259   3.974  11.692  0.3818  1.7206 -0.7659
13076TIP3    H260644   2.215   3.849  11.619  3.0871  0.4374 -0.3288
13077TIP3   OH260645   5.245   4.205   0.386 -0.1914 -0.2139  0.5903
13077TIP3    H160646   5.248   4.251   0.302 -0.1669  0.9548  1.2055
13077TIP3    H260647   5.336   4.189   0.408  0.0291  2.3709  1.8840
13078TIP3   OH260648   2.988   6.457  15.413  0.1623 -0.0169 -0.5738
13078TIP3    H160649   2.989   6.544  15.372  0.7219  0.2083 -0.1015
13078TIP3    H260650   2.944   6.471  15.497  1.1284  0.0228 -0.0639
13079TIP3   OH260651   5.101   0.961   0.852 -0.0792  0.6144  0.2263
13079TIP3    H160652   5.067   0.885   0.899 -0.2298 -0.0193 -0.8642
13079TIP3    H260653   5.180   0.986   0.900 -1.0456  0.9515  1.6976
13080TIP3   OH260654   1.244   4.053  11.315  0.0210 -0.3674 -0.2402
13080TIP3    H160655   1.336   4.027  11.320 -0.0303 -1.0586 -1.9302
13080TIP3    H260656   1.205   4.020  11.395  1.2106 -0.1855  0.4382
13081TIP3   OH260657   2.374   1.336  15.031  0.1762  0.3949 -0.1743
13081TIP3    H160658   2.353   1.331  14.938  0.5167  1.6349 -0.3425
13081TIP3    H260659   2.464   1.370  15.033  1.0418 -1.7829  0.5813
13082TIP3   OH260660   5.338   3.850   4.367  0.5581  0.0864 -0.3720
13082TIP3    H160661   5.383   3.831   4.449 -1.7260  1.3479  1.2753
13082TIP3    H260662   5.377   3.931   4.336  2.4963 -1.1679 -1.4516
13083TIP3   OH260663   1.120   0.397   1.425  0.4355 -0.0522  0.2525
13083TIP3    H160664   1.027   0.420   1.418  0.2043 -1.1964 -0.6643
13083TIP3    H260665   1.152   0.452   1.496 -1.2726 -0.7020  1.6062
13084TIP3   OH260666   2.841   6.235   5.060 -0.0113 -0.3111 -0.0388
13084TIP3    H160667   2.911   6.246   5.124  0.4489 -0.8414 -0.4494
13084TIP3    H260668   2.877   6.177   4.994 -0.9945 -0.9791 -0.0140
13085TIP3   OH260669   4.346   1.762   5.778 -0.5873  0.8968  0.3007
13085TIP3    H160670   4.359   1.721   5.692  0.1200  1.5425  0.0927
13085TIP3    H260671   4.275   1.826   5.763 -1.5989 -0.1201  0.5953
13086TIP3   OH260672   1.517   4.058   0.961  0.4206  0.7453  0.3683
13086TIP3    H160673   1.430   4.022   0.979  0.5343 -0.6940 -1.6178
13086TIP3    H260674   1.571   4.029   1.034 -0.4705  0.5152  0.9532
13087TIP3   OH260675   2.980   1.489   2.017  1.1668  0.5380  0.0724
13087TIP3    H160676   3.036   1.478   1.940  0.9299  1.7777 -0.3094
13087TIP3    H260677   3.022   1.558   2.068 -0.3662  2.0937 -0.6261
13088TIP3   OH260678   2.077   0.402   0.854  0.1391  0.1004 -0.1712
13088TIP3    H160679   2.122   0.340   0.797 -1.3491 -0.1989 -1.0848
13088TIP3    H260680   1.993   0.417   0.811 -0.4919  0.9079  1.2686
13089TIP3   OH260681   2.983   5.890   1.732 -0.2444  0.1648 -0.0139
13089TIP3    H160682   2.891   5.908   1.716 -0.2842 -0.6227 -0.7475
13089TIP3    H260683   3.001   5.811   1.681  1.0699  0.8311 -0.6313
13090TIP3   OH260684   0.687   1.456  11.400 -0.1130 -0.1488 -0.4490
13090TIP3    H160685   0.632   1.419  11.331  0.6910 -1.2301 -0.5305
13090TIP3    H260686   0.725   1.380  11.444 -0.2202  0.5253  0.8848
13091TIP3   OH260687   3.823   3.938   4.433 -0.1090  0.3618  0.3523
13091TIP3    H160688   3.791   3.856   4.395  1.5173  0.8025 -2.1653
13091TIP3    H260689   3.899   3.913   4.485 -0.4467  0.1325  0.7433
13092TIP3   OH260690   6.571   4.296   6.680  0.0709  0.6021  0.7077
13092TIP3    H160691   6.578   4.240   6.757  0.9688 -0.0964  0.1457
13092TIP3    H260692   6.662   4.310   6.654 -0.2495 -0.1703 -0.9192
13093TIP3   OH260693   1.987   0.761  15.405 -0.4659  0.7572  0.8036
13093TIP3    H160694   1.893   0.741  15.411 -0.3163  0.0965  1.0294
13093TIP3    H260695   1.997   0.806  15.321 -0.6471 -1.1968 -0.3300
13094TIP3   OH260696   4.766   5.637   1.184 -0.4415  0.5891  0.6286
13094TIP3    H160697   4.840   5.674   1.231  0.2218  0.1280 -0.0307
13094TIP3    H260698   4.795   5.550   1.157  0.0487  1.6305 -2.5358
13095TIP3   OH260699   1.613   1.954   3.811  0.1024 -0.2116  0.2517
13095TIP3    H160700   1.588   1.970   3.720  0.3320  0.1633  0.2522
13095TIP3    H260701   1.586   2.033   3.858  1.9316  0.5301  0.1180
13096TIP3   OH260702   6.454   3.151   0.614  0.2740  0.4001 -0.6327
13096TIP3    H160703   6.513   3.101   0.671 -0.6137  0.4915  0.3999
13096TIP3    H260704   6.461   3.108   0.529  1.8783  0.4560 -0.5550
13097TIP3   OH260705   5.353   5.714  16.825 -0.7984 -0.0274  0.6266
13097TIP3    H160706   5.356   5.748  16.914 -1.8940 -1.0276  1.0802
13097TIP3    H260707   5.265   5.735  16.794 -0.6660 -0.3022  0.0492
13098TIP3   OH260708   2.486   1.818   6.020 -0.2735 -0.0568  0.4443
13098TIP3    H160709   2.443   1.902   6.035  0.0876  0.0936  0.6146
13098TIP3    H260710   2.564   1.819   6.074 -1.1958 -1.2407  1.8813
13099TIP3   OH260711   1.882   5.743  14.696  0.3707  0.4058 -0.0365
13099TIP3    H160712   1.916   5.740  14.607  0.0127  0.9463 -0.1967
13099TIP3    H260713   1.836   5.660  14.708  0.5927  0.2483 -0.2835
13100TIP3   OH260714   3.832   1.547  11.523 -0.3439 -0.1294  0.5332
13100TIP3    H160715   3.847   1.531  11.430 -0.8141 -1.2095  0.6318
13100TIP3    H260716   3.823   1.642  11.530  0.8655  0.0752 -0.3455
13101TIP3   OH260717   6.532   2.887  14.842 -0.3056  1.0780  0.0679
13101TIP3    H160718   6.441   2.862  14.854  0.4772 -2.1087  0.3161
13101TIP3    H260719   6.529   2.961  14.781 -3.0068  0.4302 -0.7093
13102TIP3   OH260720   2.089   0.881  15.157 -0.2277 -0.3198  0.4460
13102TIP3    H160721   2.155   0.912  15.096 -0.8246 -0.0553 -0.0756
13102TIP3    H260722   2.034   0.821  15.106  0.9126 -2.3182  1.4373
13103TIP3   OH260723   0.640   4.509   0.882  0.0183  0.0516 -0.0092
13103TIP3    H160724   0.561   4.461   0.857  0.2909 -0.8124  0.7075
13103TIP3    H260725   0.711   4.448   0.864  0.5537  0.9259 -0.9018
13104TIP3   OH260726   2.903   5.725  16.363  0.0712 -0.8206 -0.2196
13104TIP3    H160727   2.921   5.723  16.457  0.0991  1.6043 -0.1063
13104TIP3    H260728   2.823   5.777  16.355 -0.0642 -1.2023 -1.5322
13105TIP3   OH260729   3.152   0.766   4.463  0.5721 -0.1352 -0.2544
13105TIP3    H160730   3.157   0.680   4.419 -1.5788 -1.7445  2.3528
13105TIP3    H260731   3.062   0.794   4.450  0.9085  1.1419  0.0595
13106TIP3   OH260732   3.825   2.265  10.778 -0.8117  0.4495  0.1460
13106TIP3    H160733   3.778   2.278  10.696 -1.1000  0.7008  0.3488
13106TIP3    H260734   3.906   2.313  10.768  0.5999 -2.0141 -1.1895
13107TIP3   OH260735   6.396   6.608   2.353 -0.3889 -0.3302  0.0685
13107TIP3    H160736   6.332   6.661   2.401 -1.4667 -2.3624  1.0194
13107TIP3    H260737   6.481   6.646   2.376 -1.1214  1.2249  0.3364
13108TIP3   OH260738   4.237   4.051  15.832  0.2679 -0.2543  0.6262
13108TIP3    H160739   4.142   4.047  15.820  0.4216 -1.5391 -0.3810
13108TIP3    H260740   4.271   4.070  15.744  0.8768  2.3922  1.3394
13109TIP3   OH260741   1.267   1.772  12.756  0.0707  0.2984  0.0829
13109TIP3    H160742   1.289   1.738  12.669  0.5587  0.2846  0.2118
13109TIP3    H260743   1.246   1.864  12.741 -2.1298 -0.2104 -0.4096
13110TIP3   OH260744   2.704   3.567  13.883 -0.2483 -0.0481  0.2149
13110TIP3    H160745   2.761   3.542  13.956  0.4926  1.0591  0.0415
13110TIP3    H260746   2.739   3.651  13.853 -0.2215 -0.6926 -1.7292
13111TIP3   OH260747   3.514   6.740   4.331 -0.4384 -0.0465  0.4282
13111TIP3    H160748   3.480   6.687   4.260  0.5085  1.2205 -1.0266
13111TIP3    H260749   3.530   6.826   4.292  1.0984  0.4023  1.9027
13112TIP3   OH260750   3.873   5.394   0.979 -0.0012  0.1763  0.0164
13112TIP3    H160751   3.811   5.370   0.910 -0.4762  1.1163  0.0993
13112TIP3    H260752   3.951   5.424   0.933 -0.2075  0.5208 -0.1103
13113TIP3   OH260753   3.198   3.534   6.632 -0.3532  0.2567 -0.1663
13113TIP3    H160754   3.196   3.605   6.697 -1.8056 -0.0158  0.1304
13113TIP3    H260755   3.259   3.564   6.565  0.1905  1.1184  0.6897
13114TIP3   OH260756   6.193   4.647   1.309  0.7700 -0.1823 -0.3251
13114TIP3    H160757   6.140   4.570   1.329  0.5112  0.0232 -0.2178
13114TIP3    H260758   6.212   4.639   1.215  1.2733 -0.7037 -0.1872
13115TIP3   OH260759   5.351   3.908  11.780  0.3088 -0.0200 -0.5233
13115TIP3    H160760   5.349   3.991  11.828  0.1323 -1.2565  1.7461
13115TIP3    H260761   5.295   3.923  11.704  2.8791  2.9308 -2.0765
13116TIP3   OH260762   1.223   2.006   0.320 -0.4001 -0.5077  0.5528
13116TIP3    H160763   1.224   2.098   0.344  0.1604 -0.4779  0.4262
13116TIP3    H260764   1.188   1.961   0.397  0.1878 -0.2862  0.9496
13117TIP3   OH260765   1.723   4.925   2.668  0.7338  0.2662 -0.3991
13117TIP3    H160766   1.815   4.943   2.647  1.4350 -2.1343  0.2076
13117TIP3    H260767   1.678   4.926   2.584  1.7281 -0.4368 -0.9648
13118TIP3   OH260768   3.988   0.097  12.385  0.1374 -0.1716 -0.2507
13118TIP3    H160769   3.894   0.115  12.383  0.1999  0.1230 -1.6152
13118TIP3    H260770   4.029   0.183  12.390  0.3498 -0.2458 -0.6930
13119TIP3   OH260771   5.175   0.140   1.292  0.3878 -0.1625 -0.3398
13119TIP3    H160772   5.124   0.211   1.252  0.1779  0.1785  0.5081
13119TIP3    H260773   5.181   0.165   1.384 -1.6133 -2.3350  0.4939
13120TIP3   OH260774   1.240   3.242  13.633  0.5753 -0.3914 -0.1833
13120TIP3    H160775   1.334   3.226  13.626  0.4341 -1.6665  0.5619
13120TIP3    H260776   1.211   3.258  13.543  1.5670  0.4538 -0.3665
13121TIP3   OH260777   0.609   2.313   3.730  0.5232 -0.4656 -0.5958
13121TIP3    H160778   0.621   2.247   3.798 -1.1708 -0.9018 -0.6766
13121TIP3    H260779   0.546   2.274   3.669 -1.1849  1.5161 -0.2104
13122TIP3   OH260780   0.801   3.363   4.293 -0.4000 -0.2086 -0.1539
13122TIP3    H160781   0.709   3.364   4.265 -0.4112  0.7824 -0.1139
13122TIP3    H260782   0.824   3.455   4.303  0.9566 -0.3785 -1.3090
13123TIP3   OH260783   0.658   3.995  14.448 -0.1122  0.1004  0.4571
13123TIP3    H160784   0.715   3.919  14.438 -0.2307  0.2478 -2.1438
13123TIP3    H260785   0.704   4.065  14.401 -1.1487  0.9655  0.6844
13124TIP3   OH260786   0.336   0.374  12.415 -0.1508 -0.2029 -0.0626
13124TIP3    H160787   0.359   0.354  12.506  0.4904  0.1970 -0.1340
13124TIP3    H260788   0.272   0.445  12.422 -0.4388 -0.4759  0.0926
13125TIP3   OH260789   6.003   4.146   2.709 -0.2759  0.0267 -0.2151
13125TIP3    H160790   6.049   4.086   2.768  0.7112  0.4334 -0.5455
13125TIP3    H260791   6.067   4.166   2.641 -1.1594  0.1221 -1.0465
13126TIP3   OH260792   5.789   0.089   3.732 -0.7724  0.0971  0.7230
13126TIP3    H160793   5.750   0.033   3.665 -1.8881 -0.1561  1.5578
13126TIP3    H260794   5.821   0.166   3.684 -0.5731 -0.5617 -0.2295
13127TIP3   OH260795   5.709   3.333   1.374 -0.1904  0.0426 -0.4358
13127TIP3    H160796   5.695   3.245   1.338 -1.8145 -0.4283  1.1681
13127TIP3    H260797   5.777   3.371   1.319 -0.1969 -1.8267 -1.8425
13128TIP3   OH260798   2.049   3.567  13.437  0.3081 -0.0940 -0.8527
13128TIP3    H160799   1.962   3.605  13.447  0.3328  0.1728 -1.5843
13128TIP3    H260800   2.085   3.565  13.526 -0.8987 -1.3402 -0.3729
13129TIP3   OH260801   3.290   0.744  15.711 -0.0013  0.6203  0.4256
13129TIP3    H160802   3.239   0.815  15.671 -0.0175  0.1655 -0.3977
13129TIP3    H260803   3.230   0.704  15.773 -1.1584 -0.7299 -1.4516
13130TIP3   OH260804   2.231   5.560   3.642  0.6447  0.0068  0.1747
13130TIP3    H160805   2.173   5.541   3.716  0.9102 -1.2714  0.0734
13130TIP3    H260806   2.175   5.552   3.565  0.9898 -1.4624  0.0608
13131TIP3   OH260807   4.754   0.810  16.559  0.3959  0.2902 -0.0409
13131TIP3    H160808   4.717   0.754  16.490 -0.6564 -0.1694  0.8660
13131TIP3    H260809   4.728   0.899  16.533 -0.4979  0.0669  0.0342
13132TIP3   OH260810   2.664   3.395  13.145 -0.0087 -0.1522 -0.0099
13132TIP3    H160811   2.735   3.353  13.095  1.3601  0.2592  1.4844
13132TIP3    H260812   2.689   3.487  13.148 -0.4451 -0.0499  0.7713
13133TIP3   OH260813   0.105   1.266   2.507 -0.3445  0.0813  1.2207
13133TIP3    H160814   0.014   1.272   2.479  0.4089  0.3380 -1.3669
13133TIP3    H260815   0.129   1.175   2.492 -0.3891 -0.2192  2.7783
13134TIP3   OH260816   4.937   2.248  11.692 -0.2506  0.2011 -0.0511
13134TIP3    H160817   4.862   2.272  11.638 -1.2596 -1.1646  0.6771
13134TIP3    H260818   4.963   2.330  11.735 -1.8580  0.5507  0.3150
13135TIP3   OH260819   5.329   0.287   0.629  0.5030 -0.3345 -0.4047
13135TIP3    H160820   5.388   0.260   0.699  0.5107  3.6359  1.3932
13135TIP3    H260821   5.241   0.273   0.666  0.4603 -0.3028 -0.4948
13136TIP3   OH260822   5.967   3.922   3.933  0.7125 -0.2228 -0.4525
13136TIP3    H160823   6.017   3.984   3.879 -0.0250 -1.5676 -2.8407
13136TIP3    H260824   6.030   3.852   3.953  0.6002 -0.4424 -0.8579
13137TIP3   OH260825   4.044   0.935   5.535 -0.2070 -0.0670 -0.3332
13137TIP3    H160826   3.996   0.890   5.466 -0.6476 -0.2456  0.0824
13137TIP3    H260827   4.004   1.022   5.540  0.1133  0.1004 -0.5909
13138TIP3   OH260828   1.445   2.209  11.432 -0.0538 -0.3609  0.3908
13138TIP3    H160829   1.404   2.141  11.485  2.0275 -2.5160 -0.5378
13138TIP3    H260830   1.475   2.163  11.353  2.2506  1.4164  0.1128
13139TIP3   OH260831   0.003   2.617  12.930  0.2281  0.1261  0.0653
13139TIP3    H160832   0.064   2.605  13.003  0.3263  0.2164 -0.0018
13139TIP3    H260833  -0.049   2.693  12.954  1.1889  1.0057 -0.5914
13140TIP3   OH260834   3.299   5.307  17.258  1.0915  0.3134 -0.3670
13140TIP3    H160835   3.383   5.350  17.274 -0.7151  3.3908  2.1077
13140TIP3    H260836   3.283   5.256  17.337  0.0626  0.9191 -0.1621
13141TIP3   OH260837   0.248   4.350  15.406  0.0012  0.0650 -0.6477
13141TIP3    H160838   0.189   4.285  15.368 -1.2274  1.0945 -0.5536
13141TIP3    H260839   0.253   4.419  15.340 -2.2821  1.9570  0.9974
13142TIP3   OH260840   5.537   4.119   0.462 -0.2119  0.0815 -0.5907
13142TIP3    H160841   5.632   4.110   0.454 -0.4599 -1.4406 -2.8078
13142TIP3    H260842   5.516   4.074   0.543  0.9781  0.8395  0.1728
13143TIP3   OH260843   2.211   3.994  11.942  0.6232 -0.2910 -0.1184
13143TIP3    H160844   2.177   4.068  11.992 -0.0470 -0.1844 -0.7070
13143TIP3    H260845   2.299   3.980  11.976  0.4557  0.2537  0.5630
13144TIP3   OH260846   3.833   5.340  12.487 -0.3346  0.1554 -0.4515
13144TIP3    H160847   3.753   5.329  12.436  1.0299  1.5651 -3.0836
13144TIP3    H260848   3.821   5.422  12.533 -0.6802 -0.0069 -0.2472
13145TIP3   OH260849   0.097   4.345   0.736  0.1760 -0.0623 -0.1168
13145TIP3    H160850   0.137   4.304   0.813 -1.8097 -1.2856  0.3381
13145TIP3    H260851   0.112   4.283   0.665 -1.2837 -0.7964  0.1755
13146TIP3   OH260852   1.668   6.601   0.815 -0.4588  0.6368 -0.1493
13146TIP3    H160853   1.624   6.520   0.841  0.1580  0.4801  0.4221
13146TIP3    H260854   1.602   6.670   0.828 -1.9478 -0.0361 -3.2136
13147TIP3   OH260855   3.187   6.677   2.469  0.4481 -0.5470 -0.2187
13147TIP3    H160856   3.098   6.659   2.499  0.1769  1.1427  0.0947
13147TIP3    H260857   3.239   6.683   2.549  0.3327  0.9014 -0.2268
13148TIP3   OH260858   3.382   5.948  16.791 -0.3707 -0.7350  0.0848
13148TIP3    H160859   3.402   5.890  16.864 -0.4330 -0.2689  0.4818
13148TIP3    H260860   3.289   5.931  16.772 -0.5738 -0.2930  0.6415
13149TIP3   OH260861   0.861   2.055  14.157 -0.3122  0.2927 -0.2424
13149TIP3    H160862   0.924   1.994  14.197 -0.3150  1.4455  1.6420
13149TIP3    H260863   0.777   2.029  14.194 -0.5899  0.2652 -0.8931
13150TIP3   OH260864   4.166   6.483   6.150 -0.4134 -0.1922 -0.5341
13150TIP3    H160865   4.112   6.518   6.221  3.3950 -0.0467  2.6829
13150TIP3    H260866   4.194   6.397   6.181  2.7654  0.5868 -0.8514
13151TIP3   OH260867   6.374   2.213  16.202  0.4191 -0.0421 -0.0992
13151TIP3    H160868   6.321   2.137  16.226 -0.7177  0.9742  0.6970
13151TIP3    H260869   6.430   2.181  16.131 -0.6014 -1.3963 -0.3370
13152TIP3   OH260870   0.767   3.419   5.713  0.3129 -0.3517 -0.0016
13152TIP3    H160871   0.752   3.512   5.726 -2.0219 -0.6030 -0.5296
13152TIP3    H260872   0.852   3.403   5.754  1.0027  2.0675 -0.3085
13153TIP3   OH260873   4.182   5.158  16.596 -0.5577  0.0711  0.0904
13153TIP3    H160874   4.173   5.115  16.511  0.7233 -0.4053  0.1729
13153TIP3    H260875   4.169   5.251  16.578  2.0439  0.2969 -1.1077
13154TIP3   OH260876   5.408   2.120   0.221 -0.2689 -0.2687  0.2637
13154TIP3    H160877   5.443   2.209   0.229 -0.4518  0.0949 -2.3478
13154TIP3    H260878   5.314   2.129   0.241 -0.4431  0.2979 -0.7565
13155TIP3   OH260879   4.714   5.616   1.749 -0.1613 -0.3898  0.2740
13155TIP3    H160880   4.698   5.710   1.754 -3.0023 -0.7203 -0.6400
13155TIP3    H260881   4.727   5.598   1.655 -0.5373 -1.0126  0.3330
13156TIP3   OH260882   1.032   2.097   2.635  0.5152 -0.4025  0.2961
13156TIP3    H160883   1.031   2.018   2.688  0.3724 -0.9667 -0.5198
13156TIP3    H260884   1.071   2.070   2.552  1.8015  0.7313  0.5038
13157TIP3   OH260885   3.777   2.946  16.781 -0.2235  0.5275 -0.0773
13157TIP3    H160886   3.684   2.950  16.760 -0.1268 -0.9214 -0.9607
13157TIP3    H260887   3.819   3.001  16.714 -0.2234 -1.3325 -1.7200
13158TIP3   OH260888   4.668   1.770  15.296  0.6478 -0.5976 -0.0047
13158TIP3    H160889   4.622   1.735  15.372  1.1116  1.3028  1.2163
13158TIP3    H260890   4.758   1.741  15.307  0.6939 -0.4071  0.1251
13159TIP3   OH260891   2.631   5.815   0.388  0.2222  0.8425  0.2896
13159TIP3    H160892   2.544   5.840   0.416  0.0537 -1.4095  2.0134
13159TIP3    H260893   2.637   5.847   0.298 -2.3660  1.0329  0.1126
13160TIP3   OH260894   2.796   1.298   1.557 -0.0796  0.0821 -0.0151
13160TIP3    H160895   2.822   1.282   1.648 -2.4705  0.7542  0.8536
13160TIP3    H260896   2.879   1.308   1.510  1.2387  1.9048  2.4840
13161TIP3   OH260897   6.030   6.115  13.167  0.1540 -0.2124 -0.4599
13161TIP3    H160898   6.086   6.071  13.103  2.6085 -0.1388  1.5116
13161TIP3    H260899   6.091   6.154  13.229 -2.0949  1.3442  0.8881
13162TIP3   OH260900   1.986   4.473   3.766 -0.1014 -0.3260  0.7029
13162TIP3    H160901   2.053   4.528   3.725  0.6829 -1.1065  0.9111
13162TIP3    H260902   1.917   4.535   3.791  1.0842  0.6980  1.6113
13163TIP3   OH260903   1.833   2.325   0.168  0.3569  0.2029  0.0656
13163TIP3    H160904   1.859   2.283   0.250  2.9469  0.5286 -0.4815
13163TIP3    H260905   1.908   2.379   0.144  0.2188 -0.7758 -3.0992
13164TIP3   OH260906   6.301   3.952  15.718  0.2622 -0.1536 -0.4139
13164TIP3    H160907   6.311   3.857  15.708 -0.9407 -0.0241 -4.7714
13164TIP3    H260908   6.368   3.989  15.661 -1.3706  1.4744 -1.3802
13165TIP3   OH260909   2.573   2.224   6.589 -0.1970 -0.4016 -0.4469
13165TIP3    H160910   2.547   2.273   6.667  0.5659 -0.7724  0.0602
13165TIP3    H260911   2.543   2.277   6.516 -0.7512  0.0532  0.1033
13166TIP3   OH260912   0.660   2.306  14.889  0.0168 -0.4483 -0.4143
13166TIP3    H160913   0.749   2.334  14.911  0.0506  0.2290 -1.3504
13166TIP3    H260914   0.614   2.387  14.866 -0.7743 -0.8192 -0.1609
13167TIP3   OH260915   5.853   1.157   4.330  0.1351 -0.3559 -0.4631
13167TIP3    H160916   5.773   1.210   4.329  1.0655  1.1794  0.6880
13167TIP3    H260917   5.822   1.067   4.337 -1.5004  0.2445  0.6650
13168TIP3   OH260918   0.619   6.638  12.366  0.1855  0.7001  0.0011
13168TIP3    H160919   0.685   6.630  12.296 -0.3224  2.4790 -0.7344
13168TIP3    H260920   0.668   6.625  12.447  1.4035  1.7322 -0.5421
13169TIP3   OH260921   2.049   5.997   2.045  0.3285 -0.3689 -0.3117
13169TIP3    H160922   2.121   6.049   2.010 -0.0879  0.3693 -0.1055
13169TIP3    H260923   2.086   5.910   2.059  1.5213  0.3082  0.9550
13170TIP3   OH260924   1.694   2.975  14.220 -0.0349  0.2995  0.4058
13170TIP3    H160925   1.692   3.067  14.192  0.7795  0.8250  1.9777
13170TIP3    H260926   1.606   2.942  14.198 -1.1992  2.1393  1.9468
13171TIP3   OH260927   4.963   2.596   4.252 -0.4450  0.1314 -0.5103
13171TIP3    H160928   4.988   2.517   4.204 -0.1648  0.3206 -0.6827
13171TIP3    H260929   4.920   2.564   4.331  1.4480 -0.2521  0.4316
13172TIP3   OH260930   4.224   3.333   3.170 -0.2365  0.4103 -0.1229
13172TIP3    H160931   4.293   3.287   3.123  1.1539  0.5013  1.7173
13172TIP3    H260932   4.197   3.273   3.240  1.4788  2.1462  2.2028
13173TIP3   OH260933   2.090   5.353  13.685  0.0785 -0.4355 -0.2534
13173TIP3    H160934   2.025   5.377  13.750  0.2387 -1.6880  0.3985
13173TIP3    H260935   2.151   5.427  13.683 -0.5933  0.1374  0.1311
13174TIP3   OH260936   3.536   5.751   4.100 -0.3353  0.1753 -0.1476
13174TIP3    H160937   3.457   5.738   4.047  1.0606 -0.4641 -2.1883
13174TIP3    H260938   3.566   5.662   4.120  0.2346  0.4053  0.0315
13175TIP3   OH260939   0.168   2.125  15.206 -0.7178  0.5674 -0.1729
13175TIP3    H160940   0.200   2.198  15.259  0.7390  1.1132 -1.6997
13175TIP3    H260941   0.091   2.160  15.161  0.3365  1.4540 -1.3856
13176TIP3   OH260942   6.665   6.457   2.686  0.5701 -0.3424 -0.7192
13176TIP3    H160943   6.632   6.537   2.645 -2.1702 -1.6102 -1.2272
13176TIP3    H260944   6.710   6.411   2.615 -1.1420 -0.9163 -1.5051
13177TIP3   OH260945   4.853   3.877   4.839  0.1429  0.2605 -0.6563
13177TIP3    H160946   4.855   3.781   4.843  1.1463  0.2426 -1.1169
13177TIP3    H260947   4.817   3.896   4.752  0.7470  0.2805 -0.9072
13178TIP3   OH260948   4.653   5.888  16.250  1.1357 -0.4817 -0.1886
13178TIP3    H160949   4.675   5.933  16.168  1.3143 -0.1274  0.0487
13178TIP3    H260950   4.635   5.798  16.224 -1.2504  0.1525 -0.9722
13179TIP3   OH260951   5.491   1.620   6.099 -0.7670 -0.2577 -0.1891
13179TIP3    H160952   5.570   1.654   6.057 -0.5142 -0.3668  0.1878
13179TIP3    H260953   5.523   1.557   6.164 -1.1388 -0.0568  0.2011
13180TIP3   OH260954   0.438   4.286   5.610 -0.0003 -0.1791  0.1891
13180TIP3    H160955   0.508   4.232   5.646  1.2686  0.1359 -1.6818
13180TIP3    H260956   0.475   4.325   5.531 -1.2017  2.6397  0.8907
13181TIP3   OH260957   3.946   5.338   4.703 -0.2245  0.1403 -0.0371
13181TIP3    H160958   3.956   5.430   4.679  0.1061  1.0597  3.1844
13181TIP3    H260959   4.032   5.300   4.689 -0.1224  0.5190 -0.4932
13182TIP3   OH260960   1.929   4.240  13.120 -0.4344  0.0619  0.4451
13182TIP3    H160961   1.973   4.222  13.037  1.4777 -0.1193  1.4476
13182TIP3    H260962   1.875   4.317  13.102 -0.5201 -0.3040 -1.0867
13183TIP3   OH260963   5.621   6.256   1.383  1.0296 -0.0094 -0.7539
13183TIP3    H160964   5.555   6.203   1.428  0.2053  0.3319 -1.5384
13183TIP3    H260965   5.620   6.340   1.430  0.5626  0.1588 -1.0629
13184TIP3   OH260966   5.105   0.585  13.607 -0.1289  0.1565 -0.4863
13184TIP3    H160967   5.037   0.605  13.671 -1.4854 -2.2640 -1.0524
13184TIP3    H260968   5.081   0.636  13.529 -1.2303 -0.5422 -0.6244
13185TIP3   OH260969   2.530   4.951   2.266  0.0749  0.2617 -0.0015
13185TIP3    H160970   2.590   4.881   2.239 -2.0846 -1.9184  0.4627
13185TIP3    H260971   2.491   4.920   2.348 -0.2872  2.4897  0.7451
13186TIP3   OH260972   1.801   4.604   4.244  0.0530 -0.0333  0.4768
13186TIP3    H160973   1.722   4.601   4.190  0.3806  0.7766 -0.0673
13186TIP3    H260974   1.873   4.614   4.182  0.3637  1.8728  1.0502
13187TIP3   OH260975   6.074   2.961   6.285  0.2096 -0.1544 -0.1336
13187TIP3    H160976   6.126   2.909   6.224  1.8226 -0.1613  1.1775
13187TIP3    H260977   6.103   2.932   6.372 -1.7697  0.0916  0.6602
13188TIP3   OH260978   5.165   0.478   1.297 -0.1397  0.2539  0.1922
13188TIP3    H160979   5.173   0.572   1.285  1.4096  0.1088 -0.1200
13188TIP3    H260980   5.133   0.467   1.386  2.4470  1.0424  1.3067
13189TIP3   OH260981   5.942   4.465   0.407  0.0208 -0.0410  0.0901
13189TIP3    H160982   5.946   4.480   0.313 -0.9048 -0.9843 -0.1194
13189TIP3    H260983   6.032   4.442   0.431  0.3448  0.5924 -0.4907
13190TIP3   OH260984   1.052   3.662  15.060  0.6099 -0.3024  0.5813
13190TIP3    H160985   1.044   3.607  15.138 -1.9875  0.1646  0.7415
13190TIP3    H260986   1.104   3.610  14.999  1.5810 -1.2256  2.1318
13191TIP3   OH260987   6.012   3.628   3.987 -0.2725  0.6194  0.2019
13191TIP3    H160988   5.925   3.604   3.955  0.4197 -0.0260 -1.3145
13191TIP3    H260989   6.018   3.588   4.073 -1.0879 -0.2365 -0.1208
13192TIP3   OH260990   1.376   4.963  12.267 -0.4081  0.1647 -0.2251
13192TIP3    H160991   1.395   4.964  12.173  0.0994 -0.6535 -0.1420
13192TIP3    H260992   1.349   5.052  12.287  1.2240  0.8240 -0.7884
13193TIP3   OH260993   1.773   2.762   0.298  0.5325 -0.2462  0.1611
13193TIP3    H160994   1.708   2.720   0.243  0.5376 -0.2113  0.1280
13193TIP3    H260995   1.747   2.854   0.301 -0.1560 -0.4599  1.2031
13194TIP3   OH260996   2.515   0.956   3.531 -0.2768 -0.1910 -0.1339
13194TIP3    H160997   2.554   0.972   3.617 -0.8079 -0.0617  0.0859
13194TIP3    H260998   2.435   0.908   3.549 -2.7686  3.5179 -0.1324
13195TIP3   OH260999   3.207   1.570   0.104  0.1146  0.3490 -0.4037
13195TIP3    H161000   3.188   1.589   0.012 -1.7491 -0.8479 -0.3069
13195TIP3    H261001   3.190   1.653   0.150  2.2860  1.3398 -1.2190
13196TIP3   OH261002   2.745   2.245  15.938  0.0663 -0.3494  0.5723
13196TIP3    H161003   2.734   2.290  15.854  0.7425 -0.1552  0.5787
13196TIP3    H261004   2.808   2.300  15.985  1.2576 -1.5497  0.4104
13197TIP3   OH261005   3.761   1.887  15.459  0.4566  0.4735  0.4129
13197TIP3    H161006   3.834   1.825  15.452  0.6241  0.8376 -2.1191
13197TIP3    H261007   3.692   1.850  15.404  0.7564  2.6827 -1.6460
13198TIP3   OH261008   3.360   0.419   0.825  0.4846  0.2038 -0.0782
13198TIP3    H161009   3.296   0.465   0.879  0.4001  1.5741 -1.2810
13198TIP3    H261010   3.428   0.484   0.806  0.7549 -0.3706 -1.2127
13199TIP3   OH261011   6.399   2.746  13.289  0.0013  0.3584 -0.1106
13199TIP3    H161012   6.410   2.673  13.351  0.9565  0.6087  0.0257
13199TIP3    H261013   6.406   2.706  13.203  0.1012  0.2229 -0.0398
13200TIP3   OH261014   5.642   5.469   4.097  0.0631  0.2231 -0.3578
13200TIP3    H161015   5.573   5.410   4.068 -1.6961  1.5892  0.8146
13200TIP3    H261016   5.687   5.421   4.166 -0.1545 -0.4241 -0.6562
13201TIP3   OH261017   3.422   5.243  14.359 -0.0606 -0.3882 -0.1029
13201TIP3    H161018   3.421   5.156  14.320  0.7350 -1.1594  1.5171
13201TIP3    H261019   3.477   5.235  14.436  0.3594  1.6601 -0.1234
13202TIP3   OH261020   3.605   5.318   0.622 -0.0165  0.0657  0.3269
13202TIP3    H161021   3.612   5.226   0.596 -1.4173 -0.4854  1.7442
13202TIP3    H261022   3.559   5.360   0.549 -0.7028 -0.6935  0.3009
13203TIP3   OH261023   1.408   4.226   2.712 -0.1694  0.0925  0.1414
13203TIP3    H161024   1.434   4.279   2.637  0.7553 -1.4470 -0.6852
13203TIP3    H261025   1.481   4.234   2.773 -0.2061  0.0952  0.1847
13204TIP3   OH261026   2.027   2.517  16.752  0.0122  0.7572 -0.7261
13204TIP3    H161027   2.053   2.467  16.675  0.0137 -0.7882  0.2448
13204TIP3    H261028   2.108   2.526  16.803  0.1527  2.3193 -1.1639
13205TIP3   OH261029   4.786   5.084   1.124  0.7532 -0.0290  0.3442
13205TIP3    H161030   4.841   5.042   1.190 -0.7316 -1.3675  0.8058
13205TIP3    H261031   4.755   5.011   1.070  2.4437  1.0703 -2.3286
13206TIP3   OH261032   4.420   2.568   5.222  0.4847  0.1604 -0.1404
13206TIP3    H161033   4.465   2.647   5.191  1.1441  0.0319  0.4765
13206TIP3    H261034   4.374   2.535   5.144  1.0566  0.5605 -0.6589
13207TIP3   OH261035   1.288   4.613  12.285 -0.0852  0.0083 -0.1519
13207TIP3    H161036   1.292   4.521  12.312 -1.9445  0.0364  0.3785
13207TIP3    H261037   1.377   4.646  12.297  0.4546 -1.5428  0.3114
13208TIP3   OH261038   3.332   3.028  13.551 -0.0692 -0.4929  0.1918
13208TIP3    H161039   3.279   3.063  13.480  2.2233 -0.4886 -1.6537
13208TIP3    H261040   3.375   2.951  13.513  0.1710 -1.3174  2.0322
13209TIP3   OH261041   6.614   0.358   4.254 -0.0354  0.3134 -0.2847
13209TIP3    H161042   6.615   0.397   4.166  1.2558 -0.2918 -0.5653
13209TIP3    H261043   6.559   0.280   4.244 -0.2900  0.5137 -0.4441
13210TIP3   OH261044   3.438   4.068   2.827 -0.2407  0.5534  0.3830
13210TIP3    H161045   3.494   4.113   2.890 -0.1845 -1.2628  1.6955
13210TIP3    H261046   3.490   3.993   2.797 -1.5827 -0.6589  0.9458
13211TIP3   OH261047   6.331   4.665  11.363 -0.6679  0.4113  0.0367
13211TIP3    H161048   6.305   4.734  11.424 -1.3249 -0.4513  0.7388
13211TIP3    H261049   6.293   4.693  11.279 -1.0995  0.7972  0.3548
13212TIP3   OH261050   0.330   3.882  16.607 -0.5582  0.0181  0.4798
13212TIP3    H161051   0.267   3.839  16.664 -0.2275 -1.8753 -0.5239
13212TIP3    H261052   0.285   3.892  16.523 -1.0348  2.7516  0.9496
13213TIP3   OH261053   2.159   2.844  15.207  0.2336  0.4916  0.7279
13213TIP3    H161054   2.168   2.913  15.142  0.9834  2.5866  2.9045
13213TIP3    H261055   2.247   2.830  15.241 -0.1472 -0.4370  1.4063
13214TIP3   OH261056   1.235   0.682   1.970 -0.1125  0.1503 -0.6454
13214TIP3    H161057   1.269   0.594   1.955 -0.4816  0.1799 -1.7711
13214TIP3    H261058   1.312   0.734   1.993  0.2851 -0.2222 -1.1126
13215TIP3   OH261059   0.202   0.142   0.433 -0.1657 -0.1481 -0.1790
13215TIP3    H161060   0.155   0.060   0.449 -1.9339  1.0478  1.1132
13215TIP3    H261061   0.239   0.165   0.519  0.2239  0.4731 -0.5074
13216TIP3   OH261062   0.779   3.757  10.714  0.1422 -0.7502  0.1237
13216TIP3    H161063   0.804   3.807  10.635 -0.2494  0.5752  0.8072
13216TIP3    H261064   0.690   3.726  10.696 -0.1102 -0.0852  0.2024
13217TIP3   OH261065   2.480   5.403  16.470  0.6622 -0.0557  0.4214
13217TIP3    H161066   2.544   5.409  16.542 -0.3466  1.5930  1.2380
13217TIP3    H261067   2.528   5.431  16.393  0.6766  2.3244  1.2290
13218TIP3   OH261068   3.335   2.142   0.300 -0.1698 -0.0844  0.1649
13218TIP3    H161069   3.419   2.158   0.342  0.2337  0.9807 -0.9784
13218TIP3    H261070   3.288   2.225   0.309 -0.4924 -0.1891 -0.5286
13219TIP3   OH261071   0.143   6.175   2.205  0.3429 -0.5153 -0.1580
13219TIP3    H161072   0.238   6.169   2.192  0.2922 -3.4029  0.2966
13219TIP3    H261073   0.107   6.174   2.116  0.6779 -0.0133 -0.3109
13220TIP3   OH261074   1.686   0.927   4.858 -0.2069 -0.3133 -0.5904
13220TIP3    H161075   1.712   0.948   4.948  0.1421  2.5387 -1.2584
13220TIP3    H261076   1.591   0.916   4.862 -0.1469 -0.6125  0.1922
13221TIP3   OH261077   6.484   2.048  12.921  0.0352  0.0996  0.0371
13221TIP3    H161078   6.497   2.114  12.852  0.1014  2.1745  1.9209
13221TIP3    H261079   6.570   2.010  12.934  0.8578  2.2128  1.3034
13222TIP3   OH261080   3.434   0.601  13.959 -0.4932  0.1955  0.5130
13222TIP3    H161081   3.503   0.577  13.898  0.0507  0.9943  0.7995
13222TIP3    H261082   3.480   0.636  14.035 -1.2313  1.4381  0.4041
13223TIP3   OH261083   0.110   3.991   2.289 -0.2053 -0.6404  0.4154
13223TIP3    H161084   0.179   4.049   2.258  1.6511 -1.8211  2.0678
13223TIP3    H261085   0.048   4.049   2.334  1.0512  0.2074  1.1153
13224TIP3   OH261086   3.869   2.663  16.505  0.2393 -0.4770  0.2644
13224TIP3    H161087   3.853   2.655  16.599  0.0564  1.4682  0.4264
13224TIP3    H261088   3.963   2.678  16.498  0.1558  0.0080  0.1846
13225TIP3   OH261089   3.133   3.087   3.861 -0.3756  0.3525 -0.8427
13225TIP3    H161090   3.154   3.143   3.935 -1.3105  0.1820 -0.4395
13225TIP3    H261091   3.107   3.004   3.900 -0.4921  0.1322 -1.3810
13226TIP3   OH261092   2.757   6.194   6.301 -0.9651 -0.2103 -0.0511
13226TIP3    H161093   2.692   6.126   6.286 -0.0188 -1.2489  0.3538
13226TIP3    H261094   2.719   6.251   6.368 -2.8485  1.2046 -2.1968
13227TIP3   OH261095   2.846   3.164  14.284  0.6973 -0.0964  0.2327
13227TIP3    H161096   2.899   3.230  14.239  1.6659  0.1694  1.6895
13227TIP3    H261097   2.891   3.150  14.367  1.2170 -3.4595 -0.4493
13228TIP3   OH261098   0.342   3.158  16.724 -0.0037  0.3495 -0.2306
13228TIP3    H161099   0.300   3.074  16.703 -0.5906  0.9771 -1.6585
13228TIP3    H261100   0.406   3.136  16.792  1.5032 -1.6869 -2.1962
13229TIP3   OH261101   5.789   0.220   0.980 -0.6165 -0.5916 -0.1541
13229TIP3    H161102   5.717   0.157   0.989 -0.8925 -0.2743 -0.1328
13229TIP3    H261103   5.788   0.244   0.888 -1.9431  1.0590  0.2499
13230TIP3   OH261104   2.917   5.520   2.115  0.8052 -0.9690 -0.4189
13230TIP3    H161105   2.965   5.479   2.187  0.9025  0.0664  0.1271
13230TIP3    H261106   2.948   5.475   2.037  1.6747 -1.2170  0.0512
13231TIP3   OH261107   3.251   3.032  12.034 -0.4428  0.5257 -0.6478
13231TIP3    H161108   3.191   3.001  12.101  0.8609  1.2043  0.9030
13231TIP3    H261109   3.333   2.985  12.049  0.3500  1.7916 -0.7469
13232TIP3   OH261110   2.851   5.055   4.596 -0.3426  0.3971  0.1477
13232TIP3    H161111   2.855   5.119   4.525  0.9657  0.6558  0.4465
13232TIP3    H261112   2.862   5.106   4.676 -1.3706  0.0472  0.5366
13233TIP3   OH261113   1.352   3.615   1.034 -0.0802  0.6338 -0.5477
13233TIP3    H161114   1.337   3.600   0.941 -0.8683  0.3872 -0.3858
13233TIP3    H261115   1.446   3.635   1.040 -0.4217  2.8771 -1.6610
13234TIP3   OH261116   2.148   6.422  15.579 -0.2656  0.0650 -0.0880
13234TIP3    H161117   2.063   6.393  15.611  0.6869 -1.8709  0.8970
13234TIP3    H261118   2.142   6.416  15.484 -1.0762 -0.4707 -0.0101
13235TIP3   OH261119   5.917   0.274  15.768 -0.1893 -0.0623  0.4800
13235TIP3    H161120   5.925   0.179  15.764 -1.4901 -0.1819  0.0287
13235TIP3    H261121   5.879   0.291  15.854  0.6116  0.1119  0.8080
13236TIP3   OH261122   4.517   4.999   1.364  0.1190 -0.3033 -0.5959
13236TIP3    H161123   4.541   4.938   1.294  1.6594 -0.3441 -0.0656
13236TIP3    H261124   4.580   5.070   1.356 -0.8849  0.6279 -0.4218
13237TIP3   OH261125   4.479   2.319  14.141 -0.1603  0.1388 -0.2025
13237TIP3    H161126   4.475   2.223  14.143  1.7869 -0.0108 -0.8677
13237TIP3    H261127   4.569   2.339  14.167 -0.8993  1.8764  1.2127
13238TIP3   OH261128   1.580   3.481   0.103  0.6444 -0.3882 -0.2335
13238TIP3    H161129   1.566   3.542   0.176  0.5772  1.1325 -1.4505
13238TIP3    H261130   1.646   3.524   0.049  2.4836 -2.5989  0.0912
13239TIP3   OH261131   4.850   0.713  17.103  0.5401  0.2021  0.1494
13239TIP3    H161132   4.847   0.645  17.036  1.3750 -0.6745  0.9796
13239TIP3    H261133   4.936   0.754  17.093  0.5871  0.2081  0.5283
13240TIP3   OH261134   1.599   0.864   4.615 -0.2844 -0.0392 -0.8221
13240TIP3    H161135   1.658   0.885   4.542 -0.8988  0.4594 -1.1851
13240TIP3    H261136   1.638   0.907   4.691  2.0211 -2.9896 -0.1463
13241TIP3   OH261137   4.469   3.485  10.490 -0.1505  0.1257 -0.0259
13241TIP3    H161138   4.463   3.410  10.430  3.5512  0.2738 -0.8249
13241TIP3    H261139   4.380   3.498  10.520 -1.3149 -3.3324 -1.3902
13242TIP3   OH261140   0.062   3.312  15.535 -0.2698  0.7182  0.1161
13242TIP3    H161141   0.035   3.226  15.565  2.1791 -0.3521 -0.4685
13242TIP3    H261142   0.035   3.372  15.604 -0.0166 -0.8386  1.6216
13243TIP3   OH261143   6.535   3.021  13.536 -0.5044  0.4381  0.2155
13243TIP3    H161144   6.458   3.036  13.591 -1.3083 -0.0430 -0.7319
13243TIP3    H261145   6.513   3.063  13.452  1.5266  2.9675  0.8343
13244TIP3   OH261146   0.545   1.775   1.961  0.1457 -0.1654 -0.3062
13244TIP3    H161147   0.463   1.816   1.989  0.2219 -0.0834 -0.1986
13244TIP3    H261148   0.611   1.811   2.021  0.6428  1.4519 -1.7643
13245TIP3   OH261149   5.863   0.025   4.466 -0.0608 -0.0763  0.3795
13245TIP3    H161150   5.858  -0.070   4.480 -1.5752  0.1357  1.5998
13245TIP3    H261151   5.826   0.063   4.546  1.2822  1.5795  0.2572
13246TIP3   OH261152   0.776   2.977  12.383  0.1853 -0.4964 -0.1674
13246TIP3    H161153   0.766   3.051  12.444  1.2338 -0.0312 -0.5414
13246TIP3    H261154   0.708   2.915  12.410  0.9279 -0.5189  1.7815
13247TIP3   OH261155   2.225   4.672  14.842  0.0516  0.0011 -0.1071
13247TIP3    H161156   2.159   4.629  14.897  0.1050 -0.0074 -0.0501
13247TIP3    H261157   2.249   4.751  14.891 -0.0934  0.1292 -0.2415
13248TIP3   OH261158   3.627   4.061  16.284 -0.2642 -0.1755  0.1464
13248TIP3    H161159   3.539   4.080  16.252 -0.1694  1.0752  0.5484
13248TIP3    H261160   3.634   4.111  16.366  1.2307  0.7677 -0.5069
13249TIP3   OH261161   2.766   5.397  14.161  0.6462  0.1204 -0.1572
13249TIP3    H161162   2.817   5.323  14.128 -0.1964 -0.1877 -0.8062
13249TIP3    H261163   2.831   5.463  14.184  1.3083  0.1503 -1.9584
13250TIP3   OH261164   1.104   0.883   1.560  0.3308 -0.3226 -0.7327
13250TIP3    H161165   1.123   0.813   1.497  0.9995  0.8504 -1.9132
13250TIP3    H261166   1.173   0.948   1.544 -0.1132  0.4821  0.5014
13251TIP3   OH261167   4.291   2.784   5.807  0.7058 -0.2497 -0.2516
13251TIP3    H161168   4.232   2.803   5.734 -0.2871 -0.0781  0.5785
13251TIP3    H261169   4.355   2.856   5.804 -1.0367  1.4598  0.7822
13252TIP3   OH261170   6.734   0.219  13.404 -0.1767 -0.0304  0.0876
13252TIP3    H161171   6.808   0.159  13.409 -0.4628 -0.2741  1.7506
13252TIP3    H261172   6.658   0.166  13.427 -0.8824  0.2426 -1.4922
13253TIP3   OH261173   6.357   2.098   4.211  0.1216 -0.4662  0.2321
13253TIP3    H161174   6.305   2.121   4.135  0.2273  0.1835  0.3485
13253TIP3    H261175   6.407   2.022   4.184 -1.0858 -1.2775  0.2129
13254TIP3   OH261176   1.176   2.667   3.111 -0.0821 -0.5334 -0.0122
13254TIP3    H161177   1.175   2.761   3.127  3.1135 -0.4180  0.2438
13254TIP3    H261178   1.200   2.658   3.019  1.0194 -1.0309  0.3007
13255TIP3   OH261179   4.996   4.597   2.823 -0.2392  0.3133 -0.2249
13255TIP3    H161180   4.972   4.661   2.756  1.3171 -0.1015 -1.2258
13255TIP3    H261181   5.059   4.642   2.879 -0.7534  0.3232  0.3616
13256TIP3   OH261182   3.182   1.071   5.702  0.1942  0.0930  0.6729
13256TIP3    H161183   3.225   1.010   5.761 -0.2163 -0.1587  0.7166
13256TIP3    H261184   3.088   1.052   5.712 -0.0596  1.7327  1.8223
13257TIP3   OH261185   2.194   0.155  13.801 -0.6908  0.6104  0.0659
13257TIP3    H161186   2.247   0.221  13.757 -0.7129  1.1226  0.7744
13257TIP3    H261187   2.212   0.074  13.755 -1.8061  1.3656 -1.8104
13258TIP3   OH261188   1.425   1.199   4.859 -0.4293 -0.0507 -0.0510
13258TIP3    H161189   1.356   1.243   4.808 -0.8815  0.1898  0.7610
13258TIP3    H261190   1.492   1.266   4.869 -0.2730 -0.1439 -0.4503
13259TIP3   OH261191   3.938   2.166   2.569 -0.2882 -0.2657 -0.4473
13259TIP3    H161192   3.856   2.131   2.534 -0.3142  0.2601 -0.9160
13259TIP3    H261193   3.984   2.202   2.493  0.8319 -1.4282 -0.3549
13260TIP3   OH261194   3.199   3.334   4.004 -0.6334  0.1224 -0.2265
13260TIP3    H161195   3.247   3.417   4.014 -0.0707 -0.4913  3.3293
13260TIP3    H261196   3.252   3.270   4.051 -1.5402 -2.1430 -2.1071
13261TIP3   OH261197   5.108   1.407  17.274 -0.4418  0.0684  0.7247
13261TIP3    H161198   5.063   1.323  17.262  1.5892 -0.9589 -0.1463
13261TIP3    H261199   5.039   1.472  17.262 -1.6525 -1.3938 -0.8788
13262TIP3   OH261200   2.335   4.441  12.092 -0.1045 -0.1953  0.4439
13262TIP3    H161201   2.357   4.503  12.022  1.0806  0.1844  1.1179
13262TIP3    H261202   2.346   4.492  12.172  0.7646 -1.2406  1.0073
13263TIP3   OH261203   5.297   2.874  13.569  0.4097  0.1222  0.3642
13263TIP3    H161204   5.217   2.878  13.622 -0.1581  0.9595 -0.5323
13263TIP3    H261205   5.368   2.870  13.634 -0.3395 -0.5259  1.1732
13264TIP3   OH261206   6.531   5.992   2.555  0.9734  0.1357  0.4931
13264TIP3    H161207   6.551   6.032   2.470 -0.4557  1.4295  0.7240
13264TIP3    H261208   6.536   6.064   2.617 -1.8794  0.0631  0.8987
13265TIP3   OH261209   6.578   5.335   5.329 -0.1814  0.2966  0.3289
13265TIP3    H161210   6.575   5.430   5.321  0.5869  0.4466  1.5010
13265TIP3    H261211   6.596   5.303   5.240 -2.3729  1.0937 -0.4624
13266TIP3   OH261212   0.658   0.426  11.630  0.3795  0.9436  0.1367
13266TIP3    H161213   0.575   0.389  11.659 -0.9876  3.1825 -0.6292
13266TIP3    H261214   0.693   0.472  11.706  0.1305  1.2789  0.0509
13267TIP3   OH261215   3.120   0.304   2.191 -0.2786 -0.3562 -0.3373
13267TIP3    H161216   3.087   0.357   2.119  2.0775 -0.4856 -1.6163
13267TIP3    H261217   3.143   0.368   2.259 -0.0285  0.0150 -0.7663
13268TIP3   OH261218   2.571   1.727  14.530 -0.3570  0.3680 -0.4814
13268TIP3    H161219   2.666   1.734  14.528 -0.3608  0.8465  0.3700
13268TIP3    H261220   2.540   1.818  14.529 -0.7589  0.2517  0.4302
13269TIP3   OH261221   6.755   4.544   2.772 -0.4448  0.4006  0.2197
13269TIP3    H161222   6.662   4.523   2.764 -1.0316  2.5939  0.5123
13269TIP3    H261223   6.763   4.580   2.861  0.9684 -0.8925  0.6645
13270TIP3   OH261224   3.590   4.467   6.291 -0.0929  0.0820  0.1432
13270TIP3    H161225   3.524   4.513   6.344  0.7176  0.0031  1.2524
13270TIP3    H261226   3.668   4.523   6.296  0.2001 -0.2712 -0.4099
13271TIP3   OH261227   4.481   4.804   0.715 -0.1585 -0.5027 -0.1731
13271TIP3    H161228   4.544   4.869   0.747  0.8045 -1.2562 -0.5207
13271TIP3    H261229   4.403   4.820   0.768  0.1826  0.6812  0.0203
13272TIP3   OH261230   0.800   4.450  14.613 -0.2017 -0.2616  0.4119
13272TIP3    H161231   0.886   4.491  14.603 -0.8755  0.7729 -1.7644
13272TIP3    H261232   0.742   4.503  14.558 -1.4934 -3.0632 -1.1050
13273TIP3   OH261233   3.877   4.089  11.115  0.2545 -0.1678 -0.2063
13273TIP3    H161234   3.943   4.143  11.158  1.1517 -2.2195  1.1408
13273TIP3    H261235   3.796   4.141  11.119  1.3515  1.6168 -0.2506
13274TIP3   OH261236   4.302   4.714   3.101 -0.2924 -0.1932  0.0058
13274TIP3    H161237   4.316   4.681   3.189 -3.3845 -1.5752  0.1159
13274TIP3    H261238   4.233   4.780   3.110 -0.2990  0.0242 -1.3060
13275TIP3   OH261239   1.189   4.948   5.073 -0.2309  0.1501  0.0588
13275TIP3    H161240   1.248   4.996   5.015  0.7712 -1.6135 -0.4789
13275TIP3    H261241   1.137   4.894   5.014 -1.4688  0.6854  0.6286
13276TIP3   OH261242   6.512   0.500  10.654  0.2544  0.7114 -0.5678
13276TIP3    H161243   6.560   0.420  10.678  0.3696  0.7610 -0.6353
13276TIP3    H261244   6.471   0.478  10.570 -0.3370  0.4565 -0.2226
13277TIP3   OH261245   0.827   5.516   4.112  0.1002  0.2483 -0.0226
13277TIP3    H161246   0.822   5.441   4.052  2.4228  1.0977 -1.4451
13277TIP3    H261247   0.913   5.507   4.154 -0.1570  1.3931  0.7884
13278TIP3   OH261248   2.732   1.737   4.874 -0.1579 -0.1835  0.1357
13278TIP3    H161249   2.680   1.678   4.820  1.2588  0.0587 -1.5710
13278TIP3    H261250   2.775   1.680   4.938  0.6128 -0.9283 -1.0194
13279TIP3   OH261251   4.249   6.590   0.706 -0.6094 -0.2718 -0.3518
13279TIP3    H161252   4.247   6.629   0.619  1.4635  2.1183  0.5616
13279TIP3    H261253   4.333   6.545   0.712 -0.8894 -0.7411  0.3239
13280TIP3   OH261254   5.052   4.511  16.285  0.3959  0.2116 -0.2859
13280TIP3    H161255   4.984   4.453  16.252  0.4168 -0.2395  0.4309
13280TIP3    H261256   5.067   4.574  16.215  0.5186 -0.7672 -1.1628
13281TIP3   OH261257   1.004   4.491   4.845  0.6308  0.4218 -0.9993
13281TIP3    H161258   0.955   4.448   4.775  0.1967 -0.7456 -0.0053
13281TIP3    H261259   0.946   4.487   4.921  2.1119 -0.7148  0.1221
13282TIP3   OH261260   0.323   1.521   3.131 -0.2222  0.7652  0.0112
13282TIP3    H161261   0.353   1.486   3.215 -1.5623  0.0821  0.2449
13282TIP3    H261262   0.233   1.489   3.123  0.1511  0.0523 -2.1039
13283TIP3   OH261263   2.445   2.123  11.004  0.3248 -0.0736  0.3840
13283TIP3    H161264   2.499   2.086  10.934  1.1721 -1.3848  1.6648
13283TIP3    H261265   2.410   2.204  10.968  1.2604 -0.3861 -1.3119
13284TIP3   OH261266   0.725   2.511  12.253  0.1296  0.3159  0.2197
13284TIP3    H161267   0.713   2.526  12.159  0.9266 -1.5076 -0.2193
13284TIP3    H261268   0.779   2.585  12.283 -0.2383  0.9768 -0.7268
13285TIP3   OH261269   4.650   0.439   0.296 -0.1575  0.3048  0.4431
13285TIP3    H161270   4.738   0.468   0.321  0.8895 -0.0623 -2.3401
13285TIP3    H261271   4.638   0.355   0.341  1.5181 -0.2736 -0.0949
13286TIP3   OH261272   3.471   3.347  13.839 -0.3144 -0.0614 -0.2126
13286TIP3    H161273   3.500   3.256  13.838 -0.1743 -0.0140 -0.7710
13286TIP3    H261274   3.435   3.361  13.751 -1.0509  0.1918  0.1280
13287TIP3   OH261275   1.061   2.196  16.872 -0.0221  0.2149  0.1693
13287TIP3    H161276   1.073   2.119  16.817  0.4326  0.3108  0.1333
13287TIP3    H261277   1.145   2.241  16.870 -0.2483  0.6533  0.2868
13288TIP3   OH261278   1.549   3.184  11.040  0.1747  0.8074 -0.2987
13288TIP3    H161279   1.481   3.117  11.048 -1.5562  1.9768 -3.4666
13288TIP3    H261280   1.621   3.140  10.994 -0.6172  0.8552 -1.6241
13289TIP3   OH261281   2.059   2.818  16.621 -0.5816  0.2445  0.4752
13289TIP3    H161282   2.016   2.799  16.538 -3.4302  1.8903  1.4118
13289TIP3    H261283   2.004   2.774  16.687  0.0111  1.1993  1.6535
13290TIP3   OH261284   6.670   0.903   2.370 -0.1647  0.0111 -0.0264
13290TIP3    H161285   6.589   0.877   2.413  0.5040 -0.0314  1.2666
13290TIP3    H261286   6.658   0.996   2.348 -0.7380 -0.1232 -0.2777
13291TIP3   OH261287   1.165   6.692   3.158 -0.1389 -0.4313 -0.4602
13291TIP3    H161288   1.121   6.643   3.228 -2.4659  0.1598 -1.4057
13291TIP3    H261289   1.099   6.698   3.089  1.0727  1.5475 -1.5150
13292TIP3   OH261290   6.702   5.700  12.243  0.1473  0.0323 -0.1053
13292TIP3    H161291   6.782   5.749  12.225 -0.2321  0.2229 -1.3945
13292TIP3    H261292   6.680   5.659  12.159  1.2618 -3.6220  1.2080
13293TIP3   OH261293   1.431   5.201  12.838 -0.2433 -0.0520  0.1111
13293TIP3    H161294   1.462   5.278  12.791 -0.7183  0.2091  0.2269
13293TIP3    H261295   1.428   5.228  12.930  3.1735 -1.2936  0.7617
13294TIP3   OH261296   5.489   1.356  17.276  0.5055  0.6427 -0.0145
13294TIP3    H161297   5.487   1.421  17.206  1.5763 -0.0143 -0.6870
13294TIP3    H261298   5.524   1.403  17.351  2.5127  0.5668 -0.8432
13295TIP3   OH261299   6.173   3.568   2.497 -0.2010  0.4675 -0.2977
13295TIP3    H161300   6.246   3.600   2.550 -0.9744  2.0276 -0.1119
13295TIP3    H261301   6.156   3.639   2.435 -4.2316  2.1649  2.3325
13296TIP3   OH261302   0.953   1.698  13.368  0.2056 -0.0174  0.5604
13296TIP3    H161303   0.905   1.629  13.322 -0.4495 -0.7089  2.1949
13296TIP3    H261304   0.895   1.774  13.365 -0.1171 -0.2495  0.7550
13297TIP3   OH261305   0.692   0.626   4.471  0.2548 -1.0350  0.3527
13297TIP3    H161306   0.729   0.546   4.507  1.6891 -0.0344  1.2203
13297TIP3    H261307   0.633   0.658   4.539  0.7841 -0.6271  0.6295
13298TIP3   OH261308   0.297   0.550   4.649  0.1333 -0.2441 -0.0789
13298TIP3    H161309   0.205   0.537   4.623  0.0001  0.1306  0.1973
13298TIP3    H261310   0.308   0.645   4.650  0.6064 -0.2956 -0.3889
13299TIP3   OH261311   1.218   4.632  11.593  0.0862  0.1750  0.5242
13299TIP3    H161312   1.137   4.683  11.586 -0.7903 -1.2376  0.1167
13299TIP3    H261313   1.256   4.636  11.506  0.2117  0.4156  0.5867
13300TIP3   OH261314   6.374   2.354   6.008 -0.0174 -0.3244  0.3352
13300TIP3    H161315   6.312   2.424   6.027 -0.8275 -1.4952  2.3712
13300TIP3    H261316   6.320   2.283   5.974  0.9609  0.4086 -3.1469
13301TIP3   OH261317   4.620   0.385   2.331  0.0510 -0.2752 -0.2610
13301TIP3    H161318   4.538   0.373   2.379  0.2659  0.2159  0.2388
13301TIP3    H261319   4.629   0.480   2.322  0.7827 -0.3012  0.0858
13302TIP3   OH261320   2.813   1.262  13.343  0.1434 -0.5036  0.3905
13302TIP3    H161321   2.896   1.218  13.324 -0.6833 -2.0066  0.1616
13302TIP3    H261322   2.747   1.193  13.338 -1.3746  0.9674 -1.2051
13303TIP3   OH261323   0.772   1.123   3.739 -0.2642 -0.7944 -0.0039
13303TIP3    H161324   0.860   1.148   3.711  0.3375 -1.8566  0.8637
13303TIP3    H261325   0.768   1.145   3.832 -0.5721 -1.5907  0.1858
13304TIP3   OH261326   1.011   6.029  10.611  0.0255  0.0752  0.6201
13304TIP3    H161327   1.077   5.995  10.551 -0.7942 -0.1696 -0.1562
13304TIP3    H261328   1.061   6.054  10.689  1.0807  0.2776 -0.1006
13305TIP3   OH261329   4.689   0.821  15.316  1.0090  0.0715  0.4072
13305TIP3    H161330   4.781   0.799  15.302  0.9572 -0.6417  1.0924
13305TIP3    H261331   4.643   0.737  15.311  0.5329  0.2816  1.0913
13306TIP3   OH261332   3.722   5.787   6.859 -0.0705 -0.2576 -0.3576
13306TIP3    H161333   3.769   5.734   6.924  3.8252  1.2655 -1.6360
13306TIP3    H261334   3.738   5.743   6.776 -1.4464  0.0589 -0.8144
13307TIP3   OH261335   1.543   3.788  14.248  0.4089 -0.1913  0.4797
13307TIP3    H161336   1.618   3.762  14.195  0.3681  0.1517  0.2576
13307TIP3    H261337   1.513   3.706  14.288 -0.7267 -0.7982 -1.4992
13308TIP3   OH261338   0.675   5.237  16.449 -0.5742 -0.2693  0.1268
13308TIP3    H161339   0.606   5.213  16.511 -0.9714 -0.4136 -0.3635
13308TIP3    H261340   0.727   5.302  16.496 -0.7282 -0.5477  0.6967
13309TIP3   OH261341   6.372   0.738  15.285 -0.1389 -0.4356 -0.6546
13309TIP3    H161342   6.369   0.817  15.231  2.5430 -2.2034 -3.7084
13309TIP3    H261343   6.310   0.678  15.244 -1.0083 -0.4942  0.6956
13310TIP3   OH261344   5.632   5.773  14.721 -0.3728 -0.3431  0.2610
13310TIP3    H161345   5.724   5.767  14.694 -0.1509 -1.4588  1.2204
13310TIP3    H261346   5.623   5.709  14.791 -0.9590  2.3715  2.8547
13311TIP3   OH261347   5.745   0.978  16.574 -0.0161 -0.1028  0.3912
13311TIP3    H161348   5.715   1.004  16.487 -0.3754 -0.2337  0.4760
13311TIP3    H261349   5.751   0.883  16.569 -2.3222 -0.3364  1.2273
13312TIP3   OH261350   0.614   1.793  16.030 -0.0766 -0.3581 -0.0476
13312TIP3    H161351   0.551   1.805  16.101 -1.2736  1.5893 -1.3406
13312TIP3    H261352   0.686   1.744  16.069 -1.9553 -1.8687  1.7417
13313TIP3   OH261353   2.339   3.804   5.863 -0.7008  0.1644  0.3559
13313TIP3    H161354   2.360   3.793   5.770  1.5083 -0.4657  0.8589
13313TIP3    H261355   2.291   3.724   5.886  0.6938 -0.7504  0.2152
13314TIP3   OH261356   3.753   5.180  11.857  0.3768 -0.4181  0.5202
13314TIP3    H161357   3.837   5.138  11.840  0.3466 -1.1285  2.0063
13314TIP3    H261358   3.771   5.241  11.929 -0.7251 -1.8429  2.0557
13315TIP3   OH261359   2.270   0.763   5.839  0.6442  0.2620 -0.4245
13315TIP3    H161360   2.361   0.781   5.813  0.6438  1.3817  0.2892
13315TIP3    H261361   2.218   0.788   5.763  0.8775  0.3466 -0.5580
13316TIP3   OH261362   3.690   4.353  14.920 -0.0466  0.3263  0.5416
13316TIP3    H161363   3.702   4.314  15.007 -4.5866  0.2109  1.3659
13316TIP3    H261364   3.602   4.390  14.922  0.4542  2.3191 -3.3763
13317TIP3   OH261365   4.296   4.158  13.954  0.2312 -0.2208  0.5413
13317TIP3    H161366   4.258   4.071  13.967  1.5018 -0.9557 -0.3981
13317TIP3    H261367   4.350   4.148  13.876 -1.3293  2.0184 -0.9432
13318TIP3   OH261368   5.487   6.702   5.035 -0.3284 -0.3164  0.0719
13318TIP3    H161369   5.393   6.698   5.020 -0.4319  1.0171  0.2683
13318TIP3    H261370   5.523   6.732   4.952 -0.0284 -1.2007 -0.1241
13319TIP3   OH261371   0.762   6.211   2.912 -0.4622  0.0821  0.0877
13319TIP3    H161372   0.847   6.174   2.888 -0.7295 -1.5956  1.5501
13319TIP3    H261373   0.759   6.205   3.007 -2.2224  0.1043  0.0590
13320TIP3   OH261374   1.471   0.358   3.215 -0.4330  0.0569  0.1613
13320TIP3    H161375   1.407   0.302   3.172 -1.4214  0.8968  0.5052
13320TIP3    H261376   1.424   0.439   3.232  0.8129  0.8112  0.1434
13321TIP3   OH261377   3.777   5.071   0.222  0.3419  0.1422  0.2135
13321TIP3    H161378   3.743   4.987   0.255 -0.0731  0.9911  2.0689
13321TIP3    H261379   3.699   5.117   0.191  0.6077 -0.2581 -1.0826
13322TIP3   OH261380   6.725   5.605   2.164  0.3979 -0.0191  0.9222
13322TIP3    H161381   6.743   5.688   2.208 -1.0854 -0.3619  2.2662
13322TIP3    H261382   6.695   5.630   2.077  0.2808  0.8475  1.2042
13323TIP3   OH261383   1.394   2.231  12.141 -0.2239 -0.3433  0.4414
13323TIP3    H161384   1.308   2.214  12.102  0.6637 -0.9151 -1.4099
13323TIP3    H261385   1.382   2.310  12.193 -1.3565  0.9645 -1.6668
13324TIP3   OH261386   1.622   3.989   0.383 -0.1920  0.8624  0.0370
13324TIP3    H161387   1.612   3.934   0.460 -0.4006  0.2091 -0.4482
13324TIP3    H261388   1.632   4.078   0.418  0.0640  0.5321  0.8217
13325TIP3   OH261389   6.654   3.103   6.416 -0.2731  0.6882 -0.2240
13325TIP3    H161390   6.581   3.116   6.476 -0.7818  0.8427 -0.8697
13325TIP3    H261391   6.695   3.190   6.409  0.9468  0.2783  1.3576
13326TIP3   OH261392   6.240   4.687   3.094  0.2404 -0.4119  0.0699
13326TIP3    H161393   6.208   4.720   3.178 -0.0004  1.6182 -0.7484
13326TIP3    H261394   6.320   4.737   3.077 -0.2874  0.0229 -1.3684
13327TIP3   OH261395   2.146   0.366   2.806 -0.0238  0.2274  0.1980
13327TIP3    H161396   2.192   0.395   2.727 -0.9397 -0.8284 -0.7650
13327TIP3    H261397   2.059   0.405   2.799 -0.4242 -0.6575  0.1925
13328TIP3   OH261398   4.082   0.144  12.948  0.0571  0.1214 -0.0439
13328TIP3    H161399   4.088   0.082  13.021 -0.1945 -0.0665 -0.1838
13328TIP3    H261400   3.990   0.145  12.924  0.2758 -0.5003 -0.9537
13329TIP3   OH261401   2.650   6.227   2.306 -0.5335  0.1181  0.2799
13329TIP3    H161402   2.619   6.143   2.271 -0.3385 -1.3743  3.3853
13329TIP3    H261403   2.570   6.272   2.332 -0.5955  0.6542 -0.7835
13330TIP3   OH261404   6.688   6.642  15.482 -0.0273  0.4496 -0.4644
13330TIP3    H161405   6.613   6.699  15.464 -0.6160 -0.9054 -2.5593
13330TIP3    H261406   6.737   6.639  15.400  0.8694 -0.8073  0.0770
13331TIP3   OH261407   6.402   4.626  14.388  0.6833 -0.5413 -0.0499
13331TIP3    H161408   6.368   4.628  14.298 -1.4914 -0.1864  0.7269
13331TIP3    H261409   6.401   4.533  14.412  0.1081 -0.5241  0.0074
13332TIP3   OH261410   4.446   5.648   5.267 -0.8190 -0.1510  0.0335
13332TIP3    H161411   4.449   5.718   5.333  0.5102  2.2795 -2.4041
13332TIP3    H261412   4.353   5.641   5.244 -0.9838  0.8343  0.3382
13333TIP3   OH261413   3.757   5.535  17.126 -0.2619 -0.1473  0.3265
13333TIP3    H161414   3.789   5.623  17.105 -1.4362  0.1459 -0.3024
13333TIP3    H261415   3.836   5.486  17.150  1.1177 -0.2217 -3.6308
13334TIP3   OH261416   6.572   1.852   1.340 -0.2933 -0.6865  0.2605
13334TIP3    H161417   6.657   1.858   1.384  0.0737 -1.1821 -0.3642
13334TIP3    H261418   6.509   1.840   1.412  0.2946 -1.4873  0.6571
13335TIP3   OH261419   1.754   2.868  15.642 -0.5772 -0.2927 -0.3847
13335TIP3    H161420   1.820   2.878  15.710 -1.6683  0.4089  0.6078
13335TIP3    H261421   1.710   2.953  15.637  0.4856  0.2167 -3.0976
13336TIP3   OH261422   0.549   2.961  11.681  0.2879 -0.5820 -0.0278
13336TIP3    H161423   0.479   2.939  11.743  0.2154 -0.5502 -0.0980
13336TIP3    H261424   0.590   3.039  11.718  0.1222 -0.4508 -0.1162
13337TIP3   OH261425   0.514   2.005   1.523 -0.6338  0.7406 -0.4694
13337TIP3    H161426   0.536   2.084   1.573 -1.9005  1.6488 -1.2866
13337TIP3    H261427   0.450   1.959   1.578  1.8017 -1.0155  1.1088
13338TIP3   OH261428   3.642   3.669   0.478 -0.4529 -0.0878  0.1911
13338TIP3    H161429   3.603   3.662   0.390  2.9178 -0.1700 -1.4706
13338TIP3    H261430   3.632   3.761   0.502  2.0494  0.9450 -2.2087
13339TIP3   OH261431   2.814   4.393  13.735 -0.1283 -0.2329 -0.0633
13339TIP3    H161432   2.792   4.367  13.646 -0.1024 -1.0788  0.1734
13339TIP3    H261433   2.774   4.327  13.791  1.7206 -0.9820  0.4434
13340TIP3   OH261434   5.879   4.176  15.963 -0.6936  0.5112  0.4221
13340TIP3    H161435   5.884   4.223  15.879 -2.4501  0.0329  0.0079
13340TIP3    H261436   5.950   4.113  15.960  1.0587  2.3677  0.5362
13341TIP3   OH261437   4.753   4.941   0.494  0.0164  0.3028  0.7247
13341TIP3    H161438   4.682   4.878   0.487 -0.5163  0.7804  1.6440
13341TIP3    H261439   4.825   4.892   0.534  1.5849 -1.2322 -3.4183
13342TIP3   OH261440   1.911   4.001  15.164 -0.0096 -0.6936 -0.0030
13342TIP3    H161441   1.980   3.936  15.151  0.8188 -0.4295  2.5397
13342TIP3    H261442   1.866   4.005  15.080  2.7473 -1.2256 -1.6374
13343TIP3   OH261443   0.052   2.533  12.650 -0.2622  0.2625 -0.3303
13343TIP3    H161444   0.044   2.564  12.740 -0.6935 -0.5458 -0.0837
13343TIP3    H261445   0.142   2.553  12.625 -0.2671  0.8712  0.1360
13344TIP3   OH261446   3.471   6.507   1.682  0.0632 -0.1847 -0.3004
13344TIP3    H161447   3.561   6.533   1.662 -0.0407  1.6379  1.3080
13344TIP3    H261448   3.480   6.430   1.738  0.6868  0.4090  0.4469
13345TIP3   OH261449   3.733   2.149  16.501 -0.5787 -0.4247  0.2805
13345TIP3    H161450   3.710   2.083  16.436  0.1821 -0.2552 -0.1615
13345TIP3    H261451   3.648   2.183  16.530 -0.9171 -0.0661 -1.0616
13346TIP3   OH261452   5.164   4.831  15.533 -0.1809 -0.0272  0.1019
13346TIP3    H161453   5.230   4.763  15.544 -0.6529 -0.2817  1.4466
13346TIP3    H261454   5.080   4.785  15.536 -0.4682  0.4427 -0.4041
13347TIP3   OH261455   3.882   3.700   0.601  0.3112 -0.1397  0.9649
13347TIP3    H161456   3.796   3.674   0.566  1.3169 -1.4905 -0.6556
13347TIP3    H261457   3.875   3.684   0.695 -1.3735  0.2852  0.9469
13348TIP3   OH261458   5.135   5.223  13.690 -0.0571  0.3009  0.0247
13348TIP3    H161459   5.173   5.291  13.745 -2.0999  2.0601 -0.6008
13348TIP3    H261460   5.211   5.185  13.644  1.3461  0.7827  1.8305
13349TIP3   OH261461   1.626   0.897   5.461  0.5276  0.0652  0.4723
13349TIP3    H161462   1.563   0.849   5.515  1.7592 -0.8256  1.1630
13349TIP3    H261463   1.631   0.984   5.501 -0.2883  0.1596  0.3805
13350TIP3   OH261464   6.513   0.093  13.662 -0.3594  0.4302 -0.1814
13350TIP3    H161465   6.457   0.161  13.624  2.5589  2.3031 -1.4406
13350TIP3    H261466   6.491   0.013  13.614 -0.4165  1.6222 -2.2139
13351TIP3   OH261467   1.257   4.096   5.611 -0.3859  0.8310  0.1645
13351TIP3    H161468   1.253   4.184   5.649  1.9702  0.5518  1.2713
13351TIP3    H261469   1.190   4.046   5.658 -1.6163  1.9434 -0.3426
13352TIP3   OH261470   2.714   4.180  16.411  0.1572  0.7326 -0.1256
13352TIP3    H161471   2.657   4.222  16.346 -0.2303  2.6103  1.3318
13352TIP3    H261472   2.797   4.167  16.365 -0.9841 -0.7915 -1.8769
13353TIP3   OH261473   5.759   1.651   2.881  0.5703 -0.3830 -0.3813
13353TIP3    H161474   5.691   1.679   2.942  0.4721 -1.3603 -0.0267
13353TIP3    H261475   5.719   1.658   2.795 -0.3451 -1.8800 -0.1137
13354TIP3   OH261476   2.070   5.715  16.803  0.5042 -0.2502 -0.4966
13354TIP3    H161477   2.163   5.692  16.812  0.6450 -0.2868 -1.7395
13354TIP3    H261478   2.039   5.727  16.892  2.2937  2.0682 -0.0812
13355TIP3   OH261479   6.051   1.359   2.014 -0.5155 -0.1843  0.0496
13355TIP3    H161480   6.037   1.378   2.107 -0.2676  2.2524 -0.3482
13355TIP3    H261481   6.144   1.376   2.000 -0.0322 -2.7226 -0.2361
13356TIP3   OH261482   0.018   1.017   4.856  0.3235  0.5422  0.1727
13356TIP3    H161483   0.052   1.052   4.939  0.3113 -2.3732  1.5416
13356TIP3    H261484  -0.074   0.997   4.874  0.3940 -0.3924 -0.4054
13357TIP3   OH261485   5.548   1.368   3.509 -0.0397  0.6547 -0.0865
13357TIP3    H161486   5.530   1.282   3.549  1.9158  1.5144  3.0129
13357TIP3    H261487   5.470   1.420   3.530 -0.8137 -0.0421 -1.1264
13358TIP3   OH261488   0.515   1.980  11.719  0.1299  0.4209  0.1025
13358TIP3    H161489   0.576   1.969  11.646 -1.7856  0.6357 -1.6604
13358TIP3    H261490   0.444   1.918  11.700 -0.0149 -0.1745  2.3238
13359TIP3   OH261491   5.133   5.418  14.307 -0.3856 -0.3968  0.5289
13359TIP3    H161492   5.160   5.329  14.329 -1.1197 -0.8750 -0.4379
13359TIP3    H261493   5.178   5.473  14.372  1.7418 -1.2586 -0.1060
13360TIP3   OH261494   0.215   4.469   5.007  0.0926 -0.5740 -0.2639
13360TIP3    H161495   0.267   4.410   5.061  2.5621  0.2931 -1.5344
13360TIP3    H261496   0.212   4.551   5.058  0.3704 -0.4929 -0.3743
13361TIP3   OH261497   3.204   1.505  15.994  0.1988  0.2286  0.4259
13361TIP3    H161498   3.279   1.531  15.939 -1.0106  1.5691 -0.6561
13361TIP3    H261499   3.187   1.582  16.048 -1.6465  0.7267 -0.7853
13362TIP3   OH261500   0.337   4.744  17.065  0.3088  0.3935  0.0837
13362TIP3    H161501   0.400   4.804  17.105  1.1247 -0.0362 -0.5186
13362TIP3    H261502   0.256   4.794  17.059  0.7509  1.1534  0.3581
13363TIP3   OH261503   4.684   1.216   5.792 -0.2139 -0.7294  0.8657
13363TIP3    H161504   4.631   1.217   5.871 -1.2494  1.8054  0.2532
13363TIP3    H261505   4.757   1.276   5.812  0.5854 -1.5648  0.5321
13364TIP3   OH261506   3.746   6.216   2.760 -0.0922 -0.6155 -0.0211
13364TIP3    H161507   3.748   6.281   2.830  1.2926  0.3851 -0.9200
13364TIP3    H261508   3.669   6.162   2.779 -1.6718  1.6500  0.4553
13365TIP3   OH261509   2.357   5.826  10.623 -0.1443  0.1329  0.3531
13365TIP3    H161510   2.305   5.765  10.572 -1.6033  0.5481  1.2821
13365TIP3    H261511   2.403   5.880  10.557 -0.5239 -0.5427 -0.4777
13366TIP3   OH261512   2.262   4.947  11.399 -0.0302 -0.6007 -0.1764
13366TIP3    H161513   2.187   4.901  11.437  0.1605 -1.0238 -0.3179
13366TIP3    H261514   2.223   5.024  11.357 -0.2764 -0.2559  0.6418
13367TIP3   OH261515   5.515   4.785  15.280  0.0142 -0.3252  0.1332
13367TIP3    H161516   5.445   4.765  15.219 -0.2207 -1.2025  0.6730
13367TIP3    H261517   5.589   4.732  15.251 -0.1396 -0.8478  0.6859
13368TIP3   OH261518   3.383   5.967  14.110  0.1625  0.3016  0.3727
13368TIP3    H161519   3.373   5.979  14.204  0.9455 -1.9079  0.8177
13368TIP3    H261520   3.416   5.877  14.101 -1.2999 -0.0912 -2.0892
13369TIP3   OH261521   2.593   1.003   3.779 -0.0591  0.4949 -0.6380
13369TIP3    H161522   2.544   1.082   3.802  0.7875  0.7637  0.3417
13369TIP3    H261523   2.570   0.940   3.848 -0.7643 -0.1434 -1.4392
13370TIP3   OH261524   0.153   0.822   5.242  0.7031  0.3505  0.1624
13370TIP3    H161525   0.228   0.776   5.279  1.5601  0.8169 -0.9320
13370TIP3    H261526   0.163   0.812   5.147 -0.6500  0.3844 -0.0009
13371TIP3   OH261527   5.806   2.007  16.028  0.0028 -0.2413  0.6011
13371TIP3    H161528   5.722   2.048  16.007  0.1523  0.3227  1.0781
13371TIP3    H261529   5.797   1.917  15.995 -0.0187  0.3866 -1.2069
13372TIP3   OH261530   3.044   1.035  14.743  0.4458  0.4468  0.0481
13372TIP3    H161531   3.093   1.000  14.668  1.2315 -0.1106  0.8044
13372TIP3    H261532   3.105   1.028  14.817 -0.9765 -0.8270  1.1570
13373TIP3   OH261533   2.228   6.477   0.549  0.3483  0.2588 -0.7427
13373TIP3    H161534   2.242   6.568   0.523 -1.2818  0.3270 -1.4790
13373TIP3    H261535   2.295   6.428   0.501  0.6917  0.9685 -1.0037
13374TIP3   OH261536   2.154   1.195   0.983 -0.8492  0.0385  0.0052
13374TIP3    H161537   2.238   1.230   0.954 -0.5781 -1.6999 -1.4372
13374TIP3    H261538   2.136   1.241   1.066 -0.5895  3.5824 -1.7120
13375TIP3   OH261539   1.931   5.349  15.711  0.2617  0.2075 -0.1242
13375TIP3    H161540   1.864   5.298  15.757  0.1213 -0.2672 -0.8498
13375TIP3    H261541   1.882   5.405  15.652  0.5087 -0.6649 -1.1970
13376TIP3   OH261542   2.190   3.881  15.116 -0.2715 -0.4180  0.4498
13376TIP3    H161543   2.264   3.831  15.081 -0.1904 -0.0106  0.0394
13376TIP3    H261544   2.225   3.969  15.131 -0.1785 -0.6727  1.9678
13377TIP3   OH261545   6.295   0.292  15.936  0.6643 -0.0680 -0.0152
13377TIP3    H161546   6.349   0.349  15.991  0.1182  1.4066 -0.9432
13377TIP3    H261547   6.234   0.250  15.997  0.4283  1.1177  0.5933
13378TIP3   OH261548   6.434   1.070  17.213 -0.7113  0.3216  0.2816
13378TIP3    H161549   6.399   1.105  17.132 -0.6466  1.4824  0.7274
13378TIP3    H261550   6.412   0.977  17.212 -0.7739  0.3399 -1.0170
13379TIP3   OH261551   0.524   2.168  16.650 -0.3152 -0.8387  0.1516
13379TIP3    H161552   0.454   2.138  16.593 -0.3806  1.7751 -1.3315
13379TIP3    H261553   0.542   2.095  16.708 -3.8112 -1.8277  0.1658
13380TIP3   OH261554   2.248   3.883  13.682  0.0406 -0.0130 -0.0923
13380TIP3    H161555   2.180   3.878  13.749 -0.4106 -0.4489 -0.5785
13380TIP3    H261556   2.328   3.853  13.726 -0.7424 -2.8102 -0.4207
13381TIP3   OH261557   0.713   6.201  13.039  0.3282  0.0183  0.2656
13381TIP3    H161558   0.692   6.126  12.984  0.3907  1.8633 -2.4676
13381TIP3    H261559   0.642   6.204  13.103 -1.1407 -0.8425 -1.2377
13382TIP3   OH261560   5.455   2.511  11.780 -0.1490  0.0827 -0.3825
13382TIP3    H161561   5.516   2.580  11.753 -0.1647  0.9215  1.5522
13382TIP3    H261562   5.499   2.429  11.756  0.6522  0.7227 -1.1722
13383TIP3   OH261563   6.286   6.578  12.745 -0.1942  0.2773  0.1622
13383TIP3    H161564   6.276   6.531  12.828  0.4379 -0.5936 -0.2378
13383TIP3    H261565   6.353   6.644  12.763  3.3391 -2.7101 -0.6952
13384TIP3   OH261566   2.753   3.880  17.072 -0.1842  0.3513  0.0871
13384TIP3    H161567   2.717   3.866  16.985  1.5325  0.0649 -0.6218
13384TIP3    H261568   2.743   3.974  17.087 -0.9560  0.3218 -0.1763
13385TIP3   OH261569   0.045   4.437   1.889 -0.3020 -0.1279  0.7296
13385TIP3    H161570  -0.007   4.482   1.822  0.1615 -0.4014  0.1786
13385TIP3    H261571   0.024   4.345   1.878  0.5449 -0.2786  0.2731
13386TIP3   OH261572   5.417   3.967  15.998  0.6559  0.5938 -0.1743
13386TIP3    H161573   5.433   3.920  16.080 -0.7594  0.7861  0.2458
13386TIP3    H261574   5.322   3.963  15.987  0.6164  2.4043 -0.7082
13387TIP3   OH261575   3.641   3.671   0.165  0.3757  0.2998  0.1203
13387TIP3    H161576   3.573   3.720   0.118  0.8387  1.9560  1.0948
13387TIP3    H261577   3.709   3.656   0.099  0.6434  1.8550 -0.0013
13388TIP3   OH261578   5.145   3.610  13.006 -0.1893  0.1202 -0.2451
13388TIP3    H161579   5.071   3.616  13.067 -0.2882  1.5272 -0.4674
13388TIP3    H261580   5.220   3.586  13.060 -0.5813 -0.1629  0.1740
13389TIP3   OH261581   2.109   0.549   0.590  0.2491  0.2742 -0.6855
13389TIP3    H161582   2.058   0.470   0.605  0.6818  0.0379 -0.4096
13389TIP3    H261583   2.093   0.572   0.499 -0.5148  0.3296 -0.5378
13390TIP3   OH261584   5.074   4.828   2.578 -0.5770  0.2245  0.1804
13390TIP3    H161585   5.079   4.849   2.485 -3.4678 -0.0013 -0.1026
13390TIP3    H261586   5.146   4.767   2.593  0.4281  0.8759 -1.6967
13391TIP3   OH261587   2.874   6.726  13.765 -0.4714  0.1940 -0.1052
13391TIP3    H161588   2.965   6.743  13.739 -0.0131  2.0228  2.3722
13391TIP3    H261589   2.878   6.643  13.812  0.7680  1.9740  3.2582
13392TIP3   OH261590   1.471   1.810   0.547 -0.3557  0.6230 -0.2900
13392TIP3    H161591   1.490   1.717   0.542  1.8297  1.0323 -0.5701
13392TIP3    H261592   1.391   1.816   0.600  0.3063 -1.3120  1.0184
13393TIP3   OH261593   0.742   5.651   2.048 -0.3969  0.3963 -0.2245
13393TIP3    H161594   0.777   5.737   2.072  0.9156  0.1292 -1.0866
13393TIP3    H261595   0.818   5.601   2.020 -1.0775 -1.2005  0.6419
13394TIP3   OH261596   4.059   3.584  14.106  0.1885 -0.1348  0.5335
13394TIP3    H161597   3.996   3.616  14.042  0.4033  0.6891  0.7241
13394TIP3    H261598   4.101   3.663  14.140  2.8536 -0.7597 -1.1186
13395TIP3   OH261599   2.474   4.679   3.737  0.1166 -0.6224 -1.2609
13395TIP3    H161600   2.554   4.726   3.759  0.4372 -1.8374  0.3191
13395TIP3    H261601   2.495   4.635   3.654 -0.1249  1.7270 -2.6597
13396TIP3   OH261602   4.613   6.088   4.348  0.1129  0.3289  0.2777
13396TIP3    H161603   4.694   6.102   4.298 -0.4888  0.4059 -0.6815
13396TIP3    H261604   4.638   6.023   4.414 -0.1508 -3.3275 -2.9133
13397TIP3   OH261605   5.180   0.530  13.980  0.0995 -0.5688 -0.2967
13397TIP3    H161606   5.119   0.583  13.929  0.3950 -2.1776 -2.4824
13397TIP3    H261607   5.125   0.463  14.020  0.1262 -0.6001 -0.3122
13398TIP3   OH261608   5.128   5.649   1.810  0.5248 -0.0035 -0.1009
13398TIP3    H161609   5.107   5.628   1.900 -0.5997 -1.0716 -0.5836
13398TIP3    H261610   5.151   5.565   1.770  2.1974  0.6113 -0.5347
13399TIP3   OH261611   1.136   5.008   2.532  0.6176  0.4865  0.0240
13399TIP3    H161612   1.063   4.948   2.545  1.5276 -0.5264  0.6156
13399TIP3    H261613   1.110   5.087   2.579 -0.8797  0.8471 -1.3027
13400TIP3   OH261614   3.424   6.648   1.927  0.1989  0.3723 -0.2591
13400TIP3    H161615   3.444   6.596   1.849  0.4414  1.8376 -1.1984
13400TIP3    H261616   3.329   6.662   1.923  0.1914  0.3419 -0.2040
13401TIP3   OH261617   2.889   3.770  11.436  0.0225  0.0944 -0.4074
13401TIP3    H161618   2.830   3.694  11.438 -0.9951  0.8680  1.2831
13401TIP3    H261619   2.910   3.782  11.343 -0.9237 -1.3721 -0.8489
13402TIP3   OH261620   3.995   0.292   5.413  0.1489  0.7406 -0.0835
13402TIP3    H161621   4.009   0.280   5.507  0.8637 -1.1886 -0.3935
13402TIP3    H261622   3.900   0.300   5.405 -0.0396 -0.3709  0.7087
13403TIP3   OH261623   2.596   2.244  17.044 -0.5505  0.0284  0.2444
13403TIP3    H161624   2.538   2.181  17.087  1.5430 -1.3300  1.3050
13403TIP3    H261625   2.638   2.291  17.117  1.0650 -0.4118 -0.3567
13404TIP3   OH261626   4.467   2.804  13.156  0.0318  0.1775 -0.0114
13404TIP3    H161627   4.432   2.739  13.095 -0.4133  1.3540 -1.0704
13404TIP3    H261628   4.562   2.798  13.145  0.2745 -2.6804  2.5027
13405TIP3   OH261629   3.300   3.281   3.351 -0.0793  0.3859  0.0059
13405TIP3    H161630   3.305   3.367   3.310 -1.6094 -0.2570 -1.6698
13405TIP3    H261631   3.207   3.261   3.355  0.0118  0.0705  3.2792
13406TIP3   OH261632   6.575   0.918  14.692 -0.2520 -0.0376 -0.3503
13406TIP3    H161633   6.524   0.856  14.640  0.2040  0.2492 -1.1578
13406TIP3    H261634   6.662   0.879  14.697 -0.2424  0.0321  0.0376
13407TIP3   OH261635   5.531   2.020   4.762 -0.3807  0.1305  0.3344
13407TIP3    H161636   5.438   2.031   4.744 -0.2926  1.6474  0.6291
13407TIP3    H261637   5.561   2.108   4.788  1.5600  0.1559 -1.6840
13408TIP3   OH261638   1.583   1.268   0.346 -0.8402 -0.1243 -0.1806
13408TIP3    H161639   1.518   1.198   0.351 -0.5505 -0.8596 -3.7587
13408TIP3    H261640   1.667   1.222   0.336 -0.1214  0.8123  1.2202
13409TIP3   OH261641   2.548   2.837   5.758 -0.1073  0.1337 -0.2535
13409TIP3    H161642   2.641   2.816   5.749  0.3471  1.4626  0.9337
13409TIP3    H261643   2.522   2.870   5.672  0.5328 -0.2027 -0.5780
13410TIP3   OH261644   0.648   3.472  16.011 -0.0596  0.3700  0.1992
13410TIP3    H161645   0.594   3.516  15.946 -0.7366  0.5265  0.8451
13410TIP3    H261646   0.613   3.383  16.016 -0.7775  0.6842  1.1562
13411TIP3   OH261647   5.899   2.299   5.644 -0.1280 -0.5155 -0.8410
13411TIP3    H161648   5.898   2.234   5.714  0.6201 -0.4257 -0.7358
13411TIP3    H261649   5.977   2.352   5.662 -1.2759  1.0962 -0.2934
13412TIP3   OH261650   6.678   0.343  13.753  0.4178 -0.7502  0.1050
13412TIP3    H161651   6.663   0.260  13.707  0.5438 -0.2722 -0.8390
13412TIP3    H261652   6.593   0.364  13.792  0.7937 -2.1311  1.7884
13413TIP3   OH261653   4.789   2.608  13.697 -0.3769  0.2250  0.4988
13413TIP3    H161654   4.701   2.640  13.679 -0.5124 -0.0495  0.6602
13413TIP3    H261655   4.834   2.609  13.612 -0.4563  0.5902  0.4576
13414TIP3   OH261656   4.744   4.765   1.277 -0.1536  0.1770 -0.2383
13414TIP3    H161657   4.721   4.773   1.184 -1.1463 -1.8268 -0.2205
13414TIP3    H261658   4.822   4.820   1.287 -1.9383  3.2117 -1.4603
13415TIP3   OH261659   1.181   5.363  13.677 -0.8405  0.4969 -0.0886
13415TIP3    H161660   1.143   5.317  13.752 -2.3170 -1.3569 -1.8608
13415TIP3    H261661   1.143   5.450  13.681 -2.4993 -0.2001  0.2424
13416TIP3   OH261662   0.552   4.578   6.046  0.6582  0.1294  0.7992
13416TIP3    H161663   0.626   4.580   6.107  2.8099  0.6212 -1.6656
13416TIP3    H261664   0.528   4.670   6.034  0.8165  0.1087  0.2885
13417TIP3   OH261665   6.611   5.693  14.705  0.0217  0.5883  0.5782
13417TIP3    H161666   6.586   5.631  14.637 -0.7451 -0.3446  1.6745
13417TIP3    H261667   6.689   5.737  14.671  0.7211 -1.1389 -0.1342
13418TIP3   OH261668   2.151   5.919  14.483 -0.4120  0.1683  0.4825
13418TIP3    H161669   2.141   5.831  14.447  0.9045  0.4830 -0.7418
13418TIP3    H261670   2.190   5.970  14.412 -2.0896  2.0175  0.8057
13419TIP3   OH261671   3.715   3.947  17.065 -0.4024  0.1775 -0.2813
13419TIP3    H161672   3.768   3.899  17.129 -0.1902  0.9750  0.1533
13419TIP3    H261673   3.725   3.897  16.984  0.5506 -0.0165 -0.0578
13420TIP3   OH261674   1.591   6.610  17.155 -0.1312 -0.2626 -0.5944
13420TIP3    H161675   1.523   6.642  17.214  0.3130 -1.7561  0.8012
13420TIP3    H261676   1.544   6.577  17.079 -0.8225  0.2430 -0.3937
13421TIP3   OH261677   5.279   4.467  17.257  0.2364 -0.1749 -0.0019
13421TIP3    H161678   5.308   4.551  17.222 -1.6303  0.0376 -1.2098
13421TIP3    H261679   5.359   4.416  17.269  1.9060  2.9087  4.2503
13422TIP3   OH261680   0.484   3.151   3.687 -0.3220 -0.0240 -0.2451
13422TIP3    H161681   0.559   3.182   3.636  0.5896 -0.7849  0.6079
13422TIP3    H261682   0.522   3.112   3.765 -1.6599  0.3528  0.6231
13423TIP3   OH261683   6.483   0.821  12.344 -0.1405 -0.9125 -0.1424
13423TIP3    H161684   6.452   0.843  12.432 -0.9147 -2.5038  0.0130
13423TIP3    H261685   6.578   0.814  12.353 -0.0979  0.0544  0.2940
13424TIP3   OH261686   0.658   6.695  15.481  0.2325 -0.1358 -0.1483
13424TIP3    H161687   0.574   6.695  15.436 -0.2586 -0.8766  0.7433
13424TIP3    H261688   0.722   6.680  15.411 -0.3233  0.7794 -0.8826
13425TIP3   OH261689   4.219   6.644  14.950  0.8637 -0.5411 -0.4717
13425TIP3    H161690   4.256   6.674  15.033  0.7065 -0.0480 -0.5748
13425TIP3    H261691   4.139   6.694  14.940  0.7125 -0.8363 -0.7653
13426TIP3   OH261692   2.012   0.173   1.533  0.5702  0.5015  0.6196
13426TIP3    H161693   2.037   0.140   1.447 -1.4515 -2.3407  0.9839
13426TIP3    H261694   1.961   0.251   1.515 -0.6476 -0.5829 -0.8852
13427TIP3   OH261695   3.033   0.798  12.415  0.0542 -0.6777  0.1320
13427TIP3    H161696   3.094   0.753  12.474  2.1381  1.0790 -0.5306
13427TIP3    H261697   2.958   0.819  12.471  0.5828 -1.7959  1.3290
13428TIP3   OH261698   0.499   2.474  14.307  0.3461 -0.1090 -0.2225
13428TIP3    H161699   0.442   2.546  14.333  0.7901  0.1465  0.0505
13428TIP3    H261700   0.517   2.489  14.214 -0.2437 -0.3370 -0.3741
13429TIP3   OH261701   4.978   0.759   2.886  0.2728 -0.8154 -0.5252
13429TIP3    H161702   5.025   0.823   2.833 -0.0821 -1.1305 -1.2354
13429TIP3    H261703   5.015   0.675   2.860  0.6833 -0.9131  0.3453
13430TIP3   OH261704   2.844   0.571  16.970  0.0893  0.1136  0.0826
13430TIP3    H161705   2.853   0.613  16.884  1.6321 -0.6236 -0.1512
13430TIP3    H261706   2.855   0.478  16.952 -0.1472 -0.1077  1.0136
13431TIP3   OH261707   2.675   3.568   0.101  0.0318 -1.0712  0.3289
13431TIP3    H161708   2.624   3.488   0.083  0.5810 -1.2092 -0.6981
13431TIP3    H261709   2.766   3.543   0.083  0.2541 -0.3104  0.3582
13432TIP3   OH261710   2.281   3.025  16.721  0.4622  0.0690 -0.0949
13432TIP3    H161711   2.239   3.059  16.641  0.4321  1.4841  0.4944
13432TIP3    H261712   2.235   2.943  16.739  1.0646 -0.7401 -2.0170
13433TIP3   OH261713   3.904   5.838  16.264  0.0676 -0.3154  0.3631
13433TIP3    H161714   3.891   5.925  16.302  1.5849 -0.4455  1.2342
13433TIP3    H261715   3.819   5.816  16.224 -0.2312  1.7105 -0.2077
13434TIP3   OH261716   0.058   3.957  15.916  0.8746 -0.1701  0.8951
13434TIP3    H161717  -0.012   3.925  15.973  0.6305  0.7146  1.1122
13434TIP3    H261718   0.138   3.930  15.960  0.7185 -2.6666 -0.1970
13435TIP3   OH261719   6.691   6.529   6.057  0.4901  0.1993 -0.3573
13435TIP3    H161720   6.784   6.511   6.072  0.2349 -0.7760  0.1630
13435TIP3    H261721   6.661   6.569   6.139  0.4951  0.7182 -0.6056
13436TIP3   OH261722   6.235   2.337   0.649  0.1842 -0.5029  0.5535
13436TIP3    H161723   6.192   2.423   0.652  1.1217  0.0284 -0.5732
13436TIP3    H261724   6.166   2.277   0.619  0.1143  0.2828 -0.9491
13437TIP3   OH261725   4.563   1.710   3.226 -0.4174  0.1362  0.6375
13437TIP3    H161726   4.558   1.797   3.185 -1.2465 -0.1612  0.0879
13437TIP3    H261727   4.551   1.648   3.154 -0.6141 -0.4206  1.1396
13438TIP3   OH261728   0.314   0.230   1.103 -0.4508  0.1965 -0.0639
13438TIP3    H161729   0.368   0.197   1.175 -0.0580  2.2235  0.6287
13438TIP3    H261730   0.274   0.152   1.066 -0.6754 -0.9343  2.3563
13439TIP3   OH261731   0.924   5.753  12.539 -0.0627  0.3789  0.2406
13439TIP3    H161732   0.938   5.781  12.630 -1.2809 -0.4845  0.7185
13439TIP3    H261733   0.853   5.689  12.544 -0.4366  0.6251 -1.3848
13440TIP3   OH261734   1.794   0.129  12.107 -0.0223  0.3845  0.1780
13440TIP3    H161735   1.848   0.067  12.058  2.6072  0.9428  2.1513
13440TIP3    H261736   1.802   0.211  12.058  0.6719  0.3638  0.2403
13441TIP3   OH261737   4.572   4.367  14.173 -0.0962  0.5407 -0.0263
13441TIP3    H161738   4.582   4.462  14.167 -0.1579  0.5197 -0.5053
13441TIP3    H261739   4.655   4.332  14.141  0.1701  0.4368  0.7442
13442TIP3   OH261740   0.706   2.616  16.836 -0.1777  0.0731 -0.0459
13442TIP3    H161741   0.741   2.527  16.845 -0.6412 -0.0038  1.1280
13442TIP3    H261742   0.781   2.667  16.804  0.7513 -0.3013  1.4248
13443TIP3   OH261743   2.876   0.390   5.544  0.6173 -0.2516 -0.7896
13443TIP3    H161744   2.949   0.419   5.489 -1.0439  1.3909 -2.2644
13443TIP3    H261745   2.798   0.425   5.501 -0.9733 -0.8816  1.4020
13444TIP3   OH261746   5.087   6.590   6.229  0.0399  0.1852 -0.0851
13444TIP3    H161747   5.129   6.601   6.144  2.7536  0.3619  1.1573
13444TIP3    H261748   5.072   6.679   6.261  0.1341  0.1345  0.1041
13445TIP3   OH261749   1.836   3.189  13.712 -0.3348 -0.4691 -0.0358
13445TIP3    H161750   1.824   3.265  13.655  0.7295 -0.3006 -0.0538
13445TIP3    H261751   1.903   3.137  13.668  0.8472 -0.0975  1.2939
13446TIP3   OH261752   4.756   2.301   4.210  0.2985 -0.0595  0.2563
13446TIP3    H161753   4.714   2.369   4.264 -0.0899 -0.7099  0.7809
13446TIP3    H261754   4.781   2.233   4.272  2.2431  0.3410 -0.0239
13447TIP3   OH261755   2.423   0.987  15.749 -0.2799  0.3930  0.0060
13447TIP3    H161756   2.334   1.022  15.748 -0.8725 -1.0921 -0.1571
13447TIP3    H261757   2.422   0.919  15.816  0.9287  0.8088  0.4932
13448TIP3   OH261758   3.121   1.561   3.174  0.0137  0.2428  0.0272
13448TIP3    H161759   3.170   1.579   3.254 -1.5331  0.2120  1.0154
13448TIP3    H261760   3.166   1.486   3.135  0.4396 -0.1161  1.1682
13449TIP3   OH261761   2.113   0.689  16.151  0.0180  0.0227 -0.2807
13449TIP3    H161762   2.196   0.654  16.184 -0.0006 -0.5221 -0.7795
13449TIP3    H261763   2.050   0.673  16.221  0.3478  0.5108  0.1309
13450TIP3   OH261764   4.951   3.744  12.657  0.3293 -1.0221  0.0878
13450TIP3    H161765   4.964   3.668  12.600  2.0243 -0.8311  0.1742
13450TIP3    H261766   5.036   3.758  12.698 -0.1022  0.5876  0.5045
13451TIP3   OH261767   1.757   4.806   0.589 -0.0698  0.2607  0.3505
13451TIP3    H161768   1.837   4.830   0.542  0.4983  0.0831  1.2130
13451TIP3    H261769   1.704   4.759   0.524 -0.5174  2.3787 -0.9061
13452TIP3   OH261770   4.660   0.460  13.539  0.2334  0.4501 -0.9242
13452TIP3    H161771   4.591   0.424  13.483  0.3646  0.2230 -0.9435
13452TIP3    H261772   4.734   0.401  13.525 -0.1754 -0.4805  0.6081
13453TIP3   OH261773   5.785   5.733  15.229 -0.4720  0.7008  0.3023
13453TIP3    H161774   5.826   5.782  15.158  1.8310 -0.0075  1.0348
13453TIP3    H261775   5.812   5.643  15.214  0.6066  0.6220  2.3420
13454TIP3   OH261776   1.021   6.359   6.208  0.6076  0.2714 -0.2344
13454TIP3    H161777   0.992   6.268   6.219 -1.2840  1.1347  3.0049
13454TIP3    H261778   1.116   6.351   6.194  0.8611 -2.1682  2.0649
13455TIP3   OH261779   5.201   5.321  17.000  0.1378  0.2843 -0.3395
13455TIP3    H161780   5.288   5.326  17.040 -0.0504 -0.8616  0.2532
13455TIP3    H261781   5.151   5.264  17.058 -0.9666  0.7836 -0.7722
13456TIP3   OH261782   3.117   5.651   2.718 -0.3778 -0.5929 -0.7057
13456TIP3    H161783   3.073   5.700   2.649 -0.6262 -0.6958 -0.6244
13456TIP3    H261784   3.164   5.716   2.769 -0.9775 -0.3891 -0.3950
13457TIP3   OH261785   2.635   5.047   6.188  0.3730  0.0144 -0.1203
13457TIP3    H161786   2.580   5.071   6.114 -0.9680  0.3378  0.9522
13457TIP3    H261787   2.575   5.009   6.252  1.7525 -1.9924  0.0977
13458TIP3   OH261788   0.870   3.882  13.981 -0.2310  0.0841 -0.2020
13458TIP3    H161789   0.884   3.882  13.886  0.8105 -0.2849 -0.0608
13458TIP3    H261790   0.797   3.942  13.994 -0.8794 -0.4223 -1.3017
13459TIP3   OH261791   2.879   1.614  12.029 -0.2429 -0.1528 -0.2212
13459TIP3    H161792   2.974   1.600  12.039 -0.4291 -0.0861  2.2605
13459TIP3    H261793   2.852   1.548  11.964  1.2496 -1.2698  0.2283
13460TIP3   OH261794   5.622   3.427   1.862  0.0674 -0.0555  0.0315
13460TIP3    H161795   5.706   3.417   1.907  0.4970  0.1937 -0.7062
13460TIP3    H261796   5.635   3.499   1.801 -0.7278  0.0771  0.0060
13461TIP3   OH261797   1.569   1.660  13.429  0.1205 -0.3882 -0.5190
13461TIP3    H161798   1.557   1.569  13.403  2.5372 -0.4144 -1.8297
13461TIP3    H261799   1.509   1.709  13.374 -0.2175 -1.0814 -0.7792
13462TIP3   OH261800   3.774   4.625  13.958 -0.4201 -0.2322  0.0182
13462TIP3    H161801   3.793   4.693  14.023 -2.8938  0.7756 -0.2411
13462TIP3    H261802   3.811   4.545  13.996  1.1478  0.9274  1.0590
13463TIP3   OH261803   1.184   1.989   3.782 -0.4461  0.2317  0.3150
13463TIP3    H161804   1.154   1.907   3.743  0.9116 -0.1159 -0.0342
13463TIP3    H261805   1.269   2.005   3.742 -0.5356  1.6373  0.6446
13464TIP3   OH261806   0.384   4.241   4.306 -0.1055 -0.1836  0.0816
13464TIP3    H161807   0.297   4.259   4.271 -1.0735 -3.1349  0.6844
13464TIP3    H261808   0.368   4.215   4.397  1.5676  0.4817  0.5999
13465TIP3   OH261809   3.165   0.107   2.778  0.6028  0.2810 -0.5049
13465TIP3    H161810   3.210   0.128   2.696  1.0006  0.4020 -0.2584
13465TIP3    H261811   3.215   0.035   2.815 -0.0878 -0.3650 -0.7845
13466TIP3   OH261812   4.481   6.285  15.035 -0.6540 -0.5434  0.0066
13466TIP3    H161813   4.555   6.329  15.078  0.2772  0.0339 -2.0491
13466TIP3    H261814   4.511   6.196  15.022  0.2558 -0.0014 -1.9490
13467TIP3   OH261815   2.234   4.931   2.586  0.1968  0.0375  0.5843
13467TIP3    H161816   2.286   4.911   2.664 -0.2616 -1.2828  0.5777
13467TIP3    H261817   2.145   4.941   2.620  0.4065  2.2418  0.5921
13468TIP3   OH261818   4.151   3.732   2.665  0.2141 -0.2280 -0.3060
13468TIP3    H161819   4.159   3.697   2.576 -2.1428 -0.6425 -0.4253
13468TIP3    H261820   4.137   3.655   2.720  0.4593  0.1237  0.2584
13469TIP3   OH261821   1.146   1.283   1.007 -0.6600 -0.2949 -0.1884
13469TIP3    H161822   1.058   1.249   0.990 -0.4643 -0.8304 -0.1654
13469TIP3    H261823   1.132   1.356   1.067 -1.0329 -0.8782  0.4567
13470TIP3   OH261824   4.270   1.357   3.238  0.3502  0.5701  0.1158
13470TIP3    H161825   4.189   1.307   3.229  0.7857  0.1125 -1.4064
13470TIP3    H261826   4.339   1.296   3.216  0.9475  1.6265 -1.0568
13471TIP3   OH261827   6.605   1.755  14.572  0.5400 -0.9212 -0.4032
13471TIP3    H161828   6.532   1.811  14.597  0.8347 -0.0639 -1.3822
13471TIP3    H261829   6.658   1.748  14.652 -0.3164 -1.1161  0.1626
13472TIP3   OH261830   1.033   4.435  15.173 -0.0058  0.2816  0.2810
13472TIP3    H161831   1.068   4.426  15.085  2.2702 -2.0782  1.2881
13472TIP3    H261832   1.035   4.346  15.209 -3.1896  0.7142  1.9477
13473TIP3   OH261833   2.684   1.983  16.547 -0.1076 -0.1100 -0.1090
13473TIP3    H161834   2.729   2.009  16.627  2.7807 -1.2312 -1.2217
13473TIP3    H261835   2.701   2.056  16.486  2.7445 -1.6306 -1.3483
13474TIP3   OH261836   4.187   0.732  14.821 -0.3815  0.4546  0.8297
13474TIP3    H161837   4.240   0.699  14.893 -0.6924 -0.6055  0.5910
13474TIP3    H261838   4.097   0.708  14.845 -0.5437  0.5752  0.3517
13475TIP3   OH261839   5.837   0.505  13.683  0.0027  0.4219  0.1300
13475TIP3    H161840   5.829   0.536  13.593  0.4768 -1.2888 -0.5514
13475TIP3    H261841   5.900   0.433  13.678 -0.0493  0.2168  1.8171
13476TIP3   OH261842   1.649   1.487  13.708 -0.0644 -0.0659  0.3795
13476TIP3    H161843   1.579   1.497  13.773 -0.9043 -0.9166 -0.3594
13476TIP3    H261844   1.640   1.563  13.651 -1.2511 -0.7967 -0.4689
13477TIP3   OH261845   6.590   4.864  12.276 -0.1005 -0.1860 -0.6680
13477TIP3    H161846   6.566   4.947  12.316 -1.7430 -1.2852  0.7499
13477TIP3    H261847   6.543   4.798  12.326  0.6459 -1.9487 -2.1540
13478TIP3   OH261848   2.718   5.590  16.091  0.5906  0.3440 -0.4501
13478TIP3    H161849   2.649   5.523  16.096 -0.0311  0.9877 -0.1270
13478TIP3    H261850   2.713   5.622  16.001  2.8547 -2.0268 -1.5485
13479TIP3   OH261851   5.456   5.944   3.655 -0.0621  0.6221 -0.3639
13479TIP3    H161852   5.405   5.943   3.574 -0.9946  0.7418  0.1970
13479TIP3    H261853   5.541   5.909   3.631  0.5543  2.9461 -1.9532
13480TIP3   OH261854   2.908   0.057  10.627 -0.0955 -0.2870 -0.0148
13480TIP3    H161855   2.825   0.024  10.661  0.3594 -1.1224  0.2979
13480TIP3    H261856   2.885   0.141  10.587 -0.6124  1.0273  2.7621
13481TIP3   OH261857   4.346   3.895  16.908  0.0788  1.1203  0.0279
13481TIP3    H161858   4.311   3.891  16.819  1.2791  1.4177 -0.4712
13481TIP3    H261859   4.391   3.812  16.920  0.5972  1.4062  0.0693
13482TIP3   OH261860   0.556   1.080   1.700 -0.3736  0.3984 -0.0486
13482TIP3    H161861   0.628   1.135   1.670  0.2245 -1.0462 -1.3617
13482TIP3    H261862   0.598   1.007   1.744 -1.0819  0.0700  0.0973
13483TIP3   OH261863   5.826   4.833  12.286 -0.1592  0.4701  0.9557
13483TIP3    H161864   5.823   4.875  12.200 -0.8937  0.7289  1.1010
13483TIP3    H261865   5.905   4.869  12.327  0.1057  0.4676  0.4531
13484TIP3   OH261866   1.673   4.094  16.538 -0.0106 -0.2626  0.1957
13484TIP3    H161867   1.692   4.042  16.616 -1.0083 -0.7388  0.1468
13484TIP3    H261868   1.622   4.168  16.570 -0.6981 -0.6297 -0.0356
13485TIP3   OH261869   6.585   2.292  12.796 -0.6992  0.3469 -0.4348
13485TIP3    H161870   6.606   2.338  12.878  0.9490 -2.4042  0.8594
13485TIP3    H261871   6.665   2.300  12.744 -1.1778  0.7474 -1.1115
13486TIP3   OH261872   0.282   4.126  14.954  0.0613  0.4232  0.0704
13486TIP3    H161873   0.230   4.075  15.017 -0.2217 -1.8313 -1.8633
13486TIP3    H261874   0.218   4.156  14.889  0.7372  0.1830 -0.7215
13487TIP3   OH261875   1.440   3.804  16.931  0.3563 -0.1604 -0.6968
13487TIP3    H161876   1.469   3.732  16.987 -1.6450  1.9310  3.4455
13487TIP3    H261877   1.368   3.767  16.880 -0.7043 -1.1782  1.4214
13488TIP3   OH261878   6.677   5.363  13.617 -0.4015  0.0696  0.0778
13488TIP3    H161879   6.646   5.340  13.530  0.3403 -1.0428  0.0868
13488TIP3    H261880   6.769   5.335  13.619 -0.9302 -1.8614  1.8505
13489TIP3   OH261881   5.336   4.135   4.335 -0.1050  0.1654  0.5998
13489TIP3    H161882   5.271   4.104   4.398 -1.0911  0.3695 -0.2720
13489TIP3    H261883   5.405   4.174   4.389 -0.8238  0.1685  1.5588
13490TIP3   OH261884   2.137   2.019  16.414 -0.2375 -0.6495  0.5731
13490TIP3    H161885   2.074   1.977  16.356 -1.0641  0.5387  0.5719
13490TIP3    H261886   2.214   2.034  16.359 -1.3271  1.2990 -0.5580
13491TIP3   OH261887   4.204   2.193  17.028  0.3783 -0.3288  0.5606
13491TIP3    H161888   4.118   2.153  17.039 -0.3592  0.7707 -0.9147
13491TIP3    H261889   4.233   2.164  16.942  1.7307 -1.0527  1.2123
13492TIP3   OH261890   3.747   2.983   5.561 -0.8177  0.3178  0.1720
13492TIP3    H161891   3.688   2.941   5.623 -0.3115  0.7130  0.9439
13492TIP3    H261892   3.706   3.067   5.542 -1.0957  0.0954 -0.2300
13493TIP3   OH261893   3.538   6.363  16.574  0.5860 -0.3047 -0.1181
13493TIP3    H161894   3.446   6.387  16.587  0.7654  0.1770  0.2669
13493TIP3    H261895   3.535   6.299  16.503 -0.0911 -0.6409  0.2019
13494TIP3   OH261896   6.023   4.809  11.948 -0.2626 -0.1447 -0.1390
13494TIP3    H161897   6.003   4.737  12.007 -0.5938  0.1705  0.1408
13494TIP3    H261898   6.053   4.880  12.005  1.3706 -0.4868 -0.5123
13495TIP3   OH261899   4.242   1.359  15.592 -0.1938  0.2216 -0.1742
13495TIP3    H161900   4.316   1.388  15.646  0.9797 -1.6007 -0.6886
13495TIP3    H261901   4.169   1.350  15.654 -0.1917  2.5414  0.2616
13496TIP3   OH261902   5.298   3.778  10.872  0.3861  0.1439 -0.1683
13496TIP3    H161903   5.254   3.859  10.848  1.9747  1.3696  0.8555
13496TIP3    H261904   5.388   3.804  10.891  0.6078 -1.6194  1.5515
13497TIP3   OH261905   2.577   3.893  13.299  0.2351 -0.8856 -0.0974
13497TIP3    H161906   2.616   3.845  13.226 -2.9655 -1.0705 -1.8672
13497TIP3    H261907   2.497   3.846  13.319  0.6894 -0.4846  3.2528
13498TIP3   OH261908   3.925   2.761   6.193  0.1659  0.1851  0.2002
13498TIP3    H161909   3.929   2.790   6.102 -3.6751 -1.3672 -0.6631
13498TIP3    H261910   3.962   2.672   6.192  1.5259  0.7313  0.5142
13499TIP3   OH261911   2.924   3.963   5.181 -0.0352  0.6462 -0.6532
13499TIP3    H161912   2.941   4.007   5.264  1.8850 -0.3446 -0.4697
13499TIP3    H261913   2.849   4.009   5.144 -1.2318  0.8536  1.8135
13500TIP3   OH261914   4.559   2.269  13.429  0.3066 -0.0015  0.3857
13500TIP3    H161915   4.577   2.274  13.523  1.8379  1.5701  0.0632
13500TIP3    H261916   4.552   2.360  13.401 -2.8101 -0.4346 -0.6079
13501TIP3   OH261917   3.282   2.467  13.485 -0.0477  0.2948  0.4144
13501TIP3    H161918   3.300   2.395  13.546 -2.5056 -1.0135 -0.2733
13501TIP3    H261919   3.279   2.545  13.541  0.0800 -0.5160  1.6006
13502TIP3   OH261920   1.561   6.481  11.729  0.1450 -0.4074  0.2061
13502TIP3    H161921   1.503   6.422  11.681  0.3621 -0.2064 -0.3198
13502TIP3    H261922   1.502   6.548  11.765  0.0500 -0.1374 -0.4232
13503TIP3   OH261923   1.917   2.267  14.684  0.0731 -0.3600  0.5408
13503TIP3    H161924   1.869   2.257  14.767  1.1528 -2.3627  1.0100
13503TIP3    H261925   1.909   2.359  14.662 -2.8814 -0.3483  1.2319
13504TIP3   OH261926   4.413   5.586  15.489  0.4216  0.7978  0.0931
13504TIP3    H161927   4.442   5.629  15.570  0.3967  0.8451  0.0767
13504TIP3    H261928   4.321   5.611  15.481 -0.0098 -0.4157  0.8509
13505TIP3   OH261929   4.260   1.889   0.691  0.2335 -0.0707 -0.6257
13505TIP3    H161930   4.354   1.901   0.701  0.1402  0.2697 -0.1351
13505TIP3    H261931   4.247   1.794   0.692  0.2683 -0.1340  2.3805
13506TIP3   OH261932   0.488   0.032   6.374  0.2498 -0.1260  0.4078
13506TIP3    H161933   0.515  -0.031   6.440  0.9325  0.2365  0.4806
13506TIP3    H261934   0.421   0.085   6.417 -1.3788 -1.6842 -0.0975
13507TIP3   OH261935   5.806   2.227   3.436 -0.3921  0.4864  0.0429
13507TIP3    H161936   5.795   2.315   3.400  1.5193  1.5558  1.8446
13507TIP3    H261937   5.748   2.224   3.512 -0.3796  0.2257  0.0435
13508TIP3   OH261938   5.793   0.342  17.126 -0.2117  0.3504  0.3323
13508TIP3    H161939   5.834   0.392  17.055 -1.6648  0.8311 -0.1916
13508TIP3    H261940   5.867   0.316  17.182  0.7148  1.9992 -0.0505
13509TIP3   OH261941   5.740   2.669  17.204 -0.3598 -0.4267  0.7561
13509TIP3    H161942   5.784   2.754  17.202  0.3206 -0.7839 -0.3665
13509TIP3    H261943   5.801   2.609  17.162 -1.2748 -1.2616  0.5725
13510TIP3   OH261944   5.367   0.553  12.098 -0.6088  0.3659  0.4449
13510TIP3    H161945   5.450   0.506  12.098  1.0686  3.0442 -0.7983
13510TIP3    H261946   5.300   0.486  12.086  1.6466 -1.6343 -2.2054
13511TIP3   OH261947   3.091   1.321  17.121 -0.2708 -0.0386  0.1804
13511TIP3    H161948   3.028   1.253  17.097 -1.4464  1.1240 -0.1116
13511TIP3    H261949   3.038   1.399  17.136  0.9788  0.6383  1.2692
13512TIP3   OH261950   6.290   6.247   6.536  0.0763  0.3768 -0.1638
13512TIP3    H161951   6.244   6.300   6.601  0.1809  1.3413 -0.8498
13512TIP3    H261952   6.383   6.263   6.552  0.2344 -1.4249  1.0998
13513TIP3   OH261953   5.021   2.818   4.059  0.2746  0.0117 -0.1390
13513TIP3    H161954   4.982   2.741   4.101 -0.7520 -2.5260 -4.9694
13513TIP3    H261955   4.955   2.887   4.070 -0.9162 -1.1824  0.5078
13514TIP3   OH261956   0.915   3.598   4.333  0.5506 -0.3929 -0.0225
13514TIP3    H161957   0.916   3.661   4.405 -0.0636 -0.8860  0.4235
13514TIP3    H261958   0.900   3.652   4.255  1.2255  0.1431  0.2081
13515TIP3   OH261959   1.135   2.428   0.589  0.3349  0.2369 -0.2320
13515TIP3    H161960   1.122   2.449   0.681 -0.6629  0.3734 -0.3913
13515TIP3    H261961   1.096   2.501   0.542  2.0130  0.8380 -0.7784
13516TIP3   OH261962   0.577   1.626  17.159 -0.3258 -0.0169  0.5275
13516TIP3    H161963   0.554   1.622  17.066 -0.9876  2.3528  0.5280
13516TIP3    H261964   0.509   1.574  17.202  0.2220 -1.4944 -0.3007
13517TIP3   OH261965   4.140   4.141  11.470 -0.0078 -0.0554  0.5306
13517TIP3    H161966   4.099   4.054  11.467  1.4658 -0.7793  0.4817
13517TIP3    H261967   4.146   4.162  11.563  2.0068 -1.2204  0.7153
13518TIP3   OH261968   1.711   2.193  16.233 -0.2996  0.1190  0.2230
13518TIP3    H161969   1.641   2.145  16.278  0.7919 -1.5415  0.2674
13518TIP3    H261970   1.747   2.129  16.170 -0.7429  1.8617 -1.9413
13519TIP3   OH261971   5.304   5.792   0.920 -0.2854 -0.1965  0.1977
13519TIP3    H161972   5.241   5.763   0.986  1.4378 -3.0793  0.7457
13519TIP3    H261973   5.300   5.724   0.852 -0.4269  1.5576 -1.6590
13520TIP3   OH261974   6.656   2.822  12.651  0.1089  0.5380  0.0068
13520TIP3    H161975   6.701   2.749  12.608 -0.2858  1.5135 -2.2219
13520TIP3    H261976   6.565   2.792  12.660  0.2082  0.3003  0.2132
13521TIP3   OH261977   6.120   2.616  14.177 -0.0752 -0.3288 -0.1991
13521TIP3    H161978   6.090   2.526  14.185  1.5845 -1.1955 -2.7421
13521TIP3    H261979   6.062   2.655  14.111 -0.4641  0.3804  0.5246
13522TIP3   OH261980   2.969   1.736   4.652  0.2119 -0.1192 -0.3616
13522TIP3    H161981   2.878   1.721   4.677 -0.1852  1.0700 -0.9595
13522TIP3    H261982   2.991   1.821   4.691  1.2618 -0.6649  0.2616
13523TIP3   OH261983   2.451   6.298  11.592 -0.3369 -0.3207 -0.4441
13523TIP3    H161984   2.380   6.271  11.650 -0.2108  0.2518 -0.0157
13523TIP3    H261985   2.407   6.346  11.522 -0.3265  0.5266  0.1211
13524TIP3   OH261986   5.952   3.110   1.391 -0.2040  0.7032  0.3889
13524TIP3    H161987   5.914   3.097   1.304 -1.1356  3.4517  0.2586
13524TIP3    H261988   6.047   3.111   1.376 -0.3242  0.3477 -0.4601
13525TIP3   OH261989   4.132   1.065  16.927  0.1327  0.3168  0.0721
13525TIP3    H161990   4.101   1.121  16.856 -1.6765 -0.8606 -0.1159
13525TIP3    H261991   4.067   0.996  16.933  1.9877 -1.4666  0.6861
13526TIP3   OH261992   1.782   2.856  11.066  0.4235 -0.1795 -0.5362
13526TIP3    H161993   1.783   2.764  11.094  0.4445 -0.1720 -0.5124
13526TIP3    H261994   1.728   2.857  10.987 -0.2670 -0.0774 -0.0770
13527TIP3   OH261995   3.633   3.741  14.473  0.9452 -0.2499  0.2953
13527TIP3    H161996   3.604   3.720  14.384 -0.1041 -0.4932  0.6799
13527TIP3    H261997   3.610   3.663  14.524 -0.0645  0.5849  1.1247
13528TIP3   OH261998   0.794   3.146   0.394 -0.7226 -0.2119  0.3991
13528TIP3    H161999   0.872   3.091   0.381  0.4130  1.0004  1.7296
13528TIP3    H262000   0.748   3.143   0.310  1.8539  0.6504 -1.1599
13529TIP3   OH262001   1.011   3.175   3.337  0.2756 -0.1159 -0.0643
13529TIP3    H162002   1.064   3.097   3.321 -0.2755 -0.6432  0.6160
13529TIP3    H262003   0.995   3.175   3.431 -0.8455  0.0806 -0.2355
13530TIP3   OH262004   0.747   3.800   1.485  0.4586  0.1578 -0.3850
13530TIP3    H162005   0.660   3.807   1.448  0.7596 -0.7196 -1.3128
13530TIP3    H262006   0.794   3.742   1.425  0.9821 -1.2985  1.3468
13531TIP3   OH262007   5.260   0.563   3.059 -0.7549  0.1824 -0.2132
13531TIP3    H162008   5.207   0.505   3.004 -1.0177 -0.9250  1.1511
13531TIP3    H262009   5.234   0.542   3.149  0.3567  1.2459  0.3936
13532TIP3   OH262010   4.906   5.356  14.937  0.5541  0.3823 -0.0654
13532TIP3    H162011   4.904   5.335  14.844 -0.7154  1.7373 -0.3757
13532TIP3    H262012   4.835   5.306  14.976  1.1616 -0.2809  0.2168
13533TIP3   OH262013   5.830   5.426  14.061  0.3555  0.1058  0.0956
13533TIP3    H162014   5.797   5.371  14.132  0.9261  0.2123  0.4431
13533TIP3    H262015   5.863   5.363  13.996 -0.8850 -0.0210 -0.4514
13534TIP3   OH262016   4.833   4.925  15.775 -0.0349 -0.6856  0.5445
13534TIP3    H162017   4.750   4.937  15.728  0.7493 -1.4311 -1.1084
13534TIP3    H262018   4.881   4.862  15.722  1.5817 -0.3011  1.4993
13535TIP3   OH262019   3.498   0.656  12.329 -0.3487 -0.1804 -0.5788
13535TIP3    H162020   3.469   0.714  12.400 -0.6107 -1.2108  0.1815
13535TIP3    H262021   3.591   0.675  12.318 -0.7169  1.3459 -1.2887
13536TIP3   OH262022   4.791   5.014  13.074  0.7767 -0.2607 -0.3979
13536TIP3    H162023   4.837   5.064  13.007 -1.1477  1.3172 -0.6329
13536TIP3    H262024   4.783   5.073  13.148  0.0154 -0.8398  0.0010
13537TIP3   OH262025   4.980   0.330   3.502 -0.1686  0.1502 -0.3701
13537TIP3    H162026   4.928   0.268   3.450  0.1783  1.2103 -2.0301
13537TIP3    H262027   5.067   0.291   3.505 -0.0956  0.2698 -0.9060
13538TIP3   OH262028   4.114   2.940   3.473 -0.1652  0.1098 -0.2177
13538TIP3    H162029   4.027   2.939   3.515 -0.9443 -0.5309 -1.7851
13538TIP3    H262030   4.135   2.848   3.459  0.9905  0.2382  0.5271
13539TIP3   OH262031   5.495   2.086   1.869 -0.6491  0.0989  0.8454
13539TIP3    H162032   5.456   2.019   1.813  0.0384  1.3976 -1.2721
13539TIP3    H262033   5.588   2.083   1.849 -0.7531  2.5190 -0.3161
13540TIP3   OH262034   1.090   4.904   1.685  0.8695  0.7612 -0.0447
13540TIP3    H162035   1.166   4.847   1.698  0.2027  0.2176  1.8659
13540TIP3    H262036   1.120   4.991   1.712  1.4550  1.0601 -1.5467
13541TIP3   OH262037   4.936   3.764  16.021 -0.2547 -0.0495  0.5052
13541TIP3    H162038   4.927   3.697  16.090 -0.9315 -1.8468 -1.2256
13541TIP3    H262039   4.847   3.796  16.008 -0.2807 -0.3770 -0.1401
13542TIP3   OH262040   1.714   4.195  14.345  0.0879 -1.0088 -0.6814
13542TIP3    H162041   1.806   4.207  14.367  0.3069 -0.5960 -1.7837
13542TIP3    H262042   1.712   4.187  14.250 -1.0143 -1.0092 -0.6746
13543TIP3   OH262043   3.896   5.784   3.420 -0.3700  0.3207 -0.0445
13543TIP3    H162044   3.856   5.709   3.463  0.5212  0.2472  0.6841
13543TIP3    H262045   3.942   5.748   3.344  0.0642  0.1325  0.3101
13544TIP3   OH262046   2.803   0.510   0.647  0.1268 -0.1396  0.1971
13544TIP3    H162047   2.717   0.524   0.687  0.3333  0.6316  0.3814
13544TIP3    H262048   2.791   0.533   0.555  0.1270 -0.0666  0.2154
13545TIP3   OH262049   4.930   2.735  16.980 -0.3198  0.1062  0.9072
13545TIP3    H162050   4.960   2.677  17.050 -1.8555 -1.0181  0.6860
13545TIP3    H262051   4.966   2.696  16.900  1.6939  1.5619  1.0153
13546TIP3   OH262052   3.060   2.206  12.377 -0.1364  0.2826  0.8663
13546TIP3    H162053   3.112   2.131  12.406 -1.7987 -0.9255  0.8444
13546TIP3    H262054   3.079   2.213  12.283 -1.3302 -1.3095  0.4579
13547TIP3   OH262055   6.247   2.865   1.211 -0.3127 -0.4554 -0.0310
13547TIP3    H162056   6.221   2.822   1.292 -1.1610  0.4934  0.2135
13547TIP3    H262057   6.343   2.866   1.214 -0.2749 -1.9139  0.1565
13548TIP3   OH262058   3.687   0.207   0.498 -0.0990 -0.2643  0.1727
13548TIP3    H162059   3.739   0.286   0.484 -1.0869  0.5311  0.8155
13548TIP3    H262060   3.665   0.176   0.410  1.2604 -0.5129 -0.1048
13549TIP3   OH262061   2.999   6.386  14.306  0.2611  0.1435  0.5609
13549TIP3    H162062   2.970   6.379  14.397 -0.1510 -0.5294  0.3860
13549TIP3    H262063   3.060   6.459  14.305 -0.5810  0.8618  1.1634
13550TIP3   OH262064   2.102   0.526   0.316 -0.2209  0.2741 -0.0773
13550TIP3    H162065   2.138   0.554   0.232  0.1177  0.3538  0.0928
13550TIP3    H262066   2.013   0.497   0.296  1.2614 -4.2374 -1.3991
13551TIP3   OH262067   4.722   4.553  13.279  0.0810 -0.3020 -0.2695
13551TIP3    H162068   4.781   4.627  13.262 -0.1709  0.2702  1.1632
13551TIP3    H262069   4.671   4.544  13.199  1.5994 -0.3410 -1.2760
13552TIP3   OH262070   0.204   5.717  15.445 -0.6926 -0.5186 -0.4464
13552TIP3    H162071   0.112   5.739  15.435 -0.7083  0.6845  1.6500
13552TIP3    H262072   0.249   5.773  15.381 -1.3563 -0.4989 -0.9027
13553TIP3   OH262073   5.858   3.511  13.823  0.2630  0.2619  0.1293
13553TIP3    H162074   5.820   3.599  13.821 -0.5170 -0.0743 -1.4964
13553TIP3    H262075   5.786   3.454  13.851 -0.4579 -0.3320 -2.6141
13554TIP3   OH262076   3.335   0.394  15.789  0.6690  0.1187  0.3420
13554TIP3    H162077   3.411   0.422  15.739  0.7160 -1.0869 -0.3108
13554TIP3    H262078   3.341   0.298  15.791  1.3642  0.0966  3.7722
13555TIP3   OH262079   6.473   6.646   0.404  0.5371 -0.5556 -0.4888
13555TIP3    H162080   6.484   6.586   0.330 -0.8380 -0.6280 -0.6612
13555TIP3    H262081   6.562   6.674   0.425  0.9313 -0.0305 -2.5825
13556TIP3   OH262082   0.539   0.361  13.148 -0.1411  0.0501  0.0797
13556TIP3    H162083   0.528   0.291  13.213  0.0034  0.5959  0.7072
13556TIP3    H262084   0.633   0.379  13.148 -0.1117 -0.0772 -0.4324
13557TIP3   OH262085   4.682   2.339  12.583 -0.1503  0.0864 -0.9104
13557TIP3    H162086   4.771   2.345  12.550 -0.0904  2.2357 -0.4942
13557TIP3    H262087   4.689   2.359  12.676 -1.0549  0.2883 -0.8740
13558TIP3   OH262088   5.311   3.056   1.698  0.2292 -0.3953 -0.0419
13558TIP3    H162089   5.376   3.083   1.633 -2.7487  0.1353 -3.0611
13558TIP3    H262090   5.284   2.969   1.671 -1.8145  0.2437 -0.2750
13559TIP3   OH262091   2.370   6.388  11.333 -0.1314  0.4953  0.2585
13559TIP3    H162092   2.314   6.457  11.298  0.7055  1.5590  0.9586
13559TIP3    H262093   2.386   6.330  11.258 -0.8403  1.0570 -0.3419
13560TIP3   OH262094   6.168   3.724  17.316 -0.4361  0.1741 -0.0059
13560TIP3    H162095   6.197   3.715  17.407 -0.6018  1.5800  0.2129
13560TIP3    H262096   6.214   3.655  17.268  0.9362  0.4721  0.8575
13561TIP3   OH262097   1.771   6.488  14.814 -0.3008 -0.0417 -0.1209
13561TIP3    H162098   1.758   6.418  14.750  0.4759  0.6439 -1.0730
13561TIP3    H262099   1.686   6.499  14.855 -0.0166 -2.8391  1.4768
13562TIP3   OH262100   1.685   4.166  12.384 -0.0634  0.4343  0.3314
13562TIP3    H162101   1.762   4.155  12.440  0.9414  1.5578 -0.7740
13562TIP3    H262102   1.710   4.233  12.321 -2.1726  1.2942  0.3145
13563TIP3   OH262103   4.398   2.847   4.914  0.3441 -0.3990  0.7674
13563TIP3    H162104   4.470   2.899   4.951 -0.1962 -1.2824  3.2823
13563TIP3    H262105   4.441   2.779   4.863  1.1375  0.9088 -0.3758
13564TIP3   OH262106   2.747   4.064  14.759 -0.6978 -0.0065  0.2269
13564TIP3    H162107   2.684   4.100  14.696  0.9109  3.3196  0.2635
13564TIP3    H262108   2.802   4.006  14.707 -0.4260  1.3878 -1.1328
13565TIP3   OH262109   1.858   4.660  16.026  0.1661 -0.4475  0.3010
13565TIP3    H162110   1.932   4.601  16.041  1.0792  0.4236 -0.5926
13565TIP3    H262111   1.788   4.603  15.994  0.5595 -1.2385  0.8200
13566TIP3   OH262112   0.648   6.663   0.786  0.7793  0.0103 -1.1114
13566TIP3    H162113   0.594   6.623   0.717  0.1292  0.4194 -0.8470
13566TIP3    H262114   0.586   6.713   0.840  1.4785  0.8727 -1.0723
13567TIP3   OH262115   1.098   6.388  15.608 -0.0754  0.0297  0.1201
13567TIP3    H162116   1.083   6.395  15.513 -0.0619 -0.4536  0.0810
13567TIP3    H262117   1.189   6.416  15.619  0.6785 -2.0065 -0.3070
13568TIP3   OH262118   4.243   4.478   3.611  0.3663 -0.2766  0.4265
13568TIP3    H162119   4.199   4.419   3.549  0.9690  0.3849 -0.6597
13568TIP3    H262120   4.198   4.462   3.695  0.0658 -1.7686  0.0174
13569TIP3   OH262121   0.115   4.888  14.260  0.2528  0.1603 -0.4409
13569TIP3    H162122   0.055   4.814  14.265  0.7855 -0.3887 -1.8244
13569TIP3    H262123   0.059   4.965  14.249 -0.4283  0.2737  2.7241
13570TIP3   OH262124   3.597   5.397  14.760 -0.2522  0.2835 -0.1848
13570TIP3    H162125   3.601   5.325  14.823  0.2210 -0.2361 -0.7880
13570TIP3    H262126   3.688   5.412  14.735 -0.3462  1.1235 -0.0435
13571TIP3   OH262127   0.152   5.817  16.144 -0.4226 -0.3221 -0.5689
13571TIP3    H162128   0.203   5.857  16.215 -1.2111 -2.3424  1.2989
13571TIP3    H262129   0.217   5.795  16.077  0.3394  1.7594 -0.5772
13572TIP3   OH262130   4.014   1.644  16.342  0.4079  0.2348 -0.2530
13572TIP3    H162131   4.038   1.572  16.400  0.0658  1.5748  1.6711
13572TIP3    H262132   3.961   1.604  16.273 -0.5993 -1.2275  1.3034
13573TIP3   OH262133   2.762   6.473  12.879 -0.3339  0.3404  0.4021
13573TIP3    H162134   2.771   6.491  12.785 -0.2540 -0.9151  0.1505
13573TIP3    H262135   2.768   6.378  12.885 -1.0822  0.3570  1.6106
13574TIP3   OH262136   0.989   4.742   3.995 -0.2693  0.9355  0.1910
13574TIP3    H162137   0.957   4.813   4.051 -0.3518  1.0989 -0.0596
13574TIP3    H262138   1.041   4.687   4.053 -0.6693  0.8949  0.5141
13575TIP3   OH262139   6.587   5.245   0.406 -0.5221  0.1747 -0.0784
13575TIP3    H162140   6.663   5.246   0.347  0.3215 -0.8259  0.9335
13575TIP3    H262141   6.560   5.153   0.409  0.3374 -0.0809  2.1253
13576TIP3   OH262142   3.820   4.428  11.633 -0.2315  0.4802 -0.4261
13576TIP3    H162143   3.844   4.424  11.540 -1.8113  1.9031 -0.9346
13576TIP3    H262144   3.902   4.451  11.677  0.4860  0.0561 -1.4906
13577TIP3   OH262145   6.619   5.437   2.818  0.1720  0.7307  0.0261
13577TIP3    H162146   6.585   5.374   2.883 -0.4054  0.2542 -0.7152
13577TIP3    H262147   6.712   5.441   2.836  0.5183 -1.5408 -0.8547
13578TIP3   OH262148   5.062   1.044  15.816  0.1248  0.0353  0.4001
13578TIP3    H162149   5.153   1.069  15.802  0.2467 -1.0791 -1.0893
13578TIP3    H262150   5.051   1.041  15.911  1.8133 -0.4046  0.6029
13579TIP3   OH262151   4.466   1.236   0.087 -0.1122 -0.0148  0.1002
13579TIP3    H162152   4.436   1.322   0.114 -0.7232  0.1445 -1.0338
13579TIP3    H262153   4.420   1.175   0.145  0.5465  0.4073  1.1007
13580TIP3   OH262154   1.710   0.601  11.774 -0.7721 -0.1707 -0.4652
13580TIP3    H162155   1.791   0.564  11.738 -0.7292 -0.5567  0.0104
13580TIP3    H262156   1.675   0.655  11.703 -0.8351 -1.1337 -1.2004
13581TIP3   OH262157   6.417   0.000  17.217 -0.5345 -0.0074  0.0724
13581TIP3    H162158   6.445   0.064  17.282  2.8383 -1.7883  0.6100
13581TIP3    H262159   6.447   0.036  17.134 -0.7437  0.1587  0.0677
13582TIP3   OH262160   2.765   4.869  13.091  0.1145 -0.2205  0.6129
13582TIP3    H162161   2.754   4.953  13.046  1.2200  1.4336  3.2074
13582TIP3    H262162   2.675   4.839  13.108 -0.2959  0.8068  0.3155
13583TIP3   OH262163   4.001   0.472   3.680  0.2347 -0.3736  0.2249
13583TIP3    H162164   3.961   0.455   3.765 -0.0159  0.9868  0.4042
13583TIP3    H262165   4.045   0.390   3.657 -0.8502 -1.2095  1.0216
13584TIP3   OH262166   1.530   1.117  11.784  0.4833  0.1802 -0.4117
13584TIP3    H162167   1.446   1.110  11.738  0.0542  1.2170  0.1767
13584TIP3    H262168   1.564   1.028  11.785 -0.4404 -0.1990 -0.9709
13585TIP3   OH262169   1.521   5.431  10.748 -0.5105 -0.5789 -0.3440
13585TIP3    H162170   1.468   5.405  10.824  0.4526  0.0610  0.5767
13585TIP3    H262171   1.530   5.526  10.758  4.6183 -1.0140  2.2299
13586TIP3   OH262172   5.170   4.010  10.860  0.1650 -0.1433 -0.4163
13586TIP3    H162173   5.084   3.970  10.851  0.4153 -0.9530  0.5835
13586TIP3    H262174   5.172   4.079  10.794 -1.2635 -0.0850 -0.4212
13587TIP3   OH262175   3.764   1.413  17.264  0.0418  0.0015 -0.3209
13587TIP3    H162176   3.774   1.404  17.169  2.3330  0.1887 -0.1475
13587TIP3    H262177   3.677   1.450  17.275 -0.3479 -0.1668 -2.3365
13588TIP3   OH262178   2.983   2.891  14.449 -0.1014 -0.5157  0.6114
13588TIP3    H162179   2.933   2.820  14.408  1.3447 -0.5531 -1.1651
13588TIP3    H262180   3.015   2.944  14.377  1.2110  0.3391  1.7607
13589TIP3   OH262181   2.251   1.021  13.847  0.6728 -0.2779  0.6943
13589TIP3    H162182   2.192   0.973  13.790  0.9680  0.6428 -0.4234
13589TIP3    H262183   2.196   1.048  13.921 -0.0524 -0.3533  0.1931
13590TIP3   OH262184   2.079   3.939  12.447  0.1207  0.2722  0.5427
13590TIP3    H162185   1.992   3.923  12.482 -0.2554 -0.9803 -0.8981
13590TIP3    H262186   2.120   3.997  12.512 -1.1941 -0.4147  2.0578
13591TIP3   OH262187   0.855   0.927   2.402 -0.1320 -0.3584  0.4594
13591TIP3    H162188   0.827   0.849   2.355  0.0231 -1.8884  2.7434
13591TIP3    H262189   0.790   0.938   2.471 -0.2046  1.6285  0.1323
13592TIP3   OH262190   2.625   2.942  11.847 -0.0372 -0.1766  0.3200
13592TIP3    H162191   2.696   2.938  11.783 -1.4022 -1.9497 -1.1825
13592TIP3    H262192   2.649   2.878  11.913 -0.2435 -0.8426 -0.2353
13593TIP3   OH262193   3.800   4.971   1.408 -0.3648  0.4721  0.2575
13593TIP3    H162194   3.863   4.940   1.343 -0.2347  0.9908  0.1387
13593TIP3    H262195   3.726   5.002   1.356 -0.6110  0.1147  0.3885
13594TIP3   OH262196   5.092   0.911  14.506 -0.2576  0.2142  0.9805
13594TIP3    H162197   5.018   0.877  14.556 -2.0573  0.2367 -1.5003
13594TIP3    H262198   5.090   1.005  14.520 -1.4435  0.3461  0.0533
13595TIP3   OH262199   2.053   1.592   2.783  0.2286 -0.3940  0.1751
13595TIP3    H162200   2.091   1.506   2.763  0.5597 -0.1723 -0.1684
13595TIP3    H262201   2.127   1.643   2.817  0.4693  0.3377 -1.3678
13596TIP3   OH262202   4.131   4.203  11.731 -0.2312  0.1340  0.1218
13596TIP3    H162203   4.112   4.119  11.773 -1.3136  0.6238  0.6508
13596TIP3    H262204   4.069   4.264  11.770  0.9359  1.3259  0.1874
13597TIP3   OH262205   2.856   2.074   0.663 -0.3739  0.6368 -0.1318
13597TIP3    H162206   2.765   2.084   0.633 -0.7995  0.6055  1.0779
13597TIP3    H262207   2.856   2.112   0.751  0.5753 -0.2005  0.2480
13598TIP3   OH262208   1.325   0.139   3.235 -0.0654  0.1842 -0.2548
13598TIP3    H162209   1.265   0.079   3.190  0.4863 -0.8149  0.3157
13598TIP3    H262210   1.297   0.136   3.326  0.8329 -0.2870  0.0174
13599TIP3   OH262211   1.434   3.698  12.929  0.0108  0.0170 -0.1136
13599TIP3    H162212   1.530   3.700  12.929  0.0145  0.3362 -0.8123
13599TIP3    H262213   1.410   3.756  12.857 -0.6559 -1.7916 -1.4460
13600TIP3   OH262214   4.559   3.713  16.662 -0.1703  0.5612  0.0355
13600TIP3    H162215   4.601   3.793  16.630  1.4679  0.8303  2.5565
13600TIP3    H262216   4.615   3.642  16.628 -0.4490  0.5941 -0.5096
13601TIP3   OH262217   1.660   5.101   3.517  0.1722  0.8467 -0.3116
13601TIP3    H162218   1.592   5.069   3.577  0.2135 -0.7854 -1.0814
13601TIP3    H262219   1.644   5.196   3.512 -1.4213  0.6512  0.2983
13602TIP3   OH262220   4.401   0.993  11.405 -0.4341 -0.2361 -0.0226
13602TIP3    H162221   4.403   1.085  11.429 -1.4424 -0.6315  1.7866
13602TIP3    H262222   4.456   0.950  11.471 -0.0901 -0.9400 -0.7561
13603TIP3   OH262223   2.742   1.570   5.400  0.2521 -0.4053 -0.1881
13603TIP3    H162224   2.802   1.558   5.473  0.1652  1.6126  0.2650
13603TIP3    H262225   2.656   1.585   5.441 -0.0268 -0.4333 -0.7445
13604TIP3   OH262226   3.628   2.744   1.107  0.4377  0.0670  0.2723
13604TIP3    H162227   3.609   2.752   1.201  0.1823  0.1566  0.2130
13604TIP3    H262228   3.699   2.680   1.103 -0.0463 -0.4943  0.4783
13605TIP3   OH262229   6.463   0.479  12.614 -0.3165 -0.0917 -0.2699
13605TIP3    H162230   6.424   0.521  12.691  1.4850 -0.4061  0.8922
13605TIP3    H262231   6.557   0.489  12.627  0.2290 -3.8233 -0.2949
13606TIP3   OH262232   1.311   1.084  14.536  0.1838  0.3221 -0.0329
13606TIP3    H162233   1.331   1.010  14.478 -0.0385  0.6489 -0.5318
13606TIP3    H262234   1.380   1.148  14.517 -0.5830  0.9257 -0.8280
13607TIP3   OH262235   2.502   4.188   1.629  0.2931  0.0091  0.1818
13607TIP3    H162236   2.594   4.199   1.608  0.2203 -1.1228 -0.8672
13607TIP3    H262237   2.456   4.202   1.546 -0.2228 -2.0243  0.0678
13608TIP3   OH262238   2.966   1.696   0.719  0.1139  0.0982 -0.3497
13608TIP3    H162239   2.959   1.601   0.723  0.2004  0.0889 -0.4136
13608TIP3    H262240   2.942   1.718   0.629 -1.6018  0.2846  0.1316
13609TIP3   OH262241   3.876   3.067   5.813  0.3453  0.4315 -0.5049
13609TIP3    H162242   3.848   3.054   5.722 -3.9545 -0.0475  0.6354
13609TIP3    H262243   3.840   3.153   5.836  2.5215  1.1398  0.4570
13610TIP3   OH262244   2.267   3.295   4.754 -0.3784  0.2068 -0.3559
13610TIP3    H162245   2.270   3.390   4.769 -0.0715  0.5694 -2.4012
13610TIP3    H262246   2.175   3.277   4.735 -0.2702  0.2691 -0.9423
13611TIP3   OH262247   2.636   5.807   5.391  0.5233  0.1709  0.0995
13611TIP3    H162248   2.581   5.729   5.399  0.5476  0.0614 -0.7827
13611TIP3    H262249   2.574   5.879   5.380  0.5062  0.2723  0.7880
13612TIP3   OH262250   5.171   1.031   4.866 -0.2311 -0.1631  0.3479
13612TIP3    H162251   5.177   0.983   4.949 -1.7913 -0.9132  0.0632
13612TIP3    H262252   5.130   0.969   4.806  0.3917  0.5541 -0.8486
13613TIP3   OH262253   1.896   0.911   5.452 -0.4250 -0.2433  0.0414
13613TIP3    H162254   1.811   0.873   5.475 -0.2795 -0.5482  0.0685
13613TIP3    H262255   1.905   0.987   5.510 -0.0334 -1.0383  1.0354
13614TIP3   OH262256   1.984   4.454   0.732  0.3082  0.1131  0.4634
13614TIP3    H162257   2.050   4.443   0.800 -0.4465 -1.9305  0.9538
13614TIP3    H262258   1.906   4.485   0.779  0.6623  1.7310  0.0167
13615TIP3   OH262259   6.722   0.660   3.796  0.4249 -0.0291  0.2183
13615TIP3    H162260   6.674   0.630   3.873  0.1964 -1.5812 -0.4738
13615TIP3    H262261   6.787   0.591   3.780  0.3925  0.2020 -1.0371
13616TIP3   OH262262   0.391   0.791   3.986 -0.2346 -0.1581  0.2818
13616TIP3    H162263   0.315   0.832   3.944 -0.9639 -0.3070  1.3993
13616TIP3    H262264   0.353   0.725   4.044  0.6101  0.9168  2.1457
13617TIP3   OH262265   2.015   0.642  16.393 -0.4985 -0.0130 -0.4636
13617TIP3    H162266   2.046   0.723  16.433  1.1733 -1.6540  1.8093
13617TIP3    H262267   1.936   0.619  16.443  0.1544 -0.7612  0.2552
13618TIP3   OH262268   1.150   1.640   3.251 -0.3498 -0.0011 -0.2277
13618TIP3    H162269   1.224   1.677   3.300 -0.9298  0.7730  0.0653
13618TIP3    H262270   1.167   1.665   3.160 -1.1458  1.7392  0.0571
13619TIP3   OH262271   1.689   1.584   6.687  0.4413  0.3156  0.3268
13619TIP3    H162272   1.743   1.521   6.735 -1.3683 -1.7204 -0.1651
13619TIP3    H262273   1.599   1.552   6.699 -0.4226  2.0691 -1.0825
13620TIP3   OH262274   2.595   3.333  17.158 -1.2686  0.3743 -0.5612
13620TIP3    H162275   2.623   3.386  17.084  0.9002 -0.9860 -0.8058
13620TIP3    H262276   2.501   3.320  17.145 -1.0565  0.7053 -2.7180
13621TIP3   OH262277   1.868   6.297   0.059  0.2390 -0.6850  0.4001
13621TIP3    H162278   1.776   6.318   0.047  0.4959  1.5067  1.6659
13621TIP3    H262279   1.899   6.273  -0.028 -1.4823 -1.3675 -0.0661
13622TIP3   OH262280   5.120   0.638  11.235  0.0265  0.3145  0.4024
13622TIP3    H162281   5.186   0.705  11.213 -0.0106  0.3082  0.2713
13622TIP3    H262282   5.063   0.635  11.159  0.3738 -0.2905  0.1563
13623TIP3   OH262283   5.079   4.323   2.840 -0.2534  0.4761  0.0658
13623TIP3    H162284   5.099   4.306   2.748  1.2225 -0.1986  0.4888
13623TIP3    H262285   5.028   4.404   2.839 -0.4743  0.3420 -1.3595
13624TIP3   OH262286   0.315   4.048   1.083 -0.5206  0.1678 -0.6565
13624TIP3    H162287   0.322   3.970   1.029 -3.6086 -0.9150  0.2658
13624TIP3    H262288   0.404   4.065   1.114  0.6106 -1.5808 -2.7011
13625TIP3   OH262289   2.314   0.249   2.083 -0.5627  0.4151 -0.3656
13625TIP3    H162290   2.224   0.241   2.051 -0.5413 -0.2442 -0.2759
13625TIP3    H262291   2.352   0.319   2.030 -1.0202  0.4563 -0.6497
13626TIP3   OH262292   3.730   4.684  14.599  0.2208 -0.3760  0.4818
13626TIP3    H162293   3.752   4.591  14.613 -0.4296 -0.4092  1.4701
13626TIP3    H262294   3.681   4.708  14.678 -0.7776  0.4454 -0.3562
13627TIP3   OH262295   3.398   2.921  12.332  0.2152 -0.5207 -0.0481
13627TIP3    H162296   3.332   2.991  12.342 -0.3042 -0.8971 -0.7628
13627TIP3    H262297   3.478   2.968  12.309 -0.0083 -0.1175 -0.0285
13628TIP3   OH262298   4.183   2.667  16.256 -0.1306 -0.3548  0.5669
13628TIP3    H162299   4.112   2.608  16.231  0.8555 -1.3756  0.0782
13628TIP3    H262300   4.165   2.689  16.348 -1.4209 -0.0573  0.2602
13629TIP3   OH262301   6.710   4.824   2.120  0.2497 -0.2808 -0.1019
13629TIP3    H162302   6.784   4.886   2.122  0.4935 -0.4760 -1.9654
13629TIP3    H262303   6.747   4.742   2.153  0.5645 -0.0812  0.0486
13630TIP3   OH262304   0.890   4.285  12.107  0.0612 -0.1595  0.0688
13630TIP3    H162305   0.834   4.349  12.064 -0.7881 -2.2890 -2.2374
13630TIP3    H262306   0.830   4.216  12.136  1.0798 -0.5649  1.3170
13631TIP3   OH262307   2.344   4.247  17.052  0.4286  0.0100  0.2098
13631TIP3    H162308   2.406   4.229  17.123  0.0788 -0.0745  0.5007
13631TIP3    H262309   2.289   4.169  17.048  1.0270 -0.3739 -0.7842
13632TIP3   OH262310   3.895   2.893   6.517  0.0855 -0.3442 -0.3046
13632TIP3    H162311   3.827   2.829   6.494  0.9539 -0.7546 -1.8905
13632TIP3    H262312   3.881   2.965   6.456  3.0337 -1.8716 -3.0971
13633TIP3   OH262313   4.277   0.647  13.365  0.3787  0.1168 -0.6269
13633TIP3    H162314   4.296   0.666  13.457  3.0488 -2.2157 -0.5723
13633TIP3    H262315   4.308   0.725  13.318  0.8183  0.5205  0.3029
13634TIP3   OH262316   0.635   5.159   0.869 -0.1190 -0.3962 -0.1823
13634TIP3    H162317   0.645   5.092   0.801  1.4553  0.6945 -1.0669
13634TIP3    H262318   0.563   5.126   0.924  0.5532 -2.7817 -0.5989
13635TIP3   OH262319   3.263   0.567  13.654 -0.1874 -0.1444 -0.0104
13635TIP3    H162320   3.324   0.494  13.664  0.5572  0.6268  1.4345
13635TIP3    H262321   3.184   0.528  13.617 -0.1751 -1.8868  1.6439
13636TIP3   OH262322   5.531   5.882   2.190  0.2469  0.6858  0.4267
13636TIP3    H162323   5.577   5.817   2.243  0.5764  1.0658  0.6103
13636TIP3    H262324   5.578   5.964   2.205  0.7426  0.6738 -0.9512
13637TIP3   OH262325   5.011   4.627  14.414  0.2665 -0.2563 -0.4716
13637TIP3    H162326   5.067   4.618  14.490 -0.0209  2.0798  0.0779
13637TIP3    H262327   4.926   4.594  14.442  0.2351  0.3435  0.1496
13638TIP3   OH262328   2.297   0.071   6.260 -0.1508 -0.0900 -1.0075
13638TIP3    H162329   2.212   0.087   6.221 -0.5795  1.8475  0.5994
13638TIP3    H262330   2.280   0.061   6.353  1.3678  0.2837 -0.6559
13639TIP3   OH262331   4.344   4.813  15.442 -0.2817 -0.1830 -0.3002
13639TIP3    H162332   4.399   4.736  15.432 -0.2975 -0.3967  1.0916
13639TIP3    H262333   4.256   4.779  15.457  0.1019 -0.0499  2.9164
13640TIP3   OH262334   1.339   6.489   0.831  0.9351  0.7391 -0.4525
13640TIP3    H162335   1.404   6.447   0.775 -0.9027 -1.9181 -0.7417
13640TIP3    H262336   1.272   6.522   0.770 -0.7055 -1.5091  0.0151
13641TIP3   OH262337   2.310   2.113  13.207  0.5298  0.7098  0.3093
13641TIP3    H162338   2.254   2.107  13.284  1.6233  1.9970  1.2369
13641TIP3    H262339   2.353   2.027  13.202 -1.3236 -0.2470 -0.3298
13642TIP3   OH262340   1.006   3.908  16.252 -0.4802 -0.2104 -0.0763
13642TIP3    H162341   0.957   3.854  16.314 -0.8635 -0.3964 -0.5369
13642TIP3    H262342   0.942   3.971  16.219 -0.5472 -0.7871 -1.0719
13643TIP3   OH262343   4.475   5.115   0.487  0.4161  0.2539  0.1033
13643TIP3    H162344   4.390   5.148   0.516  0.3615 -0.4104  0.7313
13643TIP3    H262345   4.478   5.135   0.394  0.3262  1.8944  0.4195
13644TIP3   OH262346   6.256   1.664   4.264 -0.3387 -0.3056 -0.1935
13644TIP3    H162347   6.302   1.595   4.311 -1.2550 -2.8499 -2.7301
13644TIP3    H262348   6.182   1.687   4.321 -0.6508 -2.2715  0.2683
13645TIP3   OH262349   5.460   3.130  11.379  0.2507 -0.1582 -0.1372
13645TIP3    H162350   5.423   3.070  11.313  2.2409  0.1601 -1.6346
13645TIP3    H262351   5.424   3.215  11.356  1.0458 -0.0224 -0.9692
13646TIP3   OH262352   1.899   1.414   3.561  0.1864 -0.1371 -0.2104
13646TIP3    H162353   1.825   1.353   3.550 -0.1329  0.3597 -0.8831
13646TIP3    H262354   1.890   1.475   3.488  1.9124 -0.7301 -0.9787
13647TIP3   OH262355   6.067   2.388  16.916 -0.1513  0.2003 -0.1127
13647TIP3    H162356   5.974   2.366  16.919 -0.6305  2.0702 -0.2664
13647TIP3    H262357   6.070   2.476  16.879  1.7718 -0.2495 -1.1455
13648TIP3   OH262358   4.249   1.844   3.495  0.0577 -0.5461  0.1694
13648TIP3    H162359   4.168   1.850   3.444 -0.1776  1.4727  0.6765
13648TIP3    H262360   4.286   1.760   3.471 -0.8746 -0.3960 -2.1042
13649TIP3   OH262361   2.447   3.032  16.992 -0.4362 -0.2234 -0.1399
13649TIP3    H162362   2.520   3.016  17.052 -0.2458 -0.3711 -0.4086
13649TIP3    H262363   2.421   2.945  16.962  0.1000 -0.0919 -1.0150
13650TIP3   OH262364   1.686   5.934   4.163 -0.3603 -0.4124  0.0689
13650TIP3    H162365   1.642   6.001   4.216  1.7893  0.6001  0.6555
13650TIP3    H262366   1.723   5.982   4.089 -0.2086 -1.2373 -0.3983
13651TIP3   OH262367   6.596   0.003  13.274  0.2168 -0.0086 -0.5038
13651TIP3    H162368   6.671  -0.032  13.323  1.2573  1.4404 -1.0090
13651TIP3    H262369   6.623  -0.003  13.182 -1.5007 -2.2107 -0.9651
13652TIP3   OH262370   0.651   4.000  15.024 -0.2960  0.1615  0.1795
13652TIP3    H162371   0.697   4.067  15.075 -0.9362  1.7123 -1.1683
13652TIP3    H262372   0.593   3.958  15.088  1.6372 -0.6042  1.5047
13653TIP3   OH262373   4.519   4.661  15.100  0.4347 -0.2566  0.5473
13653TIP3    H162374   4.556   4.738  15.057  0.3735  0.4025  1.6518
13653TIP3    H262375   4.425   4.668  15.086  0.5036 -0.6686 -0.1975
13654TIP3   OH262376   5.562   5.707   6.134 -0.0847  0.2098  0.4970
13654TIP3    H162377   5.526   5.620   6.151  0.8972 -0.3030  0.0469
13654TIP3    H262378   5.651   5.703   6.171  0.0355  0.9616  0.3001
13655TIP3   OH262379   6.088   0.839   4.657 -0.2096  0.0900 -0.2984
13655TIP3    H162380   6.081   0.801   4.744 -3.3872 -0.7942 -0.8301
13655TIP3    H262381   6.160   0.902   4.664  1.1463 -1.5774  2.2762
13656TIP3   OH262382   6.086   3.945  14.303 -0.1613  0.9268  0.6073
13656TIP3    H162383   6.139   4.024  14.300  2.2350 -0.6182 -0.9530
13656TIP3    H262384   6.027   3.952  14.228  1.0055  0.6629 -0.3658
13657TIP3   OH262385   3.652   1.371  12.968 -0.5962  0.7983  0.8085
13657TIP3    H162386   3.690   1.440  12.915  2.3218 -0.3161  1.2861
13657TIP3    H262387   3.626   1.415  13.049 -0.0172  1.5721  0.5874
13658TIP3   OH262388   1.004   2.771   0.084 -0.3394 -0.1614  0.9423
13658TIP3    H162389   1.015   2.849   0.138  0.7767  0.3049  0.0823
13658TIP3    H262390   0.941   2.717   0.132  0.6809  0.1864  2.7748
13659TIP3   OH262391   2.048   5.293  16.001  0.0466 -0.3020 -0.2582
13659TIP3    H162392   1.989   5.315  15.929 -1.1223  0.3746  0.8682
13659TIP3    H262393   2.072   5.202  15.985 -1.4471 -0.6593 -0.6758
13660TIP3   OH262394   3.725   6.418   1.496  0.4141  0.6287 -0.3850
13660TIP3    H162395   3.694   6.328   1.484  1.9077  0.2456 -2.0281
13660TIP3    H262396   3.682   6.468   1.427 -1.3128  1.4990  1.2329
13661TIP3   OH262397   3.462   4.795   1.014 -0.4357  0.6770 -0.2995
13661TIP3    H162398   3.419   4.861   1.068  1.4090  1.1884  0.6468
13661TIP3    H262399   3.515   4.846   0.952 -0.0914  0.0790 -0.4999
13662TIP3   OH262400   5.241   6.691  15.101  0.0327  0.9857  0.0561
13662TIP3    H162401   5.306   6.688  15.171 -0.3044  0.1756  0.3445
13662TIP3    H262402   5.293   6.688  15.020  0.3354 -0.6512  0.2834
13663TIP3   OH262403   6.105   2.609   2.858 -0.2260 -0.3022 -0.8952
13663TIP3    H162404   6.046   2.568   2.922  0.2212 -0.7842 -0.7845
13663TIP3    H262405   6.185   2.626   2.907  0.0280 -0.4314 -1.2584
13664TIP3   OH262406   4.059   6.382   0.782 -0.2569 -0.0062  0.6160
13664TIP3    H162407   4.134   6.410   0.730 -0.7775 -0.8747 -0.6341
13664TIP3    H262408   4.081   6.293   0.810 -1.6371 -1.1062 -1.5162
13665TIP3   OH262409   0.172   1.822  11.843  0.5602  0.0890  0.4751
13665TIP3    H162410   0.137   1.906  11.814 -0.5811 -0.8913 -1.1822
13665TIP3    H262411   0.251   1.809  11.792  0.4168 -0.1078  0.3023
13666TIP3   OH262412   5.995   4.763   2.843 -0.4238 -0.5901  0.3253
13666TIP3    H162413   5.983   4.854   2.819  1.6700 -0.7092 -1.5558
13666TIP3    H262414   6.066   4.764   2.907 -0.8786 -0.8475  0.8364
13667TIP3   OH262415   5.131   5.794  15.870  0.2749 -0.2552  0.2443
13667TIP3    H162416   5.096   5.705  15.872 -1.6383  0.4487 -0.0812
13667TIP3    H262417   5.110   5.827  15.783 -1.7342  1.4937  1.3071
13668TIP3   OH262418   3.865   4.187   5.767  0.4309 -0.2707 -0.0175
13668TIP3    H162419   3.949   4.149   5.743  0.3218 -0.9140  0.5780
13668TIP3    H262420   3.847   4.152   5.855  0.6364  1.6706  0.8629
13669TIP3   OH262421   5.684   0.617   5.795  0.2363 -0.0076 -0.6168
13669TIP3    H162422   5.685   0.558   5.870 -0.5991  1.1089  0.3162
13669TIP3    H262423   5.775   0.624   5.767  0.5305 -0.5748  0.1920
13670TIP3   OH262424   5.662   6.472  11.987 -0.0007  0.2598  0.5205
13670TIP3    H162425   5.582   6.466  12.040 -0.8123  0.0179 -0.6899
13670TIP3    H262426   5.637   6.524  11.911  0.9088 -0.0700 -0.0281
13671TIP3   OH262427   5.801   0.360  14.833  0.0889 -0.2087 -0.0926
13671TIP3    H162428   5.707   0.352  14.819  0.1940 -0.5179 -0.6399
13671TIP3    H262429   5.839   0.284  14.790  0.5146 -0.6378  1.0246
13672TIP3   OH262430   3.235   3.162   6.213 -0.4442 -0.2183  0.4243
13672TIP3    H162431   3.152   3.189   6.174 -1.0998 -1.8594  0.6018
13672TIP3    H262432   3.235   3.203   6.300 -0.4977  0.7654 -0.0304
13673TIP3   OH262433   3.660   6.437  14.891  0.1044  0.3178 -0.1357
13673TIP3    H162434   3.677   6.353  14.934 -0.0838  0.2374 -0.2195
13673TIP3    H262435   3.729   6.444  14.825  1.5146  1.2681  1.3329
13674TIP3   OH262436   1.755   3.997  17.243 -0.7553  0.5718 -0.0506
13674TIP3    H162437   1.770   4.060  17.314 -1.8693  0.6683  0.1172
13674TIP3    H262438   1.812   4.026  17.173  2.2379 -0.9011  1.5877
13675TIP3   OH262439   4.603   4.938   1.874 -0.2890  0.4400 -0.0396
13675TIP3    H162440   4.631   4.922   1.784  2.0817 -0.1685  0.7245
13675TIP3    H262441   4.648   5.019   1.899 -0.8409  0.5498  0.6359
13676TIP3   OH262442   4.300   1.574  15.412  0.5052  0.3768  0.3087
13676TIP3    H162443   4.392   1.548  15.425  0.4837 -0.2425 -0.6217
13676TIP3    H262444   4.253   1.530  15.483  0.4905 -2.1646 -1.1317
13677TIP3   OH262445   2.678   0.484   5.388 -0.1076 -0.3739  0.4747
13677TIP3    H162446   2.737   0.483   5.313 -0.2413  0.0313  0.3580
13677TIP3    H262447   2.648   0.575   5.393 -0.2130 -0.4331  0.9293
13678TIP3   OH262448   4.808   0.968   3.021 -0.2522  0.1336 -0.4530
13678TIP3    H162449   4.879   1.029   3.039 -1.1499  1.1333 -0.2000
13678TIP3    H262450   4.849   0.898   2.970  1.1047  0.2089  0.4849
13679TIP3   OH262451   4.214   4.644   1.593 -0.1483  0.1397 -0.3014
13679TIP3    H162452   4.123   4.666   1.571 -0.4053  0.4129  0.9472
13679TIP3    H262453   4.223   4.669   1.685  1.5455  1.2144 -0.7131
13680TIP3   OH262454   4.421   0.304   6.472 -0.2528 -0.9034  0.3663
13680TIP3    H162455   4.511   0.336   6.459 -0.9631  1.4707  0.7459
13680TIP3    H262456   4.420   0.275   6.563  0.0459 -0.6034  0.4710
13681TIP3   OH262457   6.063   3.631  16.833 -0.5500 -0.1008 -0.1765
13681TIP3    H162458   6.094   3.542  16.813 -0.3333  0.4751 -2.7775
13681TIP3    H262459   5.976   3.618  16.870 -0.3105 -1.4281 -0.0187
13682TIP3   OH262460   4.368   2.525  14.326  0.1264 -0.3951  0.2060
13682TIP3    H162461   4.386   2.444  14.278  1.7804 -0.5667  1.0287
13682TIP3    H262462   4.375   2.500  14.418 -0.7474  0.3980  0.4964
13683TIP3   OH262463   1.873   2.898   1.194  0.2395  0.2035 -0.5878
13683TIP3    H162464   1.967   2.919   1.197  0.5450 -1.0590 -0.7512
13683TIP3    H262465   1.842   2.913   1.283  0.6037  0.5793 -0.5209
13684TIP3   OH262466   2.676   1.058  12.121  0.1576  0.3992 -0.2814
13684TIP3    H162467   2.738   1.123  12.154 -1.4221  1.1472  1.4238
13684TIP3    H262468   2.672   0.991  12.189 -1.8966  1.1038  0.3857
13685TIP3   OH262469   3.874   5.187   1.213 -0.0658 -0.2921 -0.3181
13685TIP3    H162470   3.921   5.110   1.181  3.4421  1.0674  1.1420
13685TIP3    H262471   3.896   5.257   1.151 -0.8186  0.2519  0.0050
13686TIP3   OH262472   6.453   5.941   2.890  0.8801 -0.0342  0.4957
13686TIP3    H162473   6.503   5.906   2.816 -2.5621 -1.0473 -1.5852
13686TIP3    H262474   6.401   5.867   2.922 -0.6579  1.3020  1.2865
13687TIP3   OH262475   3.579   5.821   3.723 -0.2837 -0.2091 -0.1934
13687TIP3    H162476   3.553   5.843   3.634 -1.0124  1.1952  0.3414
13687TIP3    H262477   3.498   5.793   3.765  0.4850 -3.7393 -0.6943
13688TIP3   OH262478   3.002   6.017   5.882  0.4330  0.7896  0.5443
13688TIP3    H162479   2.953   6.003   5.963 -0.6588  1.8110  0.0798
13688TIP3    H262480   3.056   5.938   5.874 -1.3000 -0.5095  0.9599
13689TIP3   OH262481   4.473   0.300  14.005  0.5997 -0.1702  0.0435
13689TIP3    H162482   4.497   0.209  14.025 -0.2818 -0.1965  1.0341
13689TIP3    H262483   4.516   0.317  13.921  1.0510 -1.3944 -0.0046
13690TIP3   OH262484   1.921   3.048   6.107  0.2169  0.1834 -0.1552
13690TIP3    H162485   2.015   3.032   6.107  0.4006  1.1230  0.8858
13690TIP3    H262486   1.904   3.091   6.191 -0.5570  3.2568 -1.7426
13691TIP3   OH262487   2.151   2.517  10.856 -0.0718 -0.2077 -0.0909
13691TIP3    H162488   2.135   2.471  10.939 -2.3884  2.3398  1.0510
13691TIP3    H262489   2.163   2.608  10.882  1.9781  0.2651 -2.4135
13692TIP3   OH262490   0.981   0.615  14.652  0.2234 -0.2355  0.3005
13692TIP3    H162491   1.048   0.548  14.647 -1.1980 -1.6483 -0.9385
13692TIP3    H262492   0.916   0.580  14.713 -1.3788 -0.8834 -1.6659
13693TIP3   OH262493   6.512   1.374  15.685 -0.2634  0.6568 -0.6258
13693TIP3    H162494   6.502   1.288  15.644 -0.4834  0.3094  0.1506
13693TIP3    H262495   6.582   1.416  15.635 -1.6347  0.9027 -2.4460
13694TIP3   OH262496   6.743   0.607  12.007  0.2640 -0.1919 -0.2614
13694TIP3    H162497   6.674   0.588  12.070 -3.2125  3.3170 -2.4883
13694TIP3    H262498   6.765   0.699  12.023  2.0386 -0.2910 -1.7697
13695TIP3   OH262499   3.540   2.512   4.330 -0.1934 -0.1403  0.2256
13695TIP3    H162500   3.528   2.448   4.260  0.1871  1.4101 -1.3421
13695TIP3    H262501   3.463   2.502   4.386 -0.9846 -0.7884 -0.9462
13696TIP3   OH262502   0.852   2.058   2.934 -0.3340 -0.1091  0.6799
13696TIP3    H162503   0.774   2.072   2.988 -1.1258  1.1217 -0.7076
13696TIP3    H262504   0.844   2.122   2.864  1.9491  0.0481  0.4899
13697TIP3   OH262505   3.870   5.859   1.243 -0.1761 -0.0286 -0.8558
13697TIP3    H162506   3.880   5.765   1.257 -1.9475 -0.1404 -0.1071
13697TIP3    H262507   3.939   5.881   1.181  2.1170 -1.2696  1.0948
13698TIP3   OH262508   6.698   5.221  16.464  0.0660 -0.1821  0.6777
13698TIP3    H162509   6.610   5.192  16.488 -0.4128 -1.1317 -1.8794
13698TIP3    H262510   6.755   5.148  16.489 -0.2585 -0.6926 -0.0532
13699TIP3   OH262511   2.329   0.508  15.383 -0.0840 -0.2245 -0.4276
13699TIP3    H162512   2.238   0.493  15.409 -0.2899  0.7216 -0.5542
13699TIP3    H262513   2.323   0.572  15.313  0.6306 -0.9306 -1.1451
13700TIP3   OH262514   3.298   6.646   5.539  0.1032  0.0474 -0.4475
13700TIP3    H162515   3.233   6.715   5.556 -0.5119 -0.2784 -1.3808
13700TIP3    H262516   3.293   6.589   5.616 -0.1781  0.4427 -0.1662
13701TIP3   OH262517   6.751   5.102  14.162  0.3684 -0.2537  0.5001
13701TIP3    H162518   6.820   5.154  14.203 -0.2789  0.6672  0.4439
13701TIP3    H262519   6.712   5.160  14.096  0.7837 -1.4068 -0.7943
13702TIP3   OH262520   0.052   6.092   1.965  0.0873  0.3264  0.3039
13702TIP3    H162521  -0.037   6.067   1.938 -0.2110  2.5549 -0.9747
13702TIP3    H262522   0.098   6.008   1.975 -1.1630 -0.8261 -2.5340
13703TIP3   OH262523   1.553   5.742   0.508 -0.2290 -0.4125 -0.0982
13703TIP3    H162524   1.534   5.791   0.587 -1.1321 -0.5410 -0.2295
13703TIP3    H262525   1.607   5.801   0.455  2.6144 -1.2385  1.6776
13704TIP3   OH262526   2.080   6.340  13.408 -0.6058  0.7303  0.4574
13704TIP3    H162527   2.117   6.427  13.417 -0.4867  0.5808  1.4949
13704TIP3    H262528   2.040   6.321  13.493  1.4295 -1.1547  1.1100
13705TIP3   OH262529   3.880   6.028   5.109 -0.0315 -0.1540 -0.2815
13705TIP3    H162530   3.843   6.078   5.183 -1.9165 -0.4609 -0.9752
13705TIP3    H262531   3.880   5.937   5.140  2.9536  0.1016  0.7972
13706TIP3   OH262532   5.947   1.680   4.129  0.1558  0.1384 -0.3805
13706TIP3    H162533   5.874   1.666   4.189 -0.2516 -1.2863 -1.1578
13706TIP3    H262534   6.010   1.613   4.152  0.1543 -0.1852 -1.2836
13707TIP3   OH262535   4.290   3.888   0.032 -0.3169  0.1717  0.2893
13707TIP3    H162536   4.334   3.820   0.083 -1.5428 -0.0731  1.0803
13707TIP3    H262537   4.270   3.846  -0.052  0.0139 -0.0432  0.3162
13708TIP3   OH262538   1.321   1.328  13.990  0.2619 -0.3825 -0.3170
13708TIP3    H162539   1.236   1.283  13.982 -0.0969  0.0266  1.0010
13708TIP3    H262540   1.328   1.350  14.083  2.7213 -2.1809  0.0390
13709TIP3   OH262541   4.574   5.969  13.236  0.2543 -0.3191  0.0510
13709TIP3    H162542   4.580   6.059  13.267  0.0229 -0.7155  1.3214
13709TIP3    H262543   4.481   5.956  13.217  0.3241 -0.2231 -0.3674
13710TIP3   OH262544   3.985   4.100  14.020 -0.1070  0.5610  0.5726
13710TIP3    H162545   4.001   4.164  14.089 -0.3436  2.9003 -1.4163
13710TIP3    H262546   3.895   4.115  13.993  0.7891  1.7480 -2.1250
13711TIP3   OH262547   5.678   2.367  17.167 -0.4533  0.1738  0.2990
13711TIP3    H162548   5.727   2.393  17.088 -2.0841  1.1165 -0.4447
13711TIP3    H262549   5.625   2.444  17.188 -2.6682 -1.2823  0.2412
13712TIP3   OH262550   3.103   3.145   0.653 -0.0421  0.7997 -0.2186
13712TIP3    H162551   3.143   3.065   0.620  0.2905 -0.4667  2.8539
13712TIP3    H262552   3.015   3.118   0.681  0.4308  1.1336  1.8105
13713TIP3   OH262553   2.364   5.952  13.692 -0.2714 -0.3853 -0.0102
13713TIP3    H162554   2.442   5.947  13.746  1.0652 -0.4508 -1.8454
13713TIP3    H262555   2.356   6.044  13.669 -1.0947 -0.2852  0.6533
13714TIP3   OH262556   1.128   2.799  14.423 -0.0142  0.2136 -0.3903
13714TIP3    H162557   1.134   2.893  14.439  1.6792 -0.1775  1.6675
13714TIP3    H262558   1.082   2.792  14.339  2.0826  2.9566 -1.9440
13715TIP3   OH262559   6.023   1.773   1.486  0.2019 -0.4921 -0.2396
13715TIP3    H162560   5.982   1.689   1.504 -1.0534 -0.2077 -1.5092
13715TIP3    H262561   6.094   1.781   1.550 -0.9799 -1.5619  1.2492
13716TIP3   OH262562   2.948   2.982   6.205 -0.4529 -0.3741  0.5394
13716TIP3    H162563   2.947   3.009   6.297 -0.6400 -0.2197  0.4934
13716TIP3    H262564   2.880   3.035   6.164  0.4556  0.4428  0.0546
13717TIP3   OH262565   1.887   3.555  11.955  0.2972  1.0825  0.2857
13717TIP3    H162566   1.909   3.478  11.902  0.0058  1.4680 -0.4077
13717TIP3    H262567   1.964   3.611  11.948 -0.5832  2.1370 -1.5984
13718TIP3   OH262568   1.396   4.278  13.828 -0.4561 -0.0010 -0.0243
13718TIP3    H162569   1.357   4.288  13.742  0.2815  1.1089 -0.2513
13718TIP3    H262570   1.487   4.255  13.810 -0.4924 -0.5553  0.4705
13719TIP3   OH262571   4.841   3.456  14.408  0.4447  0.2884  0.3926
13719TIP3    H162572   4.769   3.399  14.381  1.2040 -0.2481 -0.5425
13719TIP3    H262573   4.890   3.404  14.471  1.2293 -0.1733 -0.5805
13720TIP3   OH262574   3.037   2.795  14.708 -0.4317  0.0978  0.4561
13720TIP3    H162575   3.010   2.819  14.620 -2.4393 -2.3567  0.2828
13720TIP3    H262576   3.047   2.700  14.705  2.1485  0.1879  2.2597
13721TIP3   OH262577   0.533   2.437   3.179 -0.2834 -0.3120 -0.5913
13721TIP3    H162578   0.560   2.455   3.089 -0.0219 -0.4846 -0.5480
13721TIP3    H262579   0.437   2.438   3.176 -0.3184 -2.3800 -1.2981
13722TIP3   OH262580   5.389   1.701   2.770  0.3264  0.1940  0.5389
13722TIP3    H162581   5.404   1.725   2.862 -2.1591 -0.9287  1.3007
13722TIP3    H262582   5.297   1.676   2.766 -0.0571  1.6256 -2.6055
13723TIP3   OH262583   1.567   5.799  11.109 -0.0664 -0.0975  0.3310
13723TIP3    H162584   1.494   5.854  11.079  0.6336 -0.5950 -2.5950
13723TIP3    H262585   1.643   5.857  11.106  0.3351 -0.6597 -0.8123
13724TIP3   OH262586   4.510   2.331   4.829  0.1861  0.0638  0.2379
13724TIP3    H162587   4.448   2.396   4.863 -0.6415 -1.5655  2.0601
13724TIP3    H262588   4.567   2.312   4.904 -1.7118 -3.6999  0.9807
13725TIP3   OH262589   3.890   2.242   0.944 -0.2728 -0.1050  0.1311
13725TIP3    H162590   3.899   2.202   1.030 -0.8180 -1.4038 -0.3878
13725TIP3    H262591   3.805   2.286   0.946  0.6557  1.7420  0.9576
13726TIP3   OH262592   4.060   1.442   1.010 -0.2779 -0.6870  0.0212
13726TIP3    H162593   3.989   1.387   1.043  0.3961 -1.3625  0.3662
13726TIP3    H262594   4.072   1.414   0.920 -2.7187  1.7601 -1.2248
13727TIP3   OH262595   2.881   6.383   6.129  0.0828  0.0136 -0.5826
13727TIP3    H162596   2.817   6.332   6.180  0.1001 -1.1045 -1.6336
13727TIP3    H262597   2.966   6.349   6.158  0.1356  0.2015 -0.5187
13728TIP3   OH262598   3.246   0.350  16.460  0.2932 -0.0028 -0.1775
13728TIP3    H162599   3.280   0.269  16.421 -0.3815 -1.0252  1.2857
13728TIP3    H262600   3.152   0.346  16.444  0.2390  0.4333  0.0215
13729TIP3   OH262601   0.563   5.388   1.052 -0.2323  0.5228  0.0797
13729TIP3    H162602   0.494   5.353   1.110 -1.1664  0.4535 -1.0355
13729TIP3    H262603   0.570   5.324   0.982 -1.1931  1.9584 -1.4152
13730TIP3   OH262604   3.806   0.125  12.894 -0.0264  0.0173  0.0567
13730TIP3    H162605   3.763   0.092  12.815 -1.7219  3.0068 -0.4249
13730TIP3    H262606   3.761   0.208  12.912  1.3203  0.1620  3.3223
13731TIP3   OH262607   5.601   1.547   5.279 -0.0895 -0.4116 -0.2681
13731TIP3    H162608   5.625   1.541   5.372 -0.7767 -1.1227 -0.1274
13731TIP3    H262609   5.597   1.457   5.249  1.8505 -0.1504 -1.4822
13732TIP3   OH262610   6.308   0.968  14.848 -0.2253  0.3177 -0.0250
13732TIP3    H162611   6.403   0.981  14.843 -0.0692 -0.7668 -0.0495
13732TIP3    H262612   6.273   1.015  14.772  0.4505 -0.6434 -0.9605
13733TIP3   OH262613   3.503   5.859   6.186  0.2773 -0.1919  0.5519
13733TIP3    H162614   3.573   5.924   6.192 -0.8187  1.0393  0.6082
13733TIP3    H262615   3.517   5.802   6.262  0.0160  1.3070  1.7781
13734TIP3   OH262616   6.352   1.045  13.190  0.9604 -0.3806  0.4295
13734TIP3    H162617   6.385   1.132  13.166  0.7650 -0.9011 -1.9836
13734TIP3    H262618   6.407   1.018  13.264  4.2959 -0.1050 -1.7298
13735TIP3   OH262619   6.727   4.034  13.002 -0.7070 -0.1677 -0.1361
13735TIP3    H162620   6.714   4.115  12.952 -1.6646 -1.0393 -1.3595
13735TIP3    H262621   6.765   3.973  12.939  2.0934 -0.1134  1.3112
13736TIP3   OH262622   5.068   4.003   1.709 -0.2917  0.0004  0.2640
13736TIP3    H162623   5.052   3.979   1.618 -0.3496 -0.5432  0.4155
13736TIP3    H262624   4.982   3.994   1.751 -0.6104  1.7120  0.0582
13737TIP3   OH262625   4.790   6.595   2.756 -0.3547  0.2216  0.1066
13737TIP3    H162626   4.819   6.507   2.733  1.9179  0.8881  0.2440
13737TIP3    H262627   4.819   6.650   2.684 -0.4655  1.0807  0.7002
13738TIP3   OH262628   1.729   6.163   1.786 -0.1492 -0.4830  0.5469
13738TIP3    H162629   1.680   6.160   1.703 -2.1823 -0.3858  1.6818
13738TIP3    H262630   1.710   6.250   1.821 -0.6035 -1.0936  1.8499
13739TIP3   OH262631   3.935   1.626   5.496  0.5469 -0.3939 -0.2138
13739TIP3    H162632   3.862   1.565   5.507  0.5446 -0.1934  0.9942
13739TIP3    H262633   4.009   1.570   5.471  1.0009 -1.1963  2.5977
13740TIP3   OH262634   0.233   0.546  14.102 -0.0079  0.2706 -0.4471
13740TIP3    H162635   0.139   0.526  14.104 -0.3943  1.9712  1.6765
13740TIP3    H262636   0.239   0.632  14.062  1.0308 -1.0900 -3.5028
13741TIP3   OH262637   5.413   3.436  12.616 -0.7069 -0.0836  0.1905
13741TIP3    H162638   5.401   3.343  12.632 -0.7736 -0.1130 -0.0356
13741TIP3    H262639   5.472   3.441  12.541 -0.1523  0.0589  0.6268
13742TIP3   OH262640   3.478   1.182   5.894 -0.2695  0.3205 -0.0251
13742TIP3    H162641   3.397   1.146   5.929  0.6094 -0.6747  1.0546
13742TIP3    H262642   3.514   1.234   5.966  1.0917 -0.9891  0.2876
13743TIP3   OH262643   0.271   5.980  12.255 -0.2871  0.6261  0.8876
13743TIP3    H162644   0.362   6.010  12.248 -0.0474 -0.3581 -1.3662
13743TIP3    H262645   0.237   6.023  12.333  1.2292  3.3499  0.1765
13744TIP3   OH262646   2.129   3.227  10.627  0.5355  0.0123  0.0987
13744TIP3    H162647   2.075   3.147  10.626  1.1698 -0.4245 -0.0261
13744TIP3    H262648   2.093   3.279  10.699  1.2800 -1.2125  1.4214
13745TIP3   OH262649   3.938   3.093  13.822 -0.3186  0.3925  0.5111
13745TIP3    H162650   4.028   3.062  13.836  0.2227  1.7634  0.1686
13745TIP3    H262651   3.942   3.145  13.742 -1.8714 -1.2339 -0.7399
13746TIP3   OH262652   6.722   2.963   2.142 -0.2889  0.1616 -0.0075
13746TIP3    H162653   6.707   2.889   2.083  1.1143  0.4669 -0.7906
13746TIP3    H262654   6.653   3.025   2.121  0.0121  0.1325 -1.1340
13747TIP3   OH262655   3.453   0.820   3.315 -0.2383  0.4308 -0.1290
13747TIP3    H162656   3.481   0.829   3.406 -1.2967 -1.4433  0.4416
13747TIP3    H262657   3.357   0.820   3.319 -0.3022 -0.2419 -1.1472
13748TIP3   OH262658   2.141   4.229  12.082  0.4511 -0.2679  0.0191
13748TIP3    H162659   2.089   4.307  12.095  2.0275  0.6198  1.3684
13748TIP3    H262660   2.229   4.253  12.112  1.4502 -1.9514 -1.3421
13749TIP3   OH262661   2.917   4.114  15.471 -0.1384 -0.6958  0.5059
13749TIP3    H162662   2.928   4.155  15.385 -0.7008 -0.3284  0.6068
13749TIP3    H262663   2.824   4.090  15.474 -0.3957  0.3649  1.4869
13750TIP3   OH262664   0.279   3.510   5.542  0.1688 -0.1996 -0.2087
13750TIP3    H162665   0.330   3.464   5.609 -1.1721 -0.1289  0.9030
13750TIP3    H262666   0.254   3.442   5.480 -0.7250 -0.7722  0.7456
13751TIP3   OH262667   0.184   2.183   3.050  0.1168  0.1733 -0.2564
13751TIP3    H162668   0.240   2.122   3.097  0.1621 -0.6437 -1.3064
13751TIP3    H262669   0.096   2.146   3.060  0.3053 -0.9304 -2.0662
13752TIP3   OH262670   4.941   1.163  17.221 -0.0017  1.1017  0.9543
13752TIP3    H162671   4.869   1.116  17.179  1.6965 -1.1765  0.4351
13752TIP3    H262672   4.917   1.165  17.314  0.2217 -1.6659  1.1502
13753TIP3   OH262673   5.347   6.474   4.622  0.1642  0.0292  0.5062
13753TIP3    H162674   5.404   6.550   4.631  1.4578 -0.8642  0.1082
13753TIP3    H262675   5.394   6.415   4.564 -0.9589 -0.9539  0.5489
13754TIP3   OH262676   1.175   6.435  12.811 -0.4980 -0.0087  0.1786
13754TIP3    H162677   1.152   6.515  12.765 -0.3389 -0.1868 -0.2079
13754TIP3    H262678   1.106   6.373  12.788 -0.6277  0.0186  0.4861
13755TIP3   OH262679   4.340   3.186   1.755 -0.0347  0.0746 -0.3553
13755TIP3    H162680   4.298   3.246   1.694  1.1006 -0.1216 -1.3656
13755TIP3    H262681   4.409   3.144   1.704  0.8690 -0.1892  1.0309
13756TIP3   OH262682   5.438   0.772   1.613 -0.0406  0.7244 -0.6846
13756TIP3    H162683   5.500   0.702   1.596 -0.4260  0.3902 -0.7423
13756TIP3    H262684   5.477   0.850   1.574 -0.1932  0.2877 -1.7353
13757TIP3   OH262685   5.410   2.834   0.253  0.5071 -0.0906 -0.8653
13757TIP3    H162686   5.481   2.817   0.314  0.5074  0.6563 -0.6412
13757TIP3    H262687   5.445   2.809   0.168  0.7152 -0.5840 -0.6350
13758TIP3   OH262688   2.712   1.479   5.155 -0.0856  0.4538 -0.3657
13758TIP3    H162689   2.739   1.388   5.147 -0.6125  0.1315  1.2893
13758TIP3    H262690   2.734   1.503   5.245 -1.4684  1.4481 -0.2703
13759TIP3   OH262691   5.431   6.375   5.592 -0.1582  0.6532 -0.6350
13759TIP3    H162692   5.526   6.364   5.582  0.0243  0.5618  0.9272
13759TIP3    H262693   5.394   6.293   5.560  0.2209  0.9931 -2.0014
13760TIP3   OH262694   1.629   2.614  13.846 -0.2107 -0.0950 -0.0990
13760TIP3    H162695   1.585   2.579  13.924 -0.4255  1.9836  0.7845
13760TIP3    H262696   1.711   2.564  13.840 -0.2593 -0.4000  1.3956
13761TIP3   OH262697   5.933   6.297   4.901 -0.1399 -0.2235  0.4164
13761TIP3    H162698   5.943   6.383   4.941 -0.8587 -0.1938  0.5494
13761TIP3    H262699   6.019   6.256   4.908 -0.0591  0.0860  1.2888
13762TIP3   OH262700   1.857   4.760   1.959 -0.5076 -0.2109  0.1292
13762TIP3    H162701   1.922   4.830   1.948 -0.3491 -0.2515  0.7535
13762TIP3    H262702   1.780   4.804   1.996 -0.8060 -0.1798 -0.5227
13763TIP3   OH262703   3.641   2.279  16.987 -0.3509  0.2803  0.4957
13763TIP3    H162704   3.567   2.221  17.003 -0.5418  0.3306 -0.1823
13763TIP3    H262705   3.687   2.283  17.071 -1.5263  0.8338  1.1417
13764TIP3   OH262706   0.471   4.076   5.913 -0.2076 -0.6258  0.4624
13764TIP3    H162707   0.387   4.043   5.880  1.0334 -0.5577 -3.2304
13764TIP3    H262708   0.460   4.171   5.916 -0.7016 -0.7081  1.4195
13765TIP3   OH262709   1.778   0.009   3.374 -0.2430  0.0515 -0.0509
13765TIP3    H162710   1.869  -0.019   3.380 -0.2420 -0.0110 -0.3488
13765TIP3    H262711   1.757   0.003   3.281 -0.0075  1.8015 -0.2512
13766TIP3   OH262712   5.037   2.338  10.783 -0.2460  0.4320  0.1580
13766TIP3    H162713   5.123   2.306  10.811  0.0537 -0.2548 -1.4074
13766TIP3    H262714   4.989   2.259  10.758 -2.0087  0.6155  2.5893
13767TIP3   OH262715   0.235   4.344   1.016 -0.6408 -0.1613 -0.4447
13767TIP3    H162716   0.293   4.292   1.073 -0.3105  0.1504 -0.4930
13767TIP3    H262717   0.151   4.345   1.062 -0.0003  1.2824  0.7714
13768TIP3   OH262718   1.612   6.619  13.325 -0.2900 -0.8396 -0.4462
13768TIP3    H162719   1.677   6.607  13.394  0.3904 -1.4818 -1.1770
13768TIP3    H262720   1.662   6.651  13.250 -1.1531  0.7441 -0.4013
13769TIP3   OH262721   5.552   3.015  17.062 -0.0542 -0.7560  0.3039
13769TIP3    H162722   5.503   2.945  17.019 -0.8213 -0.5573  0.8237
13769TIP3    H262723   5.515   3.096  17.027  0.0206 -0.6050  0.5634
13770TIP3   OH262724   5.171   6.127  15.173 -0.2626  0.1963  0.9627
13770TIP3    H162725   5.090   6.175  15.193  0.1909  2.1122 -1.3937
13770TIP3    H262726   5.224   6.136  15.252 -1.7162  0.2446  1.9761
13771TIP3   OH262727   2.313   2.020   6.021  0.1205  0.5381  0.0787
13771TIP3    H162728   2.275   2.043   5.937 -0.5021 -0.2175  0.1475
13771TIP3    H262729   2.270   2.078   6.084 -2.0812 -1.2525  0.3780
13772TIP3   OH262730   2.227   5.533   3.126  0.2158  0.1224 -0.1083
13772TIP3    H162731   2.180   5.455   3.155  0.7806 -0.2160 -0.0829
13772TIP3    H262732   2.160   5.589   3.088 -0.2564 -0.2064  0.2287
13773TIP3   OH262733   2.836   0.488   4.880 -0.2594 -0.1353 -0.1232
13773TIP3    H162734   2.768   0.508   4.816 -0.1052 -0.0376 -0.2572
13773TIP3    H262735   2.905   0.447   4.829 -0.6147 -1.1185  0.1628
13774TIP3   OH262736   5.147   5.395   0.314  0.7245  0.0018 -0.2108
13774TIP3    H162737   5.195   5.473   0.340 -0.4987 -0.6172  4.8655
13774TIP3    H262738   5.215   5.329   0.301  1.5481  0.7514  0.1796
13775TIP3   OH262739   2.197   0.798  15.907  0.0916  0.8526 -0.0023
13775TIP3    H162740   2.134   0.764  15.970  0.5332 -0.6682 -0.3406
13775TIP3    H262741   2.155   0.788  15.822  0.6479  0.0871 -0.2032
13776TIP3   OH262742   2.958   6.457   1.633  1.1147  0.4509 -0.3390
13776TIP3    H162743   2.950   6.388   1.698  3.9932  0.8107  0.5635
13776TIP3    H262744   2.970   6.411   1.550  2.2595 -0.1818  0.1444
13777TIP3   OH262745   4.110   2.502  12.667  0.7685  0.4837  0.1401
13777TIP3    H162746   4.186   2.560  12.674  0.4643  0.7124  2.6151
13777TIP3    H262747   4.132   2.428  12.724  0.3948 -0.9925 -1.5699
13778TIP3   OH262748   0.968   5.608   5.726 -0.3750 -0.0659 -0.1272
13778TIP3    H162749   0.974   5.583   5.818 -1.2026 -1.3140 -0.3951
13778TIP3    H262750   1.059   5.625   5.700 -0.0301 -0.6744  0.6526
13779TIP3   OH262751   3.866   5.552  15.349 -0.3197 -0.4384 -0.2491
13779TIP3    H162752   3.874   5.617  15.279  0.8033  2.1331  2.0669
13779TIP3    H262753   3.956   5.524  15.366 -0.6060 -1.2113  0.0042
13780TIP3   OH262754   6.414   6.653  15.711  0.1822 -0.4708 -0.1750
13780TIP3    H162755   6.479   6.599  15.665 -1.0124 -2.2194  0.1026
13780TIP3    H262756   6.352   6.679  15.642 -0.0930 -0.7520 -0.0320
13781TIP3   OH262757   1.957   2.640   0.466  0.0932 -0.1363  0.1332
13781TIP3    H162758   1.921   2.725   0.438 -0.8363 -0.1656  1.1635
13781TIP3    H262759   1.883   2.579   0.456  0.5710 -0.7060  0.0138
13782TIP3   OH262760   5.339   5.805   3.407  0.2577  0.1213 -0.3630
13782TIP3    H162761   5.269   5.783   3.346  0.4363  1.3343 -1.0364
13782TIP3    H262762   5.378   5.720   3.430  0.7668 -0.3439 -2.6477
13783TIP3   OH262763   6.513   5.752  12.504  0.0651  0.7020 -0.2920
13783TIP3    H162764   6.523   5.692  12.578 -1.0714  0.7749 -0.0605
13783TIP3    H262765   6.549   5.705  12.429 -0.1816  0.0109  0.0164
13784TIP3   OH262766   2.531   4.292   5.130 -0.0185  0.1633 -0.1038
13784TIP3    H162767   2.440   4.271   5.106 -0.1033 -0.1262  0.4685
13784TIP3    H262768   2.525   4.327   5.219  0.5425 -0.7555  0.3049
13785TIP3   OH262769   3.838   2.303   5.567  0.4692  0.2016  0.4685
13785TIP3    H162770   3.753   2.273   5.599  0.2703  0.0934 -0.1395
13785TIP3    H262771   3.846   2.262   5.481 -0.3172  2.7405 -0.9222
13786TIP3   OH262772   0.395   3.433  13.072 -0.6677 -0.3757  0.6063
13786TIP3    H162773   0.426   3.470  13.155 -1.4720  0.6591  0.4584
13786TIP3    H262774   0.389   3.508  13.013 -0.5606 -1.0329 -0.2538
13787TIP3   OH262775   4.189   1.618   0.620 -0.8851  0.0516 -1.1433
13787TIP3    H162776   4.204   1.617   0.526 -0.9687 -1.7520 -1.1590
13787TIP3    H262777   4.143   1.536   0.639 -0.2604  0.0451  0.5564
13788TIP3   OH262778   0.398   5.330  15.952 -0.0275  0.1251 -0.5958
13788TIP3    H162779   0.427   5.244  15.981  1.7033 -0.0153 -2.5422
13788TIP3    H262780   0.338   5.359  16.021 -2.0222 -3.2790 -0.6408
13789TIP3   OH262781   1.272   5.082   2.292 -0.1059  0.6723  0.1939
13789TIP3    H162782   1.287   5.177   2.299 -1.1896  0.9589 -0.8380
13789TIP3    H262783   1.223   5.060   2.371  1.2314  0.7030  1.0639
13790TIP3   OH262784   3.201   2.680  13.931  0.2832  0.3995  0.1632
13790TIP3    H162785   3.230   2.592  13.956 -0.3509 -0.1097 -0.8389
13790TIP3    H262786   3.107   2.680  13.948  0.5306  1.4558  1.7353
13791TIP3   OH262787   5.037   2.004  11.668 -0.1364 -0.4328  0.1287
13791TIP3    H162788   5.016   2.097  11.677  0.4308 -0.4322  1.8281
13791TIP3    H262789   5.127   2.003  11.635 -0.0371 -0.3733  0.3964
13792TIP3   OH262790   5.472   2.378  15.807  0.1909 -0.1522  0.5445
13792TIP3    H162791   5.561   2.381  15.840  0.3372 -1.2223  0.2933
13792TIP3    H262792   5.479   2.340  15.720 -0.2101  2.4687 -0.7179
13793TIP3   OH262793   3.806   1.749  16.855 -0.1979  0.2100  0.3797
13793TIP3    H162794   3.767   1.826  16.815 -1.0582  0.1757  1.1209
13793TIP3    H262795   3.732   1.693  16.877  0.3022 -0.1205  1.2993
13794TIP3   OH262796   6.049   4.201  11.090 -0.1804  0.3484 -0.1750
13794TIP3    H162797   6.140   4.211  11.119 -0.0906 -0.0697 -0.3004
13794TIP3    H262798   6.015   4.128  11.142 -0.0899 -0.2521 -0.9400
13795TIP3   OH262799   0.938   2.105   1.525 -0.1030 -0.5770 -0.2215
13795TIP3    H162800   1.029   2.095   1.498 -0.0399  2.2920 -1.4301
13795TIP3    H262801   0.940   2.100   1.620  1.7667  1.6305 -0.0507
13796TIP3   OH262802   6.489   3.267  15.458  0.2504  0.7125  0.1470
13796TIP3    H162803   6.472   3.351  15.501 -2.2406  0.7434 -0.7139
13796TIP3    H262804   6.528   3.213  15.526 -0.0986  1.9066  1.3494
13797TIP3   OH262805   5.058   5.909   5.237  0.3072 -0.3974  0.0647
13797TIP3    H162806   5.134   5.899   5.181 -0.2098 -0.6888 -0.5951
13797TIP3    H262807   5.054   6.002   5.256  0.5720 -0.3197 -0.2573
13798TIP3   OH262808   2.972   4.378   0.994  0.2809  0.3189  0.5863
13798TIP3    H162809   2.989   4.354   1.085  2.5366 -0.9242 -0.0806
13798TIP3    H262810   3.045   4.436   0.971 -0.5111  0.9803 -0.3255
13799TIP3   OH262811   1.520   0.418   4.857 -0.9090 -0.3557  0.3086
13799TIP3    H162812   1.506   0.482   4.787  0.5082 -1.1088 -0.7044
13799TIP3    H262813   1.594   0.452   4.906  0.0193 -1.3222 -0.3917
13800TIP3   OH262814   0.614   2.665   1.170 -0.2258  0.3761 -0.3813
13800TIP3    H162815   0.598   2.760   1.170  2.3318  0.8804  0.0194
13800TIP3    H262816   0.609   2.640   1.262 -1.6701 -0.0712 -0.5580
13801TIP3   OH262817   4.515   6.580   0.830  0.0996 -0.2843  0.5326
13801TIP3    H162818   4.496   6.487   0.843 -1.4340 -0.2179 -0.9042
13801TIP3    H262819   4.500   6.620   0.915  2.5965 -1.5597  1.6893
13802TIP3   OH262820   0.399   2.731   2.071 -0.2958 -0.0702  0.2496
13802TIP3    H162821   0.400   2.744   1.976 -0.0595 -1.4208  0.0545
13802TIP3    H262822   0.383   2.819   2.106 -0.4092  0.4506 -1.0297
13803TIP3   OH262823   3.455   6.646  11.517  0.1162  0.2782 -0.1401
13803TIP3    H162824   3.521   6.584  11.487 -0.5015  0.9321 -3.1646
13803TIP3    H262825   3.380   6.632  11.459 -1.6269  1.0408  1.7830
13804TIP3   OH262826   6.366   4.384   0.862  0.0777  0.3839 -0.7876
13804TIP3    H162827   6.304   4.437   0.812 -1.5924 -1.6580 -0.9989
13804TIP3    H262828   6.442   4.376   0.804 -0.5462  0.7013 -1.6834
13805TIP3   OH262829   0.848   5.993  15.512 -0.2951 -0.0129  0.0606
13805TIP3    H162830   0.801   6.039  15.582  1.5895  0.3283  1.1697
13805TIP3    H262831   0.924   5.955  15.555 -1.8872 -4.6944 -0.6711
13806TIP3   OH262832   1.191   4.942   5.875 -0.0424  0.0409 -0.2990
13806TIP3    H162833   1.156   4.904   5.795  0.1533 -1.5054  0.3115
13806TIP3    H262834   1.187   4.871   5.939 -0.8625  1.4382  1.2794
13807TIP3   OH262835   6.538   5.574  15.195  0.1582  0.6474  0.7928
13807TIP3    H162836   6.615   5.534  15.154  0.2893  0.5763  1.1016
13807TIP3    H262837   6.512   5.643  15.135  1.1062  1.3729  1.1914
13808TIP3   OH262838   1.137   6.142  14.645  0.0708 -0.3571  0.3993
13808TIP3    H162839   1.069   6.079  14.669  0.1919 -0.2743  0.9564
13808TIP3    H262840   1.162   6.116  14.556 -1.1151 -0.0051 -0.0605
13809TIP3   OH262841   5.197   6.735   3.708 -0.1555  0.3530 -0.2487
13809TIP3    H162842   5.107   6.713   3.733  0.3424 -0.4380  0.9122
13809TIP3    H262843   5.213   6.683   3.629 -0.4230 -0.2032  0.0546
13810TIP3   OH262844   2.983   5.405  11.873  0.3878 -0.1642  0.1511
13810TIP3    H162845   2.975   5.474  11.806  2.1414 -2.1591 -2.3098
13810TIP3    H262846   3.072   5.415  11.907  0.3053 -0.6019  0.4974
13811TIP3   OH262847   0.968   4.178   0.131 -0.2682 -0.3859  0.1288
13811TIP3    H162848   0.892   4.235   0.128 -0.2524 -0.3224  0.8737
13811TIP3    H262849   1.038   4.229   0.090 -0.6330 -0.4778 -0.6380
13812TIP3   OH262850   1.274   5.160  16.500 -0.7941 -0.4182 -0.3671
13812TIP3    H162851   1.243   5.171  16.410 -1.4269  0.9594 -0.0147
13812TIP3    H262852   1.269   5.248  16.537  2.3397 -0.3468  0.1264
13813TIP3   OH262853   6.258   4.918  16.054 -0.2283  0.2793  0.1410
13813TIP3    H162854   6.250   4.946  15.963 -2.2058 -0.1642  0.1256
13813TIP3    H262855   6.167   4.907  16.084  0.3782  0.0489  2.0528
13814TIP3   OH262856   0.715   3.598   3.350  0.6574  0.7602 -0.2720
13814TIP3    H162857   0.732   3.508   3.320  0.1860  0.4362  0.4030
13814TIP3    H262858   0.793   3.622   3.400  0.2479  0.2346  0.6419
13815TIP3   OH262859   2.686   3.748  14.436 -0.4302 -0.1574 -0.3072
13815TIP3    H162860   2.692   3.814  14.367  0.8083 -0.8535 -0.8995
13815TIP3    H262861   2.622   3.685  14.404 -2.4496  1.2481  0.7400
13816TIP3   OH262862   1.860   6.408   1.104 -0.2121 -0.1227 -0.1572
13816TIP3    H162863   1.825   6.319   1.098  0.1337 -0.4303  1.7194
13816TIP3    H262864   1.909   6.420   1.023 -1.8922 -0.8881 -1.3552
13817TIP3   OH262865   2.704   2.407  14.829 -0.3893 -0.1353  0.7138
13817TIP3    H162866   2.755   2.334  14.864 -0.9473 -1.0316 -0.2466
13817TIP3    H262867   2.692   2.467  14.902 -0.5057 -1.3535  1.7167
13818TIP3   OH262868   5.399   2.820   1.943  0.1495  0.1534  0.2556
13818TIP3    H162869   5.391   2.822   1.848  1.4118 -0.2356  0.1192
13818TIP3    H262870   5.431   2.732   1.963 -1.5401 -0.2973  1.2001
13819TIP3   OH262871   2.418   6.388  14.648 -0.2318 -0.0772 -0.6976
13819TIP3    H162872   2.342   6.394  14.590 -2.2657 -1.7839  1.6095
13819TIP3    H262873   2.409   6.464  14.707 -1.6194 -1.5215  1.0828
13820TIP3   OH262874   3.661   0.260  16.338  0.1844 -1.0557 -0.5738
13820TIP3    H162875   3.743   0.212  16.345  0.1231 -1.0192  0.4575
13820TIP3    H262876   3.598   0.195  16.306  0.2923 -1.4443 -0.0048
13821TIP3   OH262877   0.157   3.327  16.042  0.2246 -0.0252  0.1534
13821TIP3    H162878   0.156   3.410  15.994  2.0592 -0.1541 -0.1846
13821TIP3    H262879   0.069   3.291  16.029  0.4387  0.2285 -2.6447
13822TIP3   OH262880   3.088   6.438  14.011  0.4147 -0.3324 -0.3206
13822TIP3    H162881   3.020   6.424  13.945  0.1752  0.8846 -0.3699
13822TIP3    H262882   3.089   6.358  14.063 -1.4402 -0.1696  0.0300
13823TIP3   OH262883   3.032   4.887  11.780 -0.0368 -0.2989 -0.0004
13823TIP3    H162884   3.113   4.925  11.747 -0.1877 -0.3506 -0.4323
13823TIP3    H262885   3.049   4.871  11.873  0.3817 -0.1396 -0.0487
13824TIP3   OH262886   2.535   2.708   3.497  0.0352 -0.4494 -0.5041
13824TIP3    H162887   2.512   2.682   3.586 -1.5247 -0.1472 -0.7907
13824TIP3    H262888   2.485   2.650   3.440  1.2111 -0.8146 -1.2130
13825TIP3   OH262889   3.233   4.423   2.735 -0.1549 -0.6850 -0.4898
13825TIP3    H162890   3.162   4.472   2.693 -1.4866 -0.8465  1.4776
13825TIP3    H262891   3.274   4.487   2.793 -0.8877 -1.4397  0.9015
13826TIP3   OH262892   4.179   5.777   2.822  0.5142  0.4179  0.1743
13826TIP3    H162893   4.237   5.784   2.746  0.0473 -1.2827 -0.3828
13826TIP3    H262894   4.238   5.783   2.897  1.3050 -0.2895 -0.3662
13827TIP3   OH262895   3.206   5.423  14.318  0.3774 -0.0511  0.1317
13827TIP3    H162896   3.242   5.426  14.407 -0.8675  1.7224  0.6286
13827TIP3    H262897   3.239   5.341  14.282  1.6054 -0.4111  1.9305
13828TIP3   OH262898   1.696   3.523   1.652 -0.0370  0.3492 -1.2428
13828TIP3    H162899   1.661   3.580   1.584 -1.3027 -0.0025 -0.9160
13828TIP3    H262900   1.696   3.436   1.614 -0.0692  0.2594 -1.0410
13829TIP3   OH262901   3.333   3.246   0.238 -0.1453  0.5020  0.0539
13829TIP3    H162902   3.261   3.185   0.222  0.7767 -1.1605  1.8222
13829TIP3    H262903   3.298   3.331   0.213 -2.0593 -0.5132 -0.9301
13830TIP3   OH262904   5.502   1.120  16.649 -0.1920  0.1219  0.6160
13830TIP3    H162905   5.568   1.052  16.640  1.4405  1.6520  0.3212
13830TIP3    H262906   5.422   1.081  16.615  0.8640 -1.3852 -0.2484
13831TIP3   OH262907   5.223   0.884  15.556 -0.1020 -0.0546 -0.1863
13831TIP3    H162908   5.267   0.876  15.471  0.0714 -2.7119  0.0857
13831TIP3    H262909   5.285   0.933  15.610  1.4152 -1.4240 -0.5987
13832TIP3   OH262910   4.446   4.221  11.494 -0.3691 -0.7167 -0.1374
13832TIP3    H162911   4.481   4.308  11.473 -0.2460 -0.6111  0.5041
13832TIP3    H262912   4.358   4.221  11.455 -0.1792 -0.4910 -0.5743
13833TIP3   OH262913   3.927   6.437  11.199  0.0910 -0.0633 -0.9233
13833TIP3    H162914   3.981   6.397  11.268  0.0622  0.1341 -0.7837
13833TIP3    H262915   3.985   6.440  11.123  1.0756  2.2409 -0.1595
13834TIP3   OH262916   5.390   0.878   4.185 -0.4030  0.0696 -0.2903
13834TIP3    H162917   5.308   0.875   4.234 -1.3594  0.5168 -1.8006
13834TIP3    H262918   5.420   0.787   4.184 -0.7776 -0.0729  0.4331
13835TIP3   OH262919   0.391   5.790  15.911  0.0627 -0.4232  0.2648
13835TIP3    H162920   0.467   5.740  15.940 -1.1403 -2.4669  0.1009
13835TIP3    H262921   0.375   5.760  15.821 -0.0382  1.1318 -0.2728
13836TIP3   OH262922   5.951   2.717   5.025 -0.1314 -0.3168  0.3634
13836TIP3    H162923   5.908   2.787   5.075 -0.0374 -0.0100  0.0162
13836TIP3    H262924   6.031   2.757   4.992  0.3526 -0.8454  0.8779
13837TIP3   OH262925   6.354   4.103  12.365  0.0513  0.4627  0.6857
13837TIP3    H162926   6.420   4.101  12.434  0.7837 -1.1475 -0.0226
13837TIP3    H262927   6.401   4.134  12.287  0.0386 -0.7828  0.1520
13838TIP3   OH262928   1.850   3.449   4.067  0.3641 -0.4226 -0.4182
13838TIP3    H162929   1.832   3.376   4.127  1.2280 -0.5524 -0.3059
13838TIP3    H262930   1.937   3.480   4.093  0.5272 -0.1450 -1.2776
13839TIP3   OH262931   2.453   3.543   0.344 -0.3408  0.2047  0.1454
13839TIP3    H162932   2.392   3.589   0.287  1.5201  0.5153 -1.7082
13839TIP3    H262933   2.470   3.604   0.416  2.1145  2.6565 -2.2672
13840TIP3   OH262934   4.419   5.467   0.650  0.3183 -0.2296 -0.2028
13840TIP3    H162935   4.363   5.397   0.685 -0.1742  1.2474  2.1654
13840TIP3    H262936   4.508   5.434   0.660  0.0222 -1.2978 -0.9670
13841TIP3   OH262937   1.231   6.723  15.868  0.5534  0.0956 -0.2621
13841TIP3    H162938   1.296   6.663  15.833 -0.5636 -0.6048 -1.1885
13841TIP3    H262939   1.198   6.680  15.947  1.6204  0.7459  0.5793
13842TIP3   OH262940   2.432   6.401   3.641 -0.0971  0.1203 -0.8832
13842TIP3    H162941   2.390   6.320   3.611  1.6524 -0.5750 -1.5608
13842TIP3    H262942   2.472   6.377   3.724 -2.0300  1.1350  0.4310
13843TIP3   OH262943   3.614   2.127   0.352  0.5804 -0.1439 -0.4658
13843TIP3    H162944   3.605   2.181   0.430 -1.3811  0.3495 -0.9893
13843TIP3    H262945   3.707   2.104   0.350  0.7767  0.1971  1.7430
13844TIP3   OH262946   1.158   1.586   0.947 -0.5251 -0.7172  0.2559
13844TIP3    H162947   1.252   1.589   0.964 -0.2669 -2.8454 -0.4606
13844TIP3    H262948   1.118   1.612   1.030  0.6684  0.0088  0.6396
13845TIP3   OH262949   3.281   1.702   0.625 -0.2428  0.1999  0.2167
13845TIP3    H162950   3.359   1.660   0.661 -0.4946 -2.9230 -2.4421
13845TIP3    H262951   3.214   1.693   0.694  0.3157 -1.9813  0.5245
13846TIP3   OH262952   5.659   4.204  11.399 -0.1840 -0.1371 -0.1890
13846TIP3    H162953   5.679   4.250  11.317 -0.9074 -1.4756 -1.1467
13846TIP3    H262954   5.619   4.271  11.454  2.0847  1.3077 -0.1342
13847TIP3   OH262955   2.716   6.564  15.812 -0.5551 -0.0209  0.0053
13847TIP3    H162956   2.633   6.608  15.829 -0.0565  0.5981  0.9682
13847TIP3    H262957   2.780   6.612  15.865  0.5342 -0.0843 -1.1806
13848TIP3   OH262958   3.076   3.598  16.261  0.5532  0.1721  0.6817
13848TIP3    H162959   3.085   3.509  16.229  0.4689  0.0613  0.9594
13848TIP3    H262960   2.995   3.597  16.313 -0.5722  0.9111 -0.9796
13849TIP3   OH262961   6.636   6.190  13.942 -0.1429 -0.1865 -0.7326
13849TIP3    H162962   6.580   6.123  13.981  1.7867 -1.6251 -0.2226
13849TIP3    H262963   6.627   6.266  13.999 -1.4317 -0.4232 -0.5976
13850TIP3   OH262964   1.239   5.205  15.887  0.6131  0.2689  0.2696
13850TIP3    H162965   1.170   5.181  15.826  0.3164 -2.1958  1.4263
13850TIP3    H262966   1.199   5.269  15.946 -0.4177 -0.4416  0.3546
13851TIP3   OH262967   4.003   6.050  12.047 -0.0265  0.3776 -0.0430
13851TIP3    H162968   4.092   6.082  12.030  0.0126  0.1282 -0.3037
13851TIP3    H262969   3.991   5.978  11.986 -0.1547 -0.0406  0.4678
13852TIP3   OH262970   1.214   6.346  14.147  0.3969  0.0352  0.3099
13852TIP3    H162971   1.292   6.391  14.115  1.0884 -0.7916  0.7696
13852TIP3    H262972   1.190   6.287  14.075  0.5406 -0.1187  0.3870
13853TIP3   OH262973   4.679   1.100  13.458 -0.0024  0.8319  0.3083
13853TIP3    H162974   4.758   1.153  13.447 -0.1873  0.7583 -1.8835
13853TIP3    H262975   4.659   1.070  13.369 -1.3525 -0.8162  1.1347
13854TIP3   OH262976   3.583   0.688  14.167 -0.1763  0.3150 -0.1181
13854TIP3    H162977   3.558   0.713  14.256  1.1430 -0.3665  0.4672
13854TIP3    H262978   3.602   0.771  14.123  0.2132  0.6028  0.5774
13855TIP3   OH262979   4.516   0.865  17.342  0.2171  0.3799 -0.4070
13855TIP3    H162980   4.424   0.892  17.344  0.4792  1.3365 -0.5519
13855TIP3    H262981   4.530   0.823  17.427  0.1051  1.8917  0.3914
13856TIP3   OH262982   6.134   5.961   2.280 -0.3275 -0.3547  0.0594
13856TIP3    H162983   6.189   6.036   2.302 -2.9639  1.8756 -0.5271
13856TIP3    H262984   6.101   5.929   2.364 -1.9711  1.4252  0.1369
13857TIP3   OH262985   0.537   4.133  16.019 -0.6223  0.7421  0.0646
13857TIP3    H162986   0.599   4.069  15.984 -0.2382  1.7061 -1.0522
13857TIP3    H262987   0.532   4.202  15.952 -0.8200  2.0278  1.3560
13858TIP3   OH262988   3.907   0.577  14.612 -0.0666  0.1578 -0.6771
13858TIP3    H162989   3.978   0.535  14.662  0.1014 -0.0473 -1.0839
13858TIP3    H262990   3.843   0.601  14.678  0.7769  1.1442 -0.1895
13859TIP3   OH262991   3.790   5.589   1.214 -0.2088  0.3006  0.0657
13859TIP3    H162992   3.780   5.543   1.130 -2.2692 -0.5704  0.7228
13859TIP3    H262993   3.700   5.601   1.245  0.3342  3.2549  0.7843
13860TIP3   OH262994   4.866   3.181   1.787 -0.3936 -0.0466  0.1296
13860TIP3    H162995   4.951   3.144   1.812  0.6400  0.6828 -2.0042
13860TIP3    H262996   4.837   3.230   1.864  0.7955 -0.8571  1.1248
13861TIP3   OH262997   4.994   0.144  14.853  0.2077  0.0691 -0.3097
13861TIP3    H162998   4.983   0.057  14.891 -1.0708 -0.3075 -1.4582
13861TIP3    H262999   5.084   0.169  14.875  0.7994 -1.7868 -0.4668
13862TIP3   OH263000   0.794   6.492  15.125 -0.6230 -0.0396 -0.5277
13862TIP3    H163001   0.762   6.581  15.139 -1.2948  0.0689 -2.4339
13862TIP3    H263002   0.885   6.504  15.097 -0.3130 -0.0577  0.4303
13863TIP3   OH263003   1.992   0.115   2.258  0.6196  0.1350  0.4666
13863TIP3    H163004   1.990   0.028   2.217 -1.8573 -0.3188  1.4085
13863TIP3    H263005   2.041   0.102   2.339  1.7195  0.0456 -0.1856
13864TIP3   OH263006   3.621   2.908   3.341 -0.5971 -0.5944  0.0327
13864TIP3    H163007   3.690   2.850   3.374 -1.6438 -1.3148  1.0842
13864TIP3    H263008   3.649   2.932   3.253  0.2774 -2.0520 -0.1239
13865TIP3   OH263009   6.464   3.963   2.943 -0.2990 -0.1761  0.1656
13865TIP3    H163010   6.472   4.048   2.986 -1.6162  0.4683 -0.7661
13865TIP3    H263011   6.523   3.969   2.868  0.7711 -0.6860  0.9478
13866TIP3   OH263012   4.255   4.749   5.963 -0.3109 -0.2027  0.0975
13866TIP3    H163013   4.337   4.706   5.937 -1.5064 -1.6410 -1.5674
13866TIP3    H263014   4.234   4.713   6.049 -1.0516 -2.7668 -1.0644
13867TIP3   OH263015   5.508   3.067  14.034  0.0077 -0.6216 -0.0271
13867TIP3    H163016   5.448   3.063  13.960  0.5562  0.4771 -0.5627
13867TIP3    H263017   5.594   3.084  13.995  0.5067 -1.2104  0.7854
13868TIP3   OH263018   1.017   0.884  15.311  0.6794  0.0180  0.4671
13868TIP3    H163019   1.043   0.868  15.220 -0.7357 -1.6089  0.2863
13868TIP3    H263020   0.977   0.802  15.339  0.8225  0.5840  2.4919
13869TIP3   OH263021   3.398   0.982  14.395  0.0849 -0.1698 -0.3265
13869TIP3    H163022   3.470   1.035  14.429  0.7926 -1.1451 -0.2411
13869TIP3    H263023   3.420   0.893  14.422 -1.4303 -0.4283  0.1429
13870TIP3   OH263024   1.597   2.693   2.796  0.1894 -0.1884 -0.0100
13870TIP3    H163025   1.603   2.783   2.828 -2.1256  0.8048 -2.0035
13870TIP3    H263026   1.638   2.696   2.710  0.6427 -1.2038  0.1665
13871TIP3   OH263027   5.420   1.349  16.538 -0.3724 -0.5937 -0.2151
13871TIP3    H163028   5.472   1.274  16.565  0.3729  0.3985  1.2416
13871TIP3    H263029   5.331   1.317  16.534 -0.1004 -1.4975  0.6620
13872TIP3   OH263030   3.909   3.167  15.488  0.0653  0.0152  0.7396
13872TIP3    H163031   3.869   3.081  15.499 -1.4576  0.8101  1.6934
13872TIP3    H263032   3.942   3.189  15.575  0.3393  0.4635  0.5255
13873TIP3   OH263033   0.973   0.072   0.447 -0.0811 -0.0666 -0.2833
13873TIP3    H163034   0.913   0.130   0.401 -1.0477 -0.6110  0.2550
13873TIP3    H263035   0.973   0.103   0.538 -0.5163 -0.8146 -0.0167
13874TIP3   OH263036   3.227   3.450  12.139 -0.3282  0.0911 -0.0476
13874TIP3    H163037   3.151   3.492  12.099 -1.5797 -1.1530  0.9168
13874TIP3    H263038   3.202   3.439  12.231 -0.1068 -2.7480 -0.2366
13875TIP3   OH263039   0.237   1.777   3.012 -0.2162  0.3212 -0.5717
13875TIP3    H163040   0.205   1.813   3.095  2.3345 -0.1824  0.7209
13875TIP3    H263041   0.265   1.688   3.033  1.1683  0.4319 -1.7742
13876TIP3   OH263042   6.027   5.879   1.206 -0.1793  0.9410  0.4032
13876TIP3    H163043   6.004   5.964   1.169  2.1392  1.0740 -0.9259
13876TIP3    H263044   5.964   5.818   1.168 -0.0450  1.6382 -0.9902
13877TIP3   OH263045   4.820   6.329  16.731 -0.2262  0.1058 -0.0835
13877TIP3    H163046   4.732   6.330  16.693 -0.3517 -0.1549  0.1874
13877TIP3    H263047   4.811   6.376  16.814 -0.0380  0.3513 -0.2007
13878TIP3   OH263048   4.575   0.192  16.704  0.0516  0.4109  0.1377
13878TIP3    H163049   4.608   0.110  16.666 -0.5125  0.4709 -0.4885
13878TIP3    H263050   4.588   0.257  16.636  1.7136  1.1430  1.1062
13879TIP3   OH263051   4.735   1.893   2.694  0.4137  0.1674 -0.8093
13879TIP3    H163052   4.783   1.859   2.770 -1.3284 -1.2419 -0.2715
13879TIP3    H263053   4.681   1.963   2.729 -0.0605 -0.1867 -0.8235
13880TIP3   OH263054   0.200   3.077  12.009  0.0937 -0.2650  0.3116
13880TIP3    H163055   0.174   3.129  11.934  0.0525 -1.8869 -0.8419
13880TIP3    H263056   0.154   3.117  12.083  0.5210  1.6633 -0.3959
13881TIP3   OH263057   1.684   0.455  14.119 -0.4357 -0.5165  0.5332
13881TIP3    H163058   1.695   0.409  14.203  0.2765 -2.5767 -0.6122
13881TIP3    H263059   1.642   0.391  14.062  3.0243 -0.8721 -1.9635
13882TIP3   OH263060   4.340   1.082  15.713  0.8605 -0.0223  0.1140
13882TIP3    H163061   4.369   1.126  15.633 -0.9351  1.7097  0.3398
13882TIP3    H263062   4.267   1.135  15.744 -0.4930 -2.3964  1.2326
13883TIP3   OH263063   1.092   6.119   3.699  0.3494 -0.2019 -0.5275
13883TIP3    H163064   1.004   6.118   3.737  0.2399  2.5302 -0.4715
13883TIP3    H263065   1.078   6.148   3.609  1.2652  3.3790  0.2994
13884TIP3   OH263066   4.992   2.949   2.828 -0.7656  0.1838 -0.2581
13884TIP3    H163067   5.047   3.028   2.826 -1.7626  0.9065  0.2392
13884TIP3    H263068   4.967   2.940   2.920 -1.0882 -0.4165 -0.4021
13885TIP3   OH263069   5.174   5.688   2.739  0.6883  0.0032  0.0797
13885TIP3    H163070   5.171   5.784   2.745 -1.2360 -0.0191  0.1081
13885TIP3    H263071   5.268   5.667   2.741  1.1325  1.7471  2.1215
13886TIP3   OH263072   4.891   5.498  16.097  0.2547 -0.2321  0.1327
13886TIP3    H163073   4.924   5.525  16.182  1.3262  0.5757 -0.5103
13886TIP3    H263074   4.872   5.580  16.051  1.3077 -0.5963 -1.0042
13887TIP3   OH263075   1.019   6.404   4.856 -0.1542  0.0533 -0.1544
13887TIP3    H163076   1.070   6.323   4.861 -0.6497 -0.2396  0.1817
13887TIP3    H263077   1.030   6.445   4.941 -0.2037  0.1596 -0.1988
13888TIP3   OH263078   3.218   5.343   4.876  0.2667 -0.5758  0.0590
13888TIP3    H163079   3.249   5.311   4.961  3.8116  0.6672 -0.6115
13888TIP3    H263080   3.290   5.325   4.816 -1.4122  0.2053 -2.3167
13889TIP3   OH263081   6.643   2.664  15.497 -0.2521  0.7985  0.1427
13889TIP3    H163082   6.549   2.655  15.482 -0.0865 -2.5177  0.3271
13889TIP3    H263083   6.679   2.683  15.410 -0.9233  0.1218 -0.2927
13890TIP3   OH263084   0.959   0.352   5.805 -0.0568  0.2077 -0.2484
13890TIP3    H163085   0.892   0.340   5.737 -1.1675 -0.1318  0.8620
13890TIP3    H263086   1.029   0.291   5.781 -0.1554  0.5339 -1.4140
13891TIP3   OH263087   1.022   4.573  14.287 -0.4395 -0.1136  0.3146
13891TIP3    H163088   1.050   4.524  14.365  0.7412 -1.1471 -0.7296
13891TIP3    H263089   1.100   4.581  14.233 -1.0832  1.1907 -0.4814
13892TIP3   OH263090   2.913   5.748   0.403  0.3743  0.0549 -0.2053
13892TIP3    H163091   2.828   5.764   0.442 -0.5118 -1.8563 -1.2433
13892TIP3    H263092   2.915   5.805   0.326 -0.6880 -1.0641 -1.1013
13893TIP3   OH263093   1.041   6.584   3.674  0.0981 -0.1576 -0.4021
13893TIP3    H163094   0.982   6.567   3.747  1.0965  0.4885  0.5868
13893TIP3    H263095   1.040   6.679   3.663  0.8589 -0.1497 -0.4463
13894TIP3   OH263096   1.369   5.296   3.969  0.9044  0.4073  0.1131
13894TIP3    H163097   1.293   5.284   3.911  0.8153 -0.5222  0.4014
13894TIP3    H263098   1.386   5.390   3.967  0.1602  0.5415 -0.4856
13895TIP3   OH263099   0.253   0.996  13.716  0.4040 -0.2584  0.0493
13895TIP3    H163100   0.337   1.023  13.752  0.2257  0.4366 -0.0497
13895TIP3    H263101   0.275   0.934  13.646  0.9918  2.2061 -2.0660
13896TIP3   OH263102   5.723   4.361  14.396 -0.3381  0.1438  0.0743
13896TIP3    H163103   5.768   4.373  14.479 -1.1510 -1.9668  0.9061
13896TIP3    H263104   5.771   4.290  14.353  1.1417  2.3386 -2.1274
13897TIP3   OH263105   3.694   5.223   2.818 -0.2157 -0.7062 -0.2193
13897TIP3    H163106   3.710   5.174   2.899  2.1905 -1.9191 -1.3072
13897TIP3    H263107   3.604   5.201   2.794 -0.2244 -2.1324  0.9453
13898TIP3   OH263108   1.415   2.381  12.881 -0.2325 -0.4797  0.7793
13898TIP3    H163109   1.449   2.387  12.792  2.2694 -2.6234  1.4768
13898TIP3    H263110   1.445   2.461  12.924 -1.2516  0.4536 -0.1742
13899TIP3   OH263111   2.081   0.993   0.053 -0.0063 -0.5661 -0.3754
13899TIP3    H163112   2.025   1.069   0.038 -1.5248 -1.3361  1.1055
13899TIP3    H263113   2.169   1.022   0.027 -0.7758  1.2272 -1.1279
13900TIP3   OH263114   2.411   1.604  16.470 -0.2618  0.6450  0.3806
13900TIP3    H163115   2.481   1.549  16.437  0.2986 -0.5950  3.3356
13900TIP3    H263116   2.339   1.592  16.408  1.2007 -0.1665 -1.2404
13901TIP3   OH263117   6.015   2.715   2.628  0.2560 -0.0880 -0.2389
13901TIP3    H163118   6.099   2.692   2.588 -1.0713 -0.8930 -2.8337
13901TIP3    H263119   6.007   2.655   2.702  1.3948 -0.8953 -0.7321
13902TIP3   OH263120   3.134   5.505  12.757  0.2488  0.4076  0.2668
13902TIP3    H163121   3.191   5.547  12.692 -0.4415  0.4923 -0.3013
13902TIP3    H263122   3.157   5.412  12.751 -0.3438  0.3027 -0.6813
13903TIP3   OH263123   6.021   6.113  13.847 -0.0230 -0.2150  0.0277
13903TIP3    H163124   6.023   6.095  13.753  0.7919  1.3531 -0.2925
13903TIP3    H263125   6.113   6.111  13.874 -0.1893  0.0648  0.6329
13904TIP3   OH263126   6.430   4.899   2.774 -0.7778 -0.0676 -0.0118
13904TIP3    H163127   6.377   4.960   2.825 -1.6731  0.2041 -1.2482
13904TIP3    H263128   6.373   4.869   2.704 -0.1498 -1.8305  0.1580
13905TIP3   OH263129   4.426   4.626   0.002  0.2507  0.0849 -0.3385
13905TIP3    H163130   4.381   4.542   0.010 -0.6694  0.4660 -1.2785
13905TIP3    H263131   4.392   4.678   0.073 -1.7696  0.7701 -1.7267
13906TIP3   OH263132   0.691   4.760   3.702 -0.0693 -0.3357 -0.3812
13906TIP3    H163133   0.694   4.784   3.795  0.1468 -0.4690 -0.3546
13906TIP3    H263134   0.628   4.822   3.664  0.5875  0.3698 -0.3369
13907TIP3   OH263135   3.694   1.102   2.947 -0.4887 -0.0484  0.0854
13907TIP3    H163136   3.649   1.073   2.869  0.4051  0.8095 -0.7814
13907TIP3    H263137   3.735   1.022   2.983 -0.4111 -0.3479 -0.6590
13908TIP3   OH263138   1.527   5.328   2.511 -0.0322 -0.3278 -0.2887
13908TIP3    H163139   1.514   5.381   2.433 -0.0970 -0.4606 -0.3677
13908TIP3    H263140   1.621   5.334   2.529 -0.3133  1.3919  0.8229
13909TIP3   OH263141   6.387   0.903   0.831 -0.0141 -0.1256  0.4012
13909TIP3    H163142   6.423   0.818   0.856  0.7774 -0.1021 -0.6205
13909TIP3    H263143   6.376   0.949   0.914  1.6784 -0.3969  0.8119
13910TIP3   OH263144   1.851   3.018   3.044  0.3265  0.3361 -0.0277
13910TIP3    H163145   1.866   2.980   2.957 -0.8663 -0.9872  0.3120
13910TIP3    H263146   1.840   3.112   3.027  1.6131  0.3242 -1.1010
13911TIP3   OH263147   3.551   4.490   5.189  0.2909  0.5353 -0.1743
13911TIP3    H163148   3.633   4.516   5.233  0.8968 -0.1771 -0.8602
13911TIP3    H263149   3.505   4.437   5.254 -0.7071  2.7451  1.0475
13912TIP3   OH263150   2.975   2.559  15.057 -0.0842 -0.5510 -0.0448
13912TIP3    H163151   3.025   2.501  15.000  0.5501  0.6228 -0.7085
13912TIP3    H263152   2.920   2.611  14.998 -0.4461 -0.2798  0.5128
13913TIP3   OH263153   3.946   1.915   1.463 -0.2900  0.0320  0.1305
13913TIP3    H163154   3.908   1.831   1.434  0.9360 -0.7351  0.6512
13913TIP3    H263155   3.873   1.961   1.505 -1.5944  0.2892 -2.2513
13914TIP3   OH263156   5.557   4.809   2.314  0.3746 -0.1228 -0.4171
13914TIP3    H163157   5.602   4.893   2.312 -0.0088  0.0884 -0.3279
13914TIP3    H263158   5.557   4.780   2.223 -0.3322  0.4320 -0.6005
13915TIP3   OH263159   6.435   6.317   3.532  0.1304 -0.2437 -0.1122
13915TIP3    H163160   6.480   6.243   3.493  1.0485 -0.9678  2.1646
13915TIP3    H263161   6.420   6.378   3.459  0.0482 -2.2868 -1.8788
13916TIP3   OH263162   2.778   5.893   6.182 -0.1195 -0.5410 -0.1812
13916TIP3    H163163   2.851   5.878   6.243  0.7868  0.5232 -0.9516
13916TIP3    H263164   2.718   5.820   6.198  2.3455 -2.9868 -1.3474
13917TIP3   OH263165   3.805   5.444  16.582 -0.3694  0.2994 -0.3255
13917TIP3    H163166   3.814   5.352  16.608  1.6091  1.2629  3.0748
13917TIP3    H263167   3.894   5.470  16.558 -0.5128  1.7128  0.5455
13918TIP3   OH263168   3.950   6.573   1.446 -0.1343  0.3725  0.3144
13918TIP3    H163169   4.021   6.527   1.402 -0.8075 -0.0294 -0.3906
13918TIP3    H263170   3.885   6.505   1.464 -1.7577  1.1723 -1.9686
13919TIP3   OH263171   2.219   3.850   0.522 -0.3540 -0.0856  0.1344
13919TIP3    H163172   2.195   3.759   0.504 -0.6954 -0.0403  0.3511
13919TIP3    H263173   2.263   3.846   0.607  2.9057 -0.5703 -1.4158
13920TIP3   OH263174   6.585   0.848   1.926 -0.5037 -0.1080  0.8379
13920TIP3    H163175   6.665   0.843   1.979  0.9570 -1.4030 -1.3270
13920TIP3    H263176   6.544   0.762   1.937 -0.0680 -0.4748 -0.2255
13921TIP3   OH263177   0.651   2.252   5.443 -0.1545 -0.6903  0.4061
13921TIP3    H163178   0.707   2.185   5.482 -0.8387  0.3831  3.6072
13921TIP3    H263179   0.695   2.335   5.465 -0.1860  0.0475 -1.9946
13922TIP3   OH263180   3.673   3.030  11.793  0.7517  0.7476 -0.1383
13922TIP3    H163181   3.584   3.006  11.818  1.0228 -2.4117 -1.7532
13922TIP3    H263182   3.680   3.122  11.818 -2.5005  0.7780  1.2192
13923TIP3   OH263183   2.274   3.709   3.562  0.4014 -0.0339  0.0779
13923TIP3    H163184   2.186   3.673   3.559 -0.0780  1.0577  0.6156
13923TIP3    H263185   2.321   3.662   3.493 -0.1864 -1.6417  0.7118
13924TIP3   OH263186   3.510   2.506   0.401 -0.0231  0.0346  0.0937
13924TIP3    H163187   3.478   2.524   0.489  0.5346 -2.3123  0.8627
13924TIP3    H263188   3.587   2.451   0.414  0.5367  0.2714 -1.8504
13925TIP3   OH263189   6.730   3.474  13.000  0.4999  0.6353  0.0266
13925TIP3    H163190   6.745   3.440  13.088  2.0860  1.5129  0.1205
13925TIP3    H263191   6.817   3.489  12.965 -0.1338  2.0449 -1.0233
13926TIP3   OH263192   4.927   1.486   5.282 -0.3168  0.0703 -0.6207
13926TIP3    H163193   4.973   1.402   5.283 -1.6847 -0.7140  0.7116
13926TIP3    H263194   4.986   1.545   5.235  0.7286 -1.5920 -1.5013
13927TIP3   OH263195   5.548   2.629   6.349  0.1683 -0.2017  0.9263
13927TIP3    H163196   5.580   2.539   6.350  0.8067  0.0153  2.0533
13927TIP3    H263197   5.626   2.682   6.335 -0.2359  0.1806  0.0638
13928TIP3   OH263198   5.685   4.121  14.116  0.5902 -0.2397 -0.0587
13928TIP3    H163199   5.654   4.208  14.090 -0.0292 -0.0105  1.3223
13928TIP3    H263200   5.770   4.138  14.157 -0.0673 -0.0868  1.3085
13929TIP3   OH263201   6.391   2.360  11.654 -0.1618  0.3898  0.3604
13929TIP3    H163202   6.403   2.455  11.641 -1.2630  0.2821 -2.0826
13929TIP3    H263203   6.356   2.352  11.742  2.6650  1.9489  1.7723
13930TIP3   OH263204   6.239   1.535   1.370 -0.7217  0.4130  0.1612
13930TIP3    H163205   6.315   1.485   1.398 -0.1149  1.1954 -0.0477
13930TIP3    H263206   6.264   1.571   1.284 -1.5024  0.2949 -0.1229
13931TIP3   OH263207   0.327   0.283  15.551 -0.7132 -0.2519 -0.2063
13931TIP3    H163208   0.415   0.320  15.563 -0.6341 -1.1153  2.8073
13931TIP3    H263209   0.342   0.199  15.508  0.2117 -1.1113  1.6540
13932TIP3   OH263210   0.295   1.288  15.941  0.5021  0.1106  0.3736
13932TIP3    H163211   0.275   1.210  15.888  0.4167  0.0785  0.4535
13932TIP3    H263212   0.271   1.362  15.885  1.5272  0.1018 -0.0915
13933TIP3   OH263213   6.571   3.747   3.114 -0.0876  0.2796 -0.9268
13933TIP3    H163214   6.551   3.814   3.049  0.0629  1.9897  0.6957
13933TIP3    H263215   6.513   3.767   3.187 -0.7396 -2.0157 -0.7584
13934TIP3   OH263216   4.607   1.774  10.568  0.5008  0.1613 -0.1834
13934TIP3    H163217   4.584   1.692  10.612  1.1681 -0.3827 -0.8231
13934TIP3    H263218   4.634   1.833  10.639  1.1072 -0.5408  0.1724
13935TIP3   OH263219   0.151   1.344  15.414  0.2845  0.2414  0.3352
13935TIP3    H163220   0.059   1.368  15.422  0.3399  0.1856  1.2131
13935TIP3    H263221   0.195   1.426  15.391 -0.0041  0.2217 -0.3202
13936TIP3   OH263222   4.702   5.996   1.519  0.3302 -0.3782  0.0236
13936TIP3    H163223   4.610   5.981   1.495  0.9879 -1.5347 -2.0122
13936TIP3    H263224   4.709   5.962   1.608 -0.8280 -1.9872 -0.4479
13937TIP3   OH263225   2.494   3.376  16.402 -0.3529  0.1031  0.2412
13937TIP3    H163226   2.554   3.332  16.342 -0.9582  1.4784 -1.4624
13937TIP3    H263227   2.411   3.379  16.355 -0.3368  3.0587  0.2216
13938TIP3   OH263228   2.100   5.010  14.634 -0.3141  0.4300  0.3564
13938TIP3    H163229   2.183   5.044  14.601  0.6822 -0.5895  1.6824
13938TIP3    H263230   2.116   4.917  14.650 -1.8759  0.0952  0.1763
13939TIP3   OH263231   4.112   5.606   4.295 -0.1981 -0.1084  0.6235
13939TIP3    H163232   4.050   5.672   4.264 -0.0590 -1.0544 -1.9082
13939TIP3    H263233   4.198   5.646   4.283  0.0052 -1.2007 -2.5750
13940TIP3   OH263234   3.977   6.186  16.808 -1.0236  0.2134  0.4412
13940TIP3    H163235   3.997   6.120  16.875  0.0171 -0.3748 -0.4219
13940TIP3    H263236   3.890   6.218  16.831 -0.2476  0.8524  2.7587
13941TIP3   OH263237   4.077   1.798   0.261 -0.3957 -0.7557 -0.2718
13941TIP3    H163238   4.027   1.807   0.343 -0.5920 -0.8397 -0.3798
13941TIP3    H263239   4.022   1.741   0.207  0.4788 -2.0132  0.1303
13942TIP3   OH263240   3.229   0.835   0.819  0.1766  0.5671  0.2080
13942TIP3    H163241   3.141   0.864   0.796 -0.2974 -0.1053  1.1316
13942TIP3    H263242   3.266   0.909   0.868 -0.8856 -0.1576  2.2121
13943TIP3   OH263243   4.523   3.035  15.688  0.0875 -0.7962 -0.7705
13943TIP3    H163244   4.496   3.084  15.610  0.6824 -0.3224 -0.6858
13943TIP3    H263245   4.521   2.943  15.660 -1.2443 -0.7570 -0.8644
13944TIP3   OH263246   5.285   1.954  15.199 -0.2763 -0.5531 -0.0624
13944TIP3    H163247   5.212   1.983  15.253 -1.2861  1.7527 -2.4286
13944TIP3    H263248   5.245   1.928  15.116  1.4339 -0.9063 -0.8306
13945TIP3   OH263249   4.460   3.115  14.767 -0.2999  0.1424  0.1792
13945TIP3    H163250   4.529   3.048  14.755  0.4550  1.2083 -1.9180
13945TIP3    H263251   4.388   3.067  14.807  1.0615 -1.3922  0.9468
13946TIP3   OH263252   4.999   1.110  12.359 -0.9898 -0.2255 -0.0666
13946TIP3    H163253   4.956   1.061  12.289 -1.3057 -0.1251  0.0553
13946TIP3    H263254   4.949   1.192  12.365 -0.1359  0.3468 -0.6378
13947TIP3   OH263255   1.669   4.823   0.302 -0.1748 -0.4513 -0.1749
13947TIP3    H163256   1.629   4.874   0.373  0.2282  0.1069 -0.3431
13947TIP3    H263257   1.595   4.798   0.246 -0.3603  0.1253 -0.1981
13948TIP3   OH263258   6.199   5.994  11.406  0.2162 -0.3573  0.3013
13948TIP3    H163259   6.135   5.923  11.413  0.3787 -0.3906  1.9853
13948TIP3    H263260   6.193   6.023  11.315 -1.5281 -0.9778  0.1712
13949TIP3   OH263261   4.385   0.812  12.865 -0.2071 -0.2223 -0.3972
13949TIP3    H163262   4.311   0.798  12.924 -0.9612 -3.2518 -1.8486
13949TIP3    H263263   4.462   0.798  12.920 -0.7476  0.8036  0.6582
13950TIP3   OH263264   1.249   2.641   5.882  0.1392 -0.0066 -0.3296
13950TIP3    H163265   1.185   2.711   5.867  0.1036  0.1563  0.5349
13950TIP3    H263266   1.199   2.573   5.927  0.5358  0.0679  0.2380
13951TIP3   OH263267   5.466   2.521   4.550 -0.1416  0.3537 -0.1916
13951TIP3    H163268   5.534   2.588   4.560 -1.3340  1.5688  0.1444
13951TIP3    H263269   5.384   2.571   4.548 -0.9503 -0.9653 -1.8618
13952TIP3   OH263270   5.910   4.489  11.859 -0.0522 -0.0237 -0.2250
13952TIP3    H163271   5.905   4.514  11.951 -2.2484 -1.2177  0.0599
13952TIP3    H263272   5.851   4.549  11.814 -1.8306 -1.6917 -0.2320
13953TIP3   OH263273   4.527   2.583   0.562 -0.1207  0.1076 -0.2764
13953TIP3    H163274   4.591   2.617   0.625 -0.0256  1.7578 -1.2004
13953TIP3    H263275   4.491   2.505   0.604  1.0781  0.2539  1.1144
13954TIP3   OH263276   5.261   1.332  15.735 -0.5610 -0.8657 -0.0571
13954TIP3    H163277   5.276   1.387  15.812  2.6895  0.3036 -1.3385
13954TIP3    H263278   5.211   1.387  15.675 -0.3527 -0.5884  0.0200
13955TIP3   OH263279   5.831   0.336   3.262 -0.3868 -0.1084 -0.5168
13955TIP3    H163280   5.860   0.246   3.247 -2.2033 -0.7215 -0.6424
13955TIP3    H263281   5.885   0.388   3.203 -0.1116 -1.2625 -1.3306
13956TIP3   OH263282   3.686   1.379  15.509 -0.5409  0.1495 -0.0608
13956TIP3    H163283   3.703   1.291  15.541  1.7197  0.4754 -0.1361
13956TIP3    H263284   3.651   1.427  15.584 -1.0501 -0.6141  0.1918
13957TIP3   OH263285   4.913   5.804   1.922  0.0140 -0.7122  0.1884
13957TIP3    H163286   4.871   5.773   2.002  0.1244 -1.5549 -0.0658
13957TIP3    H263287   4.997   5.759   1.920 -0.0400 -0.7912 -0.4601
13958TIP3   OH263288   3.235   6.685  14.038 -0.8613  0.2073 -0.0013
13958TIP3    H163289   3.216   6.709  13.948 -0.1305 -1.5434 -0.6629
13958TIP3    H263290   3.199   6.597  14.047 -0.6816  0.2520  1.3474
13959TIP3   OH263291   2.891   4.794  17.272 -0.3726 -0.1466  0.2578
13959TIP3    H163292   2.935   4.780  17.188 -1.1819 -2.2077  0.1334
13959TIP3    H263293   2.947   4.857  17.318  1.2979 -0.7148 -0.9207
13960TIP3   OH263294   0.881   4.968   4.088 -0.6891 -0.2823 -0.4583
13960TIP3    H163295   0.811   5.026   4.118 -1.9088 -2.0859  0.3812
13960TIP3    H263296   0.955   4.989   4.146 -1.1263  0.3755 -0.1203
13961TIP3   OH263297   5.231   2.985   4.164  0.2786 -0.1149  0.0598
13961TIP3    H163298   5.165   2.920   4.141  0.3035 -0.1898  0.1993
13961TIP3    H263299   5.214   3.005   4.256 -0.1874  0.6105 -0.1744
13962TIP3   OH263300   0.139   0.314   0.663 -0.0157 -0.4119  0.0596
13962TIP3    H163301   0.114   0.392   0.614  0.0068 -0.0561  0.6076
13962TIP3    H263302   0.124   0.337   0.755 -0.2660 -1.1455  0.2107
13963TIP3   OH263303   4.338   1.338   5.607  0.0387 -0.1805  0.1837
13963TIP3    H163304   4.371   1.248   5.606 -1.3908 -0.7473  0.2092
13963TIP3    H263305   4.347   1.366   5.698  3.0941  0.7807 -0.3291
13964TIP3   OH263306   0.419   4.056  11.138  0.9393  0.2116 -0.2261
13964TIP3    H163307   0.361   4.075  11.064 -1.8017 -2.2183  1.1144
13964TIP3    H263308   0.498   4.107  11.120 -1.7475  4.3036 -1.8875
13965TIP3   OH263309   0.913   3.444  14.807  0.2981  0.3418  0.5208
13965TIP3    H163310   0.954   3.495  14.737  1.0713  0.8709  1.3275
13965TIP3    H263311   0.978   3.445  14.878  0.0604 -1.2308  0.8001
13966TIP3   OH263312   5.070   5.197   4.416 -0.7823 -0.1440  0.2329
13966TIP3    H163313   5.046   5.157   4.500 -2.5023  0.1220 -0.1147
13966TIP3    H263314   5.097   5.286   4.439 -0.1390 -0.4239  0.6125
13967TIP3   OH263315   0.119   3.189  11.785 -0.2179 -0.1397 -0.3876
13967TIP3    H163316   0.183   3.148  11.727  1.4444 -1.3620  2.1460
13967TIP3    H263317   0.099   3.273  11.742  2.2363 -0.1970 -1.8408
13968TIP3   OH263318   6.296   0.027   2.524  0.0392 -0.0103  0.2590
13968TIP3    H163319   6.302   0.031   2.619 -0.8366  0.4590  0.3085
13968TIP3    H263320   6.230   0.092   2.501  0.0791 -0.2687 -0.6544
13969TIP3   OH263321   6.095   6.615  16.183  0.2964 -0.3748  0.1310
13969TIP3    H163322   6.067   6.593  16.094  0.9072 -1.3684  0.1723
13969TIP3    H263323   6.013   6.629  16.230 -0.1435 -2.2757  0.0113
13970TIP3   OH263324   3.987   2.179  16.439 -0.6710 -0.3235  0.2372
13970TIP3    H163325   4.012   2.105  16.385  0.2155 -0.3510  0.6669
13970TIP3    H263326   3.897   2.160  16.467 -1.9406  0.6385 -2.7979
13971TIP3   OH263327   2.794   2.739   3.096 -0.5843 -0.4858 -0.0671
13971TIP3    H163328   2.725   2.757   3.159  0.2095  1.6227  0.2975
13971TIP3    H263329   2.861   2.691   3.145 -0.5047  0.0880  0.3979
13972TIP3   OH263330   0.150   2.305  14.215 -0.4666  0.1937  0.3027
13972TIP3    H163331   0.093   2.228  14.215 -0.8529  0.4727 -0.1866
13972TIP3    H263332   0.229   2.276  14.260  0.1325 -1.0591 -1.4418
13973TIP3   OH263333   3.318   1.167   2.687  1.2366  0.4159  0.0598
13973TIP3    H163334   3.368   1.093   2.722 -0.0244 -0.8965 -0.8055
13973TIP3    H263335   3.358   1.187   2.603  2.2653  1.4809  0.7696
13974TIP3   OH263336   1.074   5.982   1.621  0.0131  0.1848 -0.0802
13974TIP3    H163337   1.040   6.071   1.631 -2.6332 -0.8258  0.4566
13974TIP3    H263338   1.066   5.964   1.527 -2.4368 -0.5515  0.2230
13975TIP3   OH263339   0.337   1.046   5.035  0.8995  0.0171 -0.0584
13975TIP3    H163340   0.383   1.027   5.117  1.9798  0.5034 -0.5348
13975TIP3    H263341   0.406   1.069   4.973  0.1137 -0.4445 -1.1525
13976TIP3   OH263342   2.557   2.084   6.330  0.5557  1.0291 -0.2313
13976TIP3    H163343   2.542   2.178   6.339 -0.3619  1.1035 -2.1328
13976TIP3    H263344   2.470   2.045   6.339  0.6321  0.5617 -1.3406
13977TIP3   OH263345   1.095   4.415   5.156 -0.1587  0.3014 -0.1264
13977TIP3    H163346   1.137   4.501   5.160 -1.0991  0.7398  1.1135
13977TIP3    H263347   1.017   4.424   5.211  0.9468 -2.0081  2.0319
13978TIP3   OH263348   6.664   2.267  14.735 -0.4507 -0.0561 -0.3494
13978TIP3    H163349   6.587   2.316  14.764  0.1574  0.2892  0.7223
13978TIP3    H263350   6.723   2.333  14.701 -0.4503 -0.2787 -0.7940
13979TIP3   OH263351   1.364   6.342   4.852  0.3123 -0.8256  0.0564
13979TIP3    H163352   1.398   6.304   4.772 -1.7064 -1.4278 -0.5513
13979TIP3    H263353   1.443   6.371   4.900  1.5342  0.6312 -2.6136
13980TIP3   OH263354   3.414   4.266  17.127 -0.1873 -0.6833  0.4938
13980TIP3    H163355   3.449   4.214  17.199 -1.9932 -2.1234  0.4094
13980TIP3    H263356   3.381   4.201  17.065 -0.1741  0.5523 -0.8552
13981TIP3   OH263357   1.627   4.336  15.260  0.2346 -0.5191 -0.0872
13981TIP3    H163358   1.643   4.428  15.281 -0.3508 -0.5564  0.5929
13981TIP3    H263359   1.668   4.323  15.175  2.6468 -0.3149  0.9819
13982TIP3   OH263360   6.497   4.121   1.767  0.1105  0.4485 -0.1041
13982TIP3    H163361   6.476   4.044   1.715 -0.3148  1.0860 -0.9117
13982TIP3    H263362   6.416   4.139   1.817  0.3745  0.0909  0.4661
13983TIP3   OH263363   0.831   1.228  14.062  0.4815  0.3730 -0.2410
13983TIP3    H163364   0.856   1.209  14.152 -3.4338  1.8422  1.4045
13983TIP3    H263365   0.883   1.305  14.039  1.7765 -0.2120  0.5990
13984TIP3   OH263366   1.041   3.577  16.531  0.2398  0.7671 -0.1916
13984TIP3    H163367   0.992   3.648  16.488  0.7370  0.8551 -0.6253
13984TIP3    H263368   1.131   3.589  16.501  0.8564  1.5696  1.8658
13985TIP3   OH263369   2.367   4.962   4.754 -0.1936 -0.5272 -0.0668
13985TIP3    H163370   2.324   4.928   4.676  0.8874 -1.6960 -0.1875
13985TIP3    H263371   2.460   4.940   4.742  1.1021  4.2949 -1.1528
13986TIP3   OH263372   4.186   5.830   5.325  0.4913  0.0521 -0.0850
13986TIP3    H163373   4.174   5.784   5.408  1.7032 -0.7954 -0.3633
13986TIP3    H263374   4.268   5.879   5.335 -0.0408  1.0239 -0.3130
13987TIP3   OH263375   3.271   4.793  16.367  0.3579 -0.2599  0.2020
13987TIP3    H163376   3.260   4.889  16.369 -0.5592 -0.3728  1.6837
13987TIP3    H263377   3.344   4.777  16.427 -0.4545 -0.5804  1.1315
13988TIP3   OH263378   6.594   6.566   4.257  0.1302  0.7158 -0.1203
13988TIP3    H163379   6.553   6.646   4.289 -1.2838 -0.0629  0.0831
13988TIP3    H263380   6.637   6.529   4.335 -1.1426  0.1377  0.3398
13989TIP3   OH263381   5.790   6.062   5.449  0.1670  0.1705 -0.4476
13989TIP3    H163382   5.845   6.084   5.374 -0.8010 -1.2481 -1.6175
13989TIP3    H263383   5.709   6.030   5.411 -0.6308  0.0839  1.2308
13990TIP3   OH263384   2.593   2.071   5.516  0.3894  0.7653  0.3290
13990TIP3    H163385   2.568   2.024   5.596  2.4316 -0.0363  0.5593
13990TIP3    H263386   2.605   2.002   5.450 -0.5240  1.3588 -0.4899
13991TIP3   OH263387   6.125   1.670   3.160 -0.1239  0.1224 -0.3555
13991TIP3    H163388   6.067   1.649   3.234  1.0841  1.6953  1.1125
13991TIP3    H263389   6.089   1.750   3.123  0.4743  0.5017 -0.1252
13992TIP3   OH263390   3.485   5.784  17.007 -0.2566 -0.5036 -0.2853
13992TIP3    H163391   3.491   5.790  17.102 -0.4832 -2.8430 -0.0845
13992TIP3    H263392   3.568   5.746  16.980  0.2312  1.0711 -1.1817
13993TIP3   OH263393   3.035   4.000   5.987 -0.9310 -0.7487  0.0887
13993TIP3    H163394   3.078   4.050   6.057 -2.7388  0.5568  0.3584
13993TIP3    H263395   2.953   3.970   6.026 -0.9205 -2.0020 -0.7945
13994TIP3   OH263396   2.864   3.174  13.466  0.4131 -0.3652 -0.2434
13994TIP3    H163397   2.793   3.159  13.403  0.6424 -0.4195 -0.4876
13994TIP3    H263398   2.860   3.099  13.525 -1.9495  1.2055  1.8758
13995TIP3   OH263399   0.430   3.632   5.323 -0.4753  0.5998  0.0338
13995TIP3    H163400   0.517   3.607   5.355 -0.9861 -0.8729  0.3260
13995TIP3    H263401   0.374   3.628   5.400 -1.3195 -1.0747 -0.6213
13996TIP3   OH263402   2.831   2.163  10.971  0.0346  0.1149  0.4873
13996TIP3    H163403   2.833   2.259  10.975 -1.0290  0.1096  1.5066
13996TIP3    H263404   2.745   2.142  10.937  0.0511 -0.4972  0.8137
13997TIP3   OH263405   6.698   1.605  16.615  0.2538  0.1513  0.6021
13997TIP3    H163406   6.653   1.604  16.699  1.0269  2.5804  1.1058
13997TIP3    H263407   6.644   1.663  16.560 -0.0495 -1.1201 -0.5070
13998TIP3   OH263408   6.460   2.311   4.769 -0.1887  0.9338 -0.3771
13998TIP3    H163409   6.473   2.217   4.757  1.1341  1.1334 -0.6849
13998TIP3    H263410   6.367   2.321   4.787 -0.2899 -0.4595 -0.0763
13999TIP3   OH263411   3.731   2.881   1.717  0.3422  0.4002  0.5554
13999TIP3    H163412   3.720   2.905   1.625  1.1269  0.5373  0.4947
13999TIP3    H263413   3.825   2.881   1.732  0.2956 -0.9128  1.0240
14000TIP3   OH263414   1.685   6.563   1.270  1.0130  0.6230  0.3506
14000TIP3    H163415   1.623   6.575   1.198  1.9744  3.1690 -0.1533
14000TIP3    H263416   1.741   6.491   1.242 -0.1538 -0.0516 -0.3129
14001TIP3   OH263417   0.491   0.679  16.000  0.0856  1.0688  0.1065
14001TIP3    H163418   0.435   0.741  16.046  1.1268  1.7038  0.5547
14001TIP3    H263419   0.580   0.699  16.031  0.4112 -0.9386  0.5993
14002TIP3   OH263420   3.259   2.250  12.723 -0.0768 -0.0942 -0.0247
14002TIP3    H163421   3.166   2.228  12.727  0.0154 -1.3754 -2.7126
14002TIP3    H263422   3.292   2.232  12.811 -1.5515 -3.8296 -0.0525
14003TIP3   OH263423   6.669   4.308  10.943 -0.0438  0.1453  0.1999
14003TIP3    H163424   6.716   4.300  10.861 -0.7047  2.1841 -0.4230
14003TIP3    H263425   6.611   4.384  10.931 -0.0690  0.5774  2.5732
14004TIP3   OH263426   0.476   1.499  11.691 -0.0006 -0.2813 -0.0653
14004TIP3    H163427   0.544   1.441  11.657  0.8057 -0.3764  1.5762
14004TIP3    H263428   0.450   1.458  11.773  1.1122  1.9761  1.5374
14005TIP3   OH263429   5.596   6.536   0.281 -0.5548 -0.2561 -1.0156
14005TIP3    H163430   5.675   6.515   0.231 -0.5431 -0.4484 -0.9185
14005TIP3    H263431   5.627   6.591   0.352 -0.6045  0.2072 -1.3502
14006TIP3   OH263432   2.974   6.211   6.812 -0.5697 -0.0355 -0.7758
14006TIP3    H163433   2.992   6.278   6.746  0.1556  0.0539 -0.4957
14006TIP3    H263434   3.011   6.131   6.776 -1.7566 -0.3757 -1.2728
14007TIP3   OH263435   3.422   5.638   0.600  0.8336  0.2158  0.2902
14007TIP3    H163436   3.495   5.690   0.567  0.6807  0.1704 -0.1329
14007TIP3    H263437   3.392   5.587   0.524  1.0851 -0.6180  0.7389
14008TIP3   OH263438   6.738   2.915   2.632 -0.3906  0.6046 -0.0783
14008TIP3    H163439   6.809   2.866   2.589 -0.9099  0.7299 -1.1073
14008TIP3    H263440   6.719   2.864   2.711 -2.0599 -1.8922 -1.9247
14009TIP3   OH263441   3.603   3.495  11.978  0.1902  0.2889  0.1952
14009TIP3    H163442   3.544   3.433  11.935 -0.3593  0.7701  0.2371
14009TIP3    H263443   3.643   3.544  11.906  1.6477 -0.9802  0.0797
14010TIP3   OH263444   1.921   5.107  12.819  0.5794 -0.3471 -0.1731
14010TIP3    H163445   1.934   5.058  12.900  2.2758 -1.9291 -1.3341
14010TIP3    H263446   1.900   5.041  12.753 -0.1951  0.8338 -1.1560
14011TIP3   OH263447   0.754   2.294  12.478  0.0869 -0.2258 -0.1794
14011TIP3    H163448   0.687   2.229  12.460 -0.9800  0.4105  1.2520
14011TIP3    H263449   0.740   2.362  12.413  0.0084 -0.5692 -0.5250
14012TIP3   OH263450   1.912   1.343   2.966 -0.0798 -0.2480 -0.0516
14012TIP3    H163451   1.920   1.347   3.061  2.1443 -2.2741 -0.0683
14012TIP3    H263452   1.936   1.431   2.936 -0.1649  0.2274  1.2132
14013TIP3   OH263453   1.588   2.912  16.204  0.5098 -0.1856  0.1559
14013TIP3    H163454   1.634   2.944  16.126  0.1053 -0.1903 -0.0864
14013TIP3    H263455   1.630   2.958  16.277 -0.2132  1.0748 -0.2006
14014TIP3   OH263456   1.076   3.274   0.738 -0.5275  0.8875  0.4639
14014TIP3    H163457   1.141   3.318   0.794  0.7060  0.0213 -0.2292
14014TIP3    H263458   1.113   3.188   0.722 -0.4007  1.3684 -2.3608
14015TIP3   OH263459   3.471   3.302   3.672  0.0983 -0.1852  0.4954
14015TIP3    H163460   3.463   3.266   3.584  2.7276 -3.0009  1.2406
14015TIP3    H263461   3.451   3.230   3.731  1.7551  0.5953  2.1485
14016TIP3   OH263462   6.106   6.390  13.622 -0.0015 -0.2704  0.1220
14016TIP3    H163463   6.096   6.382  13.528 -2.6499 -3.5792  0.5064
14016TIP3    H263464   6.173   6.324  13.645  0.3793  0.2709  0.5970
14017TIP3   OH263465   0.401   1.177  12.625 -0.3503 -0.3818 -0.7873
14017TIP3    H163466   0.319   1.206  12.666 -1.0956 -1.3189 -1.5596
14017TIP3    H263467   0.437   1.113  12.686  0.3331  0.7301  0.0192
14018TIP3   OH263468   6.705   1.842  14.148  0.6287 -0.1098  0.2104
14018TIP3    H163469   6.757   1.774  14.106  1.9811 -0.0252  1.6627
14018TIP3    H263470   6.704   1.914  14.085  2.3229 -0.1100  0.1411
14019TIP3   OH263471   1.601   5.129  16.800 -0.4701 -0.2934  0.3234
14019TIP3    H163472   1.652   5.053  16.771  2.3323  2.0904 -1.6402
14019TIP3    H263473   1.646   5.159  16.879  0.8870  1.4094 -1.0227
14020TIP3   OH263474   6.421   2.318   1.210 -0.2354  0.3544  0.0844
14020TIP3    H163475   6.464   2.255   1.267  2.0167  1.4841 -0.2544
14020TIP3    H263476   6.335   2.333   1.250  0.3258 -0.7247  1.7680
14021TIP3   OH263477   0.606   4.936  12.427 -0.5390  0.0765  0.2544
14021TIP3    H163478   0.600   4.859  12.483 -1.5406 -0.1798 -0.1725
14021TIP3    H263479   0.518   4.974  12.428  0.1036  1.6343  1.0117
14022TIP3   OH263480   6.349   2.038   5.232 -0.2660 -0.0472 -0.3370
14022TIP3    H163481   6.431   2.072   5.267 -0.5390 -0.2282  0.4953
14022TIP3    H263482   6.295   2.115   5.217 -0.3253 -0.0047  0.1013
14023TIP3   OH263483   1.637   3.833   5.417 -0.0010 -0.0053 -0.3182
14023TIP3    H163484   1.685   3.800   5.493 -0.9398  0.1380  0.3521
14023TIP3    H263485   1.699   3.824   5.344  0.6461 -0.8489  0.3143
14024TIP3   OH263486   2.056   4.590  13.858 -0.1156  0.0204  0.0760
14024TIP3    H163487   2.000   4.529  13.906 -0.5430  0.4496  0.1288
14024TIP3    H263488   2.098   4.535  13.791  0.7095 -0.6347  1.0963
14025TIP3   OH263489   0.814   3.303   3.583  0.8272  0.0124  0.0929
14025TIP3    H163490   0.735   3.280   3.533  0.9251  1.3613 -0.7254
14025TIP3    H263491   0.867   3.223   3.582 -0.2910 -0.7601  0.2280
14026TIP3   OH263492   2.661   4.040  11.388  0.3462 -0.0517  0.0603
14026TIP3    H163493   2.608   3.970  11.349 -0.8287  2.7859 -4.0685
14026TIP3    H263494   2.751   4.019  11.361  0.1619 -0.5322 -0.1989
14027TIP3   OH263495   4.651   4.804   4.524 -0.6516 -0.5936  0.6111
14027TIP3    H163496   4.708   4.866   4.477 -1.4636  0.7315  1.3019
14027TIP3    H263497   4.565   4.846   4.524 -0.7697 -0.6994  2.9208
14028TIP3   OH263498   5.491   3.818   5.919  0.0898  0.2800 -0.2307
14028TIP3    H163499   5.570   3.867   5.896 -0.1521  0.1542 -1.3573
14028TIP3    H263500   5.519   3.727   5.921  0.5530  0.4029  1.9209
14029TIP3   OH263501   1.655   4.550   0.056 -0.0367 -0.0688 -0.2819
14029TIP3    H163502   1.588   4.594   0.108 -0.3715  0.5688 -1.2319
14029TIP3    H263503   1.736   4.561   0.107  0.1366  2.7008 -1.0118
14030TIP3   OH263504   6.567   4.311  15.032 -0.4432 -0.0398  0.1321
14030TIP3    H163505   6.619   4.245  14.985  0.3310  0.9376 -0.4290
14030TIP3    H263506   6.478   4.276  15.031 -0.1549 -0.8031 -0.6511
14031TIP3   OH263507   1.528   4.270  11.917 -0.0246 -0.4279  0.3213
14031TIP3    H163508   1.507   4.350  11.869 -0.7317 -0.6339  0.2713
14031TIP3    H263509   1.605   4.235  11.873  0.6887  0.5582  0.7520
14032TIP3   OH263510   0.493   1.648   4.547 -0.4014 -0.3139 -0.2339
14032TIP3    H163511   0.422   1.702   4.512  1.8746  1.2362 -2.9482
14032TIP3    H263512   0.493   1.570   4.492 -0.3578 -0.5652  0.1239
14033TIP3   OH263513   3.837   3.354   2.347 -0.2507  0.4998 -0.0351
14033TIP3    H163514   3.864   3.320   2.433 -1.6538  0.7957  0.5572
14033TIP3    H263515   3.744   3.331   2.341  0.1913 -0.9585 -2.2026
14034TIP3   OH263516   4.540   3.682   3.441  0.2797  0.1370  0.1361
14034TIP3    H163517   4.601   3.629   3.389 -1.6898 -1.4974 -0.6320
14034TIP3    H263518   4.456   3.670   3.398 -0.7653  1.6507  1.6528
14035TIP3   OH263519   3.426   4.347   6.540  0.5433 -0.3276 -0.3124
14035TIP3    H163520   3.508   4.308   6.569  0.5238 -0.9916 -1.1025
14035TIP3    H263521   3.441   4.441   6.544  1.7209 -0.4454 -1.4513
14036TIP3   OH263522   4.532   4.618   4.710 -0.2088 -0.0422 -0.6612
14036TIP3    H163523   4.437   4.604   4.704 -0.3513  1.1120 -1.4793
14036TIP3    H263524   4.560   4.632   4.619  0.2203  2.6211 -0.2065
14037TIP3   OH263525   5.808   3.168   3.544  0.1492  0.6698  0.6186
14037TIP3    H163526   5.749   3.173   3.468 -0.2122  2.2160  0.9548
14037TIP3    H263527   5.837   3.077   3.546 -0.2020  0.4769 -1.0957
14038TIP3   OH263528   2.167   3.969   5.504 -0.0414 -0.1542 -0.7186
14038TIP3    H163529   2.248   3.924   5.528 -0.5608 -0.5124  0.4084
14038TIP3    H263530   2.115   3.903   5.458 -1.2335 -1.1118  1.8189
14039TIP3   OH263531   1.711   2.921  13.199 -0.0192 -0.1145  0.5356
14039TIP3    H163532   1.796   2.925  13.155  0.2865 -2.1274  0.8290
14039TIP3    H263533   1.648   2.915  13.128  0.2435 -0.4798  0.3285
14040TIP3   OH263534   4.607   3.220   5.443 -0.5582 -0.0164 -0.1564
14040TIP3    H163535   4.614   3.307   5.404 -1.8040 -0.5943 -1.8136
14040TIP3    H263536   4.697   3.195   5.463  0.0735  0.7063 -1.8838
14041TIP3   OH263537   0.229   0.141   3.289  0.1437 -0.3748 -0.4862
14041TIP3    H163538   0.278   0.069   3.250  0.4926  0.6566 -2.0666
14041TIP3    H263539   0.281   0.168   3.364  2.0413  0.6320 -2.0652
14042TIP3   OH263540   5.207   2.376   4.336  0.1415  0.4143  0.0406
14042TIP3    H163541   5.245   2.459   4.309  2.0831 -1.2024 -2.6505
14042TIP3    H263542   5.261   2.348   4.410 -0.3124  1.3284  0.7422
14043TIP3   OH263543   0.509   2.178   2.123 -0.3605  0.7131  0.1293
14043TIP3    H163544   0.494   2.263   2.080  0.1769  1.6054  1.6350
14043TIP3    H263545   0.605   2.169   2.125 -0.4098  0.2021  0.2605
14044TIP3   OH263546   1.197   0.384   4.606  0.7935 -0.2336  0.4594
14044TIP3    H163547   1.194   0.444   4.682 -0.4201 -3.4086  3.1581
14044TIP3    H263548   1.108   0.385   4.572  0.8142 -0.3470  0.4025
14045TIP3   OH263549   6.468   0.349  15.480  0.0076 -0.0589 -0.0080
14045TIP3    H163550   6.373   0.347  15.488  0.1387 -0.8036  1.8955
14045TIP3    H263551   6.491   0.441  15.492 -0.4250  0.0178  0.2443
14046TIP3   OH263552   3.322   0.461  14.426 -0.1206  0.0561  0.0955
14046TIP3    H163553   3.338   0.409  14.505 -0.6592 -0.0221  0.1529
14046TIP3    H263554   3.363   0.410  14.356  2.3160  1.1775  0.5936
14047TIP3   OH263555   4.957   5.471   0.881  0.0145 -0.3415 -0.3410
14047TIP3    H163556   4.971   5.565   0.880 -0.6961 -0.1229  2.1930
14047TIP3    H263557   5.042   5.433   0.859  0.8725  0.9065  0.7075
14048TIP3   OH263558   3.545   0.690  10.635  0.0583 -0.9756 -0.3657
14048TIP3    H163559   3.494   0.753  10.583  1.5496 -1.4351 -2.5711
14048TIP3    H263560   3.630   0.734  10.647 -0.7355 -0.1595  3.3418
14049TIP3   OH263561   3.505   2.524  12.753  0.2415  0.5583  0.4275
14049TIP3    H163562   3.475   2.465  12.683 -0.7899  1.0334  0.4450
14049TIP3    H263563   3.460   2.607  12.735  2.0646  1.5180  0.1013
14050TIP3   OH263564   6.190   2.580  11.518  0.0211 -0.8650 -0.0629
14050TIP3    H163565   6.271   2.631  11.514  0.1411 -1.1028 -0.8718
14050TIP3    H263566   6.165   2.582  11.610  1.5667 -1.7685  0.4027
14051TIP3   OH263567   0.354   6.393  13.004 -0.0617  0.2088  0.2667
14051TIP3    H163568   0.417   6.443  13.056 -1.7262  1.7938  0.8526
14051TIP3    H263569   0.342   6.311  13.052 -0.0024  0.7774  1.2669
14052TIP3   OH263570   6.160   5.074   6.028  0.4329 -0.0960 -0.4956
14052TIP3    H163571   6.246   5.094   5.993  0.8149 -1.7429 -0.5685
14052TIP3    H263572   6.173   5.069   6.123  0.6104 -1.1286 -0.5631
14053TIP3   OH263573   5.387   3.837   1.792 -0.1925 -0.3409 -0.1761
14053TIP3    H163574   5.464   3.888   1.766  0.3120 -1.5393 -1.1974
14053TIP3    H263575   5.392   3.833   1.887 -1.4689  3.2769  0.1973
14054TIP3   OH263576   2.900   3.056  16.176  0.1464  0.4625 -0.2412
14054TIP3    H163577   2.901   2.961  16.165  0.3100  0.0954  2.3166
14054TIP3    H263578   2.987   3.084  16.147  0.7244 -0.4234  0.5712
14055TIP3   OH263579   4.607   5.602  16.882  0.0768 -0.4023  0.1119
14055TIP3    H163580   4.623   5.508  16.884 -1.6797 -0.7699  3.6863
14055TIP3    H263581   4.668   5.638  16.946  1.7363  1.2296 -2.2057
14056TIP3   OH263582   0.484   0.386   0.963 -0.1445 -0.2425 -0.2716
14056TIP3    H163583   0.425   0.456   0.936  1.4964  1.0860 -0.6423
14056TIP3    H263584   0.436   0.337   1.028 -1.3569  1.2746  0.0373
14057TIP3   OH263585   3.972   2.936   3.163 -0.2900 -0.0743  0.0942
14057TIP3    H163586   4.062   2.910   3.144 -0.3062 -0.4772  0.5225
14057TIP3    H263587   3.941   2.868   3.224 -0.6737  0.4036  0.4377
14058TIP3   OH263588   0.420   4.999  15.586  0.4369  0.2978  0.5011
14058TIP3    H163589   0.456   5.004  15.497  2.2486  0.7809  1.2104
14058TIP3    H263590   0.330   5.030  15.577  0.9216  1.4148 -0.9973
14059TIP3   OH263591   2.383   3.216  12.540 -0.3998 -0.0071 -0.9986
14059TIP3    H163592   2.333   3.297  12.545 -1.1115 -0.3519 -2.0846
14059TIP3    H263593   2.317   3.149  12.518  0.0314 -1.0282  0.6220
14060TIP3   OH263594   5.794   0.796  12.221  0.4472 -0.4816 -0.1824
14060TIP3    H163595   5.744   0.813  12.141  0.9327  1.9339 -0.0688
14060TIP3    H263596   5.748   0.725  12.265 -2.6413  1.3102 -0.2806
14061TIP3   OH263597   2.857   0.197  15.034  0.3128  0.0036 -0.3695
14061TIP3    H163598   2.944   0.178  15.070  1.3703  0.1133 -2.6872
14061TIP3    H263599   2.796   0.177  15.105  2.2815  0.8843  1.6534
14062TIP3   OH263600   5.096   5.052   6.555 -0.6955  0.2504 -0.5821
14062TIP3    H163601   5.180   5.026   6.593 -0.9711 -0.3413 -0.3523
14062TIP3    H263602   5.034   4.987   6.588 -1.9190  2.5034  1.9494
14063TIP3   OH263603   5.696   5.196  14.188  0.1054 -0.4361 -0.1377
14063TIP3    H163604   5.679   5.103  14.207 -0.7088 -0.1869  0.4290
14063TIP3    H263605   5.618   5.241  14.220 -0.6160  0.2194 -2.6029
14064TIP3   OH263606   0.627   5.048  10.761 -0.6195  0.4599  0.6268
14064TIP3    H163607   0.607   4.972  10.706  1.5288  0.4516 -0.2257
14064TIP3    H263608   0.715   5.031  10.795 -0.0557  2.5649  0.3711
14065TIP3   OH263609   2.459   3.332   1.135 -0.3350 -0.5363 -0.0244
14065TIP3    H163610   2.407   3.337   1.055 -1.7822 -0.3067  0.9064
14065TIP3    H263611   2.525   3.401   1.124  0.4495 -1.4761 -1.6415
14066TIP3   OH263612   1.001   1.366  13.756 -0.4337 -0.4685 -0.2483
14066TIP3    H163613   1.079   1.313  13.774 -0.5611 -0.3468  0.6743
14066TIP3    H263614   1.000   1.432  13.824 -1.7235 -0.8900  0.1731
14067TIP3   OH263615   3.019   2.158   5.639  0.0673  0.2731 -0.1349
14067TIP3    H163616   2.988   2.183   5.552  1.3650  0.1226 -0.6659
14067TIP3    H263617   3.114   2.149   5.629  0.0396 -1.5236  0.8628
14068TIP3   OH263618   1.624   2.214  16.615 -0.6098  0.2388 -0.0212
14068TIP3    H163619   1.683   2.273  16.662  0.5030 -0.0363 -1.0023
14068TIP3    H263620   1.593   2.153  16.682 -1.4949  1.6724  0.9386
14069TIP3   OH263621   4.787   0.561  12.772  0.1204  0.1830  0.1819
14069TIP3    H163622   4.832   0.585  12.691  0.1514 -1.0873 -0.1880
14069TIP3    H263623   4.794   0.640  12.827  3.3676 -0.1094  0.3821
14070TIP3   OH263624   6.276   4.577   3.494  0.7210  0.2629 -0.0780
14070TIP3    H163625   6.210   4.543   3.433  0.1387  0.3261  0.5082
14070TIP3    H263626   6.232   4.649   3.538  1.0539  0.0581  0.5954
14071TIP3   OH263627   3.734   1.308   3.889  0.5962  0.4630  0.1165
14071TIP3    H163628   3.756   1.216   3.900 -2.9356 -0.9283 -2.6051
14071TIP3    H263629   3.775   1.333   3.806  0.4543  0.9881  0.1981
14072TIP3   OH263630   3.592   0.868  14.936 -0.7062 -0.1631  0.4398
14072TIP3    H163631   3.582   0.949  14.986  0.1093 -0.3396  0.8988
14072TIP3    H263632   3.542   0.883  14.855 -0.4244  0.8534  0.4465
14073TIP3   OH263633   1.774   4.588  12.268 -0.3078 -0.2724  0.2580
14073TIP3    H163634   1.732   4.587  12.182 -0.6683 -2.4224  0.3876
14073TIP3    H263635   1.702   4.600  12.329 -0.8796 -3.5441  0.4540
14074TIP3   OH263636   4.756   4.912   3.050  0.1866  0.0266 -0.3540
14074TIP3    H163637   4.663   4.932   3.040  0.5037  1.3732 -0.7727
14074TIP3    H263638   4.799   4.956   2.977  1.2487  0.0943  0.2794
14075TIP3   OH263639   1.428   3.154   4.793 -0.0617  0.1769 -0.3645
14075TIP3    H163640   1.370   3.139   4.718 -0.9425  1.8151 -0.0417
14075TIP3    H263641   1.377   3.127   4.869  0.0521  0.4732 -0.1810
14076TIP3   OH263642   4.568   3.370   6.178  0.0219 -0.2334  0.6722
14076TIP3    H163643   4.514   3.291   6.182 -2.7248  1.5318  2.9262
14076TIP3    H263644   4.628   3.361   6.252 -0.7869  0.0643  1.3819
14077TIP3   OH263645   1.406   1.875  14.134 -0.8619  0.5736  0.1481
14077TIP3    H163646   1.343   1.938  14.096  0.8276  1.0664 -2.0867
14077TIP3    H263647   1.488   1.923  14.136 -0.0856 -0.7529  0.9092
14078TIP3   OH263648   5.999   5.484   1.264  0.7054  0.2824  0.0567
14078TIP3    H163649   5.939   5.558   1.265  0.6902  0.2650  0.7140
14078TIP3    H263650   6.000   5.455   1.172 -1.7296 -0.8740  0.2991
14079TIP3   OH263651   0.513   5.880  14.710  0.5106 -0.3893  0.3186
14079TIP3    H163652   0.452   5.945  14.747  1.5707  1.6372 -1.3423
14079TIP3    H263653   0.574   5.862  14.782 -0.4906 -0.4903  1.1809
14080TIP3   OH263654   1.615   3.898   4.717 -0.5578 -0.8665  0.5994
14080TIP3    H163655   1.548   3.947   4.764  0.4679  0.2678  0.9021
14080TIP3    H263656   1.653   3.840   4.782  1.0761  0.9195  1.3394
14081TIP3   OH263657   5.815   4.727   0.507 -0.6311  0.1250  0.2813
14081TIP3    H163658   5.736   4.695   0.551 -0.1093 -1.2476  0.2491
14081TIP3    H263659   5.848   4.651   0.459  0.8507  0.6251  0.4836
14082TIP3   OH263660   0.222   1.755  16.421  0.2356 -0.4520  0.0615
14082TIP3    H163661   0.133   1.770  16.388  0.8834  0.7373 -1.2753
14082TIP3    H263662   0.250   1.674  16.377  0.3102 -0.0486 -0.6545
14083TIP3   OH263663   1.930   1.123  13.482 -0.6082  0.4596 -0.0533
14083TIP3    H163664   1.878   1.167  13.549  0.3226  0.7006  0.5216
14083TIP3    H263665   1.909   1.030  13.492 -1.1915  0.5870 -0.0643
14084TIP3   OH263666   0.459   6.721  13.509  0.1336  0.2505 -0.1659
14084TIP3    H163667   0.536   6.715  13.453  0.4541  0.7515  0.2092
14084TIP3    H263668   0.398   6.657  13.474  1.0043 -0.6768 -0.0299
14085TIP3   OH263669   5.607   1.772  14.860  0.5110  0.3994  0.2228
14085TIP3    H163670   5.666   1.797  14.931  1.1454  2.0330 -0.8243
14085TIP3    H263671   5.532   1.732  14.904  1.7626 -0.4420  1.6709
14086TIP3   OH263672   3.189   6.581  14.365  0.0369  0.3296  0.0893
14086TIP3    H163673   3.194   6.676  14.376 -1.0077  0.4628 -0.4890
14086TIP3    H263674   3.278   6.554  14.342  0.3421  1.1596  0.2853
14087TIP3   OH263675   2.996   4.849   5.569  0.4737 -0.4398 -0.2289
14087TIP3    H163676   2.914   4.890   5.598  0.8893 -1.0379  1.9068
14087TIP3    H263677   3.036   4.914   5.512 -1.2618  0.0412 -0.9673
14088TIP3   OH263678   0.391   5.651  15.664 -0.0924  0.0741 -0.2252
14088TIP3    H163679   0.311   5.661  15.613 -0.8753 -2.9184  0.2770
14088TIP3    H263680   0.461   5.661  15.599 -0.8787  1.2259 -0.9436
14089TIP3   OH263681   0.892   6.156   1.903 -0.1324  0.0536  0.3792
14089TIP3    H163682   0.957   6.150   1.833 -0.7032 -1.0326 -0.0823
14089TIP3    H263683   0.925   6.099   1.972 -0.8676 -0.9861 -0.1028
14090TIP3   OH263684   0.299   3.727   1.705 -0.3284 -0.7177 -0.3752
14090TIP3    H163685   0.302   3.692   1.616 -1.6617 -0.0256 -0.7181
14090TIP3    H263686   0.382   3.774   1.715 -0.1102 -0.9011 -1.1975
14091TIP3   OH263687   0.117   4.256  16.309  0.5314  0.4183  0.4447
14091TIP3    H163688   0.212   4.253  16.304  0.5061 -1.3209  0.1046
14091TIP3    H263689   0.096   4.211  16.391  0.0005 -0.1020  0.0380
14092TIP3   OH263690   6.528   6.326  14.158 -0.1034 -0.4377 -0.4257
14092TIP3    H163691   6.515   6.243  14.204 -0.1202 -1.0889 -1.5772
14092TIP3    H263692   6.469   6.387  14.201  0.6241 -0.7517  1.0937
14093TIP3   OH263693   2.501   4.146  17.253 -0.9241 -0.1666 -0.6339
14093TIP3    H163694   2.479   4.191  17.335  0.1701  0.0659 -0.4441
14093TIP3    H263695   2.449   4.066  17.254 -1.8140  0.4046 -0.2835
14094TIP3   OH263696   3.161   5.344   3.128 -0.1017 -0.2824  0.3442
14094TIP3    H163697   3.083   5.296   3.097 -0.2149 -0.7501  1.3103
14094TIP3    H263698   3.126   5.410   3.188 -0.0524  1.7609 -1.7250
14095TIP3   OH263699   0.881   3.211   1.826 -0.1708  0.1299  0.0184
14095TIP3    H163700   0.941   3.265   1.775 -0.3493 -0.9117 -1.3522
14095TIP3    H263701   0.927   3.127   1.836 -1.6837 -1.0354 -1.8969
14096TIP3   OH263702   3.951   6.397  16.082  0.2556  0.6244 -0.4708
14096TIP3    H163703   3.942   6.350  15.999 -1.2865 -0.5171  0.3073
14096TIP3    H263704   4.040   6.433  16.079 -0.0271  1.3268 -2.9592
14097TIP3   OH263705   2.432   3.546   2.140  0.1817 -0.3559  0.0934
14097TIP3    H163706   2.500   3.613   2.145 -0.2232  0.0283  0.5050
14097TIP3    H263707   2.403   3.534   2.230 -0.0136 -0.8126 -0.0265
14098TIP3   OH263708   0.222   5.583  13.162  0.7817  0.1661 -0.0319
14098TIP3    H163709   0.196   5.675  13.171  2.4314  0.7162 -0.5700
14098TIP3    H263710   0.153   5.544  13.107  1.8636  1.9846 -2.8856
14099TIP3   OH263711   3.534   0.641   1.244 -0.5376 -0.7935 -0.3585
14099TIP3    H163712   3.592   0.589   1.188  0.7932 -0.1770  0.3976
14099TIP3    H263713   3.473   0.683   1.183  0.0707 -1.1293 -1.2154
14100TIP3   OH263714   1.292   4.562   1.146  0.7273  0.8337 -0.1069
14100TIP3    H163715   1.274   4.498   1.076 -0.7971 -1.8402  2.5162
14100TIP3    H263716   1.206   4.594   1.172  1.3622  2.7303 -0.1807
14101TIP3   OH263717   1.244   6.413  16.713  0.5531  0.5242  0.4539
14101TIP3    H163718   1.313   6.396  16.648 -0.2207 -1.8719  0.1764
14101TIP3    H263719   1.226   6.507  16.704  2.1172  0.7325 -1.1185
14102TIP3   OH263720   4.445   0.149  13.148 -0.2050 -0.1594 -0.0294
14102TIP3    H163721   4.522   0.203  13.165 -0.5187  0.3595 -0.2484
14102TIP3    H263722   4.462   0.109  13.062  0.1627 -0.6553  0.2668
14103TIP3   OH263723   6.097   1.675  12.233  0.1410  0.0363 -0.2680
14103TIP3    H163724   6.059   1.698  12.148 -0.1309 -0.3987 -0.2698
14103TIP3    H263725   6.107   1.580  12.229  0.2735  0.0342  0.1266
14104TIP3   OH263726   3.588   1.008  14.164 -0.5633  0.3795 -0.0963
14104TIP3    H163727   3.653   1.020  14.233 -1.4620  1.8552  0.5438
14104TIP3    H263728   3.557   1.097  14.145 -2.2343 -0.2619 -0.5330
14105TIP3   OH263729   1.937   0.118   6.384 -0.2474  0.2733 -0.0151
14105TIP3    H163730   1.988   0.056   6.437 -0.5675 -0.0158 -0.0409
14105TIP3    H263731   1.956   0.203   6.422  2.7058  0.6290 -1.8679
14106TIP3   OH263732   0.575   2.698  14.640 -0.5617 -0.4953 -0.5689
14106TIP3    H163733   0.611   2.739  14.719 -0.8805 -0.5838 -0.3722
14106TIP3    H263734   0.533   2.618  14.673 -0.0457 -0.9213 -0.9271
14107TIP3   OH263735   1.852   3.151  12.045  0.5221 -0.2652 -0.4469
14107TIP3    H163736   1.898   3.153  12.129 -0.6597 -0.2285  0.2123
14107TIP3    H263737   1.864   3.239  12.010  0.3886 -0.0465  0.0423
14108TIP3   OH263738   4.187   2.517   0.524  0.2351 -0.4250 -0.4461
14108TIP3    H163739   4.181   2.430   0.564  0.7431  0.3350  1.3485
14108TIP3    H263740   4.097   2.550   0.525  0.3904  0.0591  1.2606
14109TIP3   OH263741   2.577   0.143   3.919  0.3256 -0.1466 -0.0924
14109TIP3    H163742   2.575   0.056   3.958 -1.1174  0.9487  2.5058
14109TIP3    H263743   2.497   0.147   3.865 -0.6960  0.1778  1.3804
14110TIP3   OH263744   6.464   3.925  14.384  0.5610  0.1433 -0.3363
14110TIP3    H163745   6.456   3.937  14.289  1.0371 -0.1447 -0.4177
14110TIP3    H263746   6.502   3.837  14.393  0.6961  0.2480  0.1152
14111TIP3   OH263747   2.365   2.456   4.286  0.7837  0.3206 -0.0618
14111TIP3    H163748   2.278   2.483   4.314  0.6949  1.5528 -1.4315
14111TIP3    H263749   2.406   2.535   4.252  1.6492 -0.6457 -1.4054
14112TIP3   OH263750   1.848   4.262  15.839  0.6602 -0.2562  0.2369
14112TIP3    H163751   1.876   4.227  15.924  0.7970  0.0087  0.3004
14112TIP3    H263752   1.928   4.291  15.797  0.6243 -0.6413 -0.1034
14113TIP3   OH263753   1.481   2.612  10.757  0.1535 -0.0803  0.2311
14113TIP3    H163754   1.522   2.698  10.751  0.7290 -0.2798  0.9966
14113TIP3    H263755   1.554   2.553  10.780 -0.2487 -0.7507 -0.1770
14114TIP3   OH263756   6.431   1.969   5.667  0.2544 -0.5020  0.1239
14114TIP3    H163757   6.360   1.959   5.604 -1.1967  1.7624  1.2721
14114TIP3    H263758   6.508   1.934   5.623 -1.1057 -0.8980 -2.0572
14115TIP3   OH263759   3.389   6.446  12.937  0.0015  0.3700 -0.2027
14115TIP3    H163760   3.440   6.440  13.017  0.9279  0.6441 -0.7528
14115TIP3    H263761   3.375   6.355  12.910  0.0939  0.2886  0.0267
14116TIP3   OH263762   5.421   5.972   2.562 -0.3653  0.3126  0.5638
14116TIP3    H163763   5.380   5.949   2.646  1.0502  0.0013  1.1938
14116TIP3    H263764   5.504   6.012   2.585  0.2204 -0.1064 -0.6925
14117TIP3   OH263765   5.250   3.720  17.313 -0.0627 -0.3758 -0.4681
14117TIP3    H163766   5.220   3.665  17.385 -0.9558  1.5930  0.7439
14117TIP3    H263767   5.219   3.676  17.234 -1.7678 -1.0101  0.5083
14118TIP3   OH263768   4.548   3.714   1.289 -0.1046  0.1236 -0.1019
14118TIP3    H163769   4.629   3.739   1.246 -0.3503 -1.3979 -1.5172
14118TIP3    H263770   4.554   3.755   1.376  2.1394  0.0665 -0.1701
14119TIP3   OH263771   0.883   4.469  11.652  0.4085  0.0287 -0.4616
14119TIP3    H163772   0.964   4.475  11.703  0.4535 -1.3713 -0.3230
14119TIP3    H263773   0.843   4.556  11.659  0.0608 -0.2590  2.5574
14120TIP3   OH263774   0.886   2.662   1.169 -0.0154  0.0481 -0.4472
14120TIP3    H163775   0.953   2.603   1.137 -1.0455 -1.5831  0.2680
14120TIP3    H263776   0.803   2.622   1.141 -0.7579  0.9839  0.3378
14121TIP3   OH263777   5.116   3.920  16.145  0.6510 -0.5320 -0.0200
14121TIP3    H163778   5.118   3.850  16.210  1.1443  1.3626  2.1553
14121TIP3    H263779   5.047   3.895  16.084 -0.5015 -1.9613  1.7618
14122TIP3   OH263780   1.142   1.937  13.256  0.0951 -0.3403  0.2333
14122TIP3    H163781   1.173   1.909  13.342 -0.6545 -1.7390  0.0726
14122TIP3    H263782   1.051   1.964  13.271  0.2932  0.4315  0.0689
14123TIP3   OH263783   0.681   5.682  16.398  0.6330  0.3834 -0.0422
14123TIP3    H163784   0.721   5.620  16.459  0.7431  0.2203 -0.2818
14123TIP3    H263785   0.736   5.678  16.320  2.1781  2.6017  0.8043
14124TIP3   OH263786   3.456   0.227  15.356  0.3449  0.0881 -0.5952
14124TIP3    H163787   3.388   0.161  15.370 -0.2182  0.3871 -1.7266
14124TIP3    H263788   3.409   0.311  15.360  0.7475  0.3284 -0.7928
14125TIP3   OH263789   1.445   6.566  16.938 -0.8415 -0.1686  0.0865
14125TIP3    H163790   1.503   6.529  16.872 -0.7621  0.1526 -0.0273
14125TIP3    H263791   1.357   6.552  16.904 -0.8034 -0.0626 -0.0566
14126TIP3   OH263792   6.520   0.840  11.597  0.1608  0.7154 -0.5313
14126TIP3    H163793   6.519   0.934  11.616  0.8612  0.7199 -0.5172
14126TIP3    H263794   6.453   0.804  11.657 -0.7033  1.2988 -1.1169
14127TIP3   OH263795   0.208   5.774  13.399  0.3048 -0.0197 -0.6354
14127TIP3    H163796   0.237   5.810  13.315  1.9832  0.9957  0.3250
14127TIP3    H263797   0.285   5.730  13.434 -0.1755  0.1633  0.6873
14128TIP3   OH263798   0.538   4.435   5.414 -0.1786  0.1474  0.0690
14128TIP3    H163799   0.563   4.525   5.396  0.6579 -0.4946 -2.5261
14128TIP3    H263800   0.571   4.386   5.338 -0.2337 -2.4026  1.5765
14129TIP3   OH263801   4.411   2.625  11.891 -0.2519 -0.2665 -0.0261
14129TIP3    H163802   4.383   2.561  11.957  2.2829 -0.9222  0.5414
14129TIP3    H263803   4.364   2.705  11.914 -1.2381 -1.1307  1.1155
14130TIP3   OH263804   0.223   3.536   2.707  0.0413  0.4028 -0.1877
14130TIP3    H163805   0.148   3.590   2.685  0.7567  1.4544 -0.1075
14130TIP3    H263806   0.269   3.585   2.775  0.8578 -0.1673 -0.3170
14131TIP3   OH263807   0.170   0.162  10.695  0.3164  0.7881  0.7649
14131TIP3    H163808   0.091   0.109  10.693  1.0302 -0.3109  0.9118
14131TIP3    H263809   0.192   0.177  10.603  0.1389  0.8065  0.7258
14132TIP3   OH263810   1.663   4.880  11.989 -0.3189  0.0447 -0.1014
14132TIP3    H163811   1.742   4.914  11.948  0.2134  0.0057  0.8723
14132TIP3    H263812   1.693   4.809  12.045 -1.0165  0.1672  0.4495
14133TIP3   OH263813   0.885   0.921  16.932 -0.0015 -0.3149  0.5878
14133TIP3    H163814   0.893   0.976  16.854 -1.1385  0.8592  1.2605
14133TIP3    H263815   0.975   0.905  16.960  0.3699  0.8087  0.0909
14134TIP3   OH263816   4.187   4.127  14.503  0.3104  0.6896 -0.1387
14134TIP3    H163817   4.196   4.134  14.598  1.3216  2.5609 -0.3199
14134TIP3    H263818   4.277   4.119  14.471 -0.0982 -1.6209 -0.8855
14135TIP3   OH263819   1.203   2.807  13.561 -0.0697  0.2367  0.5209
14135TIP3    H163820   1.284   2.756  13.571 -0.2838 -0.2288 -0.0201
14135TIP3    H263821   1.214   2.853  13.478  0.3330  1.5013  1.2451
14136TIP3   OH263822   1.970   6.195  13.673 -0.2327  0.6952  0.2641
14136TIP3    H163823   1.999   6.159  13.756 -0.7407  1.5426  0.8161
14136TIP3    H263824   1.973   6.120  13.612 -1.1504 -0.2555  1.3462
14137TIP3   OH263825   1.177   5.003  11.272 -0.0448  0.2515 -0.3805
14137TIP3    H163826   1.110   4.997  11.204 -3.3679  0.3366  2.6585
14137TIP3    H263827   1.209   4.913  11.282 -1.9045 -0.3984  0.1103
14138TIP3   OH263828   1.433   3.708   2.417  0.1593  0.3414 -0.6718
14138TIP3    H163829   1.444   3.674   2.328  1.7665  1.9228 -1.1356
14138TIP3    H263830   1.417   3.802   2.404 -0.4904  0.4409  0.6882
14139TIP3   OH263831   3.359   1.559   1.542 -0.4584 -0.1369 -0.4088
14139TIP3    H163832   3.307   1.585   1.617 -0.4058 -1.9403  0.3110
14139TIP3    H263833   3.422   1.496   1.577  1.0246  0.6322 -1.5802
14140TIP3   OH263834   5.182   0.047  14.355  0.2049 -0.3758  0.3202
14140TIP3    H163835   5.195  -0.016  14.425  0.4293 -0.4521  0.2084
14140TIP3    H263836   5.093   0.080  14.369  0.4736  0.0691  1.0126
14141TIP3   OH263837   3.331   4.372  16.343  0.2286 -0.1810 -0.3455
14141TIP3    H163838   3.328   4.449  16.399  0.8399 -0.4617  0.0835
14141TIP3    H263839   3.320   4.298  16.403 -0.9894 -0.4141 -0.8258
14142TIP3   OH263840   3.042   6.124  12.035 -0.0094  0.4452 -0.1584
14142TIP3    H163841   3.051   6.210  12.076 -0.3724  0.6907 -0.5854
14142TIP3    H263842   2.948   6.110  12.029  0.0361  0.5524 -1.1859
14143TIP3   OH263843   5.578   3.421   4.118 -0.2040  0.6158  0.4714
14143TIP3    H163844   5.508   3.407   4.182  0.7973 -0.5298  1.3708
14143TIP3    H263845   5.645   3.470   4.165  1.1505 -1.4140  0.8301
14144TIP3   OH263846   0.194   5.775  12.108  0.1663 -0.1614 -0.0879
14144TIP3    H163847   0.140   5.806  12.035  0.5854 -0.8122 -0.6846
14144TIP3    H263848   0.202   5.852  12.165 -1.3740 -0.0618  0.0176
14145TIP3   OH263849   5.189   3.152   0.972 -0.5925  0.6445 -0.1960
14145TIP3    H163850   5.197   3.246   0.954 -1.2858  1.2616  2.3584
14145TIP3    H263851   5.127   3.147   1.045 -0.3261 -1.7891 -0.0716
14146TIP3   OH263852   3.488   4.076  15.846 -0.4082 -0.4786  0.4838
14146TIP3    H163853   3.519   4.164  15.865  0.9420 -0.9175  0.4251
14146TIP3    H263854   3.398   4.075  15.878 -0.4206  0.8844  0.5592
14147TIP3   OH263855   6.691   3.676   5.661  0.1110 -0.5110  0.0515
14147TIP3    H163856   6.775   3.718   5.644 -0.7154  1.1884 -0.1006
14147TIP3    H263857   6.655   3.724   5.736 -0.2304 -1.9755  0.8594
14148TIP3   OH263858   4.756   2.610  10.551 -0.3767  0.3194 -0.2101
14148TIP3    H163859   4.824   2.544  10.540  1.2342  1.9282 -0.3380
14148TIP3    H263860   4.700   2.600  10.474 -0.3346 -1.0594 -0.0802
14149TIP3   OH263861   2.953   0.198   5.744  0.0260 -0.2765 -0.1317
14149TIP3    H163862   2.874   0.217   5.694  0.5813 -0.2589 -1.0364
14149TIP3    H263863   2.996   0.283   5.755 -0.1596 -0.2628  0.4932
14150TIP3   OH263864   5.355   5.765   1.485  0.4718 -0.1752  0.6644
14150TIP3    H163865   5.314   5.684   1.518  0.7920 -0.6762 -0.1539
14150TIP3    H263866   5.333   5.767   1.392  1.1335  0.2747  0.5110
14151TIP3   OH263867   0.937   4.242   4.986 -0.2300 -0.0609 -0.3262
14151TIP3    H163868   0.868   4.283   5.038 -0.7099  1.4832 -2.0678
14151TIP3    H263869   0.930   4.148   5.006 -1.9312  0.2192  0.5580
14152TIP3   OH263870   2.275   6.323  12.647  0.2489  0.3380 -0.0237
14152TIP3    H163871   2.305   6.410  12.621  2.0158 -1.1190 -3.5720
14152TIP3    H263872   2.355   6.275  12.669 -0.2576 -1.2950 -1.4566
14153TIP3   OH263873   2.848   1.196   4.024  0.3996  0.0747  0.1674
14153TIP3    H163874   2.795   1.135   4.075 -0.6015  0.2560 -0.6274
14153TIP3    H263875   2.922   1.217   4.081  0.6040 -1.6197  0.5976
14154TIP3   OH263876   0.154   1.068  16.144 -0.3005 -0.2735 -0.4269
14154TIP3    H163877   0.164   1.085  16.238 -0.7181 -0.8145 -0.2788
14154TIP3    H263878   0.217   1.126  16.102 -0.6780  0.5614  0.1391
14155TIP3   OH263879   0.337   2.894  16.053  0.3454  0.2533 -0.3751
14155TIP3    H163880   0.332   2.989  16.061  0.8248  0.5031 -2.4556
14155TIP3    H263881   0.344   2.862  16.143  1.1128  2.2316  0.3116
14156TIP3   OH263882   1.865   6.569   2.252  0.0356  0.1481 -0.3832
14156TIP3    H163883   1.841   6.526   2.334 -1.6933 -1.9117 -1.8581
14156TIP3    H263884   1.897   6.498   2.197 -0.2975  1.2283 -2.0102
14157TIP3   OH263885   2.916   1.986  15.362  0.0294  0.5460  0.0200
14157TIP3    H163886   2.978   2.039  15.312  0.7994 -0.6453 -0.3404
14157TIP3    H263887   2.845   1.968  15.300  0.9999 -0.9596 -0.7178
14158TIP3   OH263888   2.002   1.528  15.736 -0.1819  0.5412  0.1133
14158TIP3    H163889   1.952   1.539  15.817  1.2651 -0.3811  1.1793
14158TIP3    H263890   2.071   1.593  15.741  0.3542 -0.0091 -0.0266
14159TIP3   OH263891   5.867   2.870   4.001  0.1342  0.3406  0.1672
14159TIP3    H163892   5.937   2.935   4.005  1.1316 -0.6901  0.2844
14159TIP3    H263893   5.806   2.904   3.936  0.9579  1.0788 -0.2472
14160TIP3   OH263894   5.155   5.310  14.650  0.8547 -0.7543 -0.1108
14160TIP3    H163895   5.061   5.291  14.651  0.6965 -0.0125 -0.0679
14160TIP3    H263896   5.196   5.231  14.686  0.0622 -0.1026  2.4168
14161TIP3   OH263897   1.679   4.613  15.300 -0.6087 -0.6089  0.5002
14161TIP3    H163898   1.669   4.679  15.369 -2.0100  0.3203 -0.5115
14161TIP3    H263899   1.693   4.665  15.220 -2.1543 -1.4984 -0.3878
14162TIP3   OH263900   6.108   6.702   3.598  0.3326  0.1367 -1.1604
14162TIP3    H163901   6.131   6.609   3.601 -1.3180 -0.3607  2.8705
14162TIP3    H263902   6.192   6.747   3.608  0.9926 -0.9984 -1.4315
14163TIP3   OH263903   5.781   0.450   0.421  0.5075  0.4929 -0.4931
14163TIP3    H163904   5.697   0.469   0.462 -0.4862 -0.6665 -1.9424
14163TIP3    H263905   5.778   0.357   0.400  3.0156 -0.1076  1.3061
14164TIP3   OH263906   0.252   3.649   1.079 -0.0105  0.4213  0.1901
14164TIP3    H163907   0.214   3.670   1.164  1.6044 -0.3033  1.1307
14164TIP3    H263908   0.294   3.730   1.051 -1.5503  1.0180 -0.5304
14165TIP3   OH263909   0.599   0.578   1.773  0.2979 -0.4471 -0.1370
14165TIP3    H163910   0.611   0.673   1.764  1.2614 -0.4848  0.6470
14165TIP3    H263911   0.635   0.542   1.693  0.5186 -0.1902 -0.1560
14166TIP3   OH263912   4.782   1.238   5.105  0.3627  0.2729  0.2189
14166TIP3    H163913   4.768   1.144   5.094 -1.2078  0.5114 -0.1395
14166TIP3    H263914   4.748   1.257   5.193  1.9407  0.3110  0.8546
14167TIP3   OH263915   5.637   5.233   0.001 -0.0462  0.2412  0.0718
14167TIP3    H163916   5.685   5.315  -0.010 -1.7580  1.0429 -1.9863
14167TIP3    H263917   5.634   5.221   0.096  1.2264  1.9360  0.3881
14168TIP3   OH263918   1.514   3.343  15.517  0.1933  0.0775 -0.2327
14168TIP3    H163919   1.524   3.436  15.498  0.1821  0.0216 -0.5134
14168TIP3    H263920   1.601   3.314  15.545 -0.4369  0.8385  2.8202
14169TIP3   OH263921   3.288   3.005  17.012 -0.8502  0.1696  0.0297
14169TIP3    H163922   3.302   2.946  16.938  2.3086  1.6406 -0.6868
14169TIP3    H263923   3.253   3.085  16.973  0.1592  0.7053  0.2047
14170TIP3   OH263924   2.094   0.480  12.043 -0.1652 -0.3158  0.1694
14170TIP3    H163925   2.158   0.552  12.043  0.4189 -0.7952 -1.1524
14170TIP3    H263926   2.133   0.414  12.100  1.0432 -0.9986 -1.3642
14171TIP3   OH263927   2.297   2.288   4.066  0.3619  0.0345  0.0573
14171TIP3    H163928   2.338   2.332   4.141  1.6641 -1.0826  0.0371
14171TIP3    H263929   2.315   2.195   4.081 -2.3089 -0.5404  0.1103
14172TIP3   OH263930   1.293   5.835   4.464 -0.3732  0.7166  0.3234
14172TIP3    H163931   1.326   5.772   4.400  1.8566  2.4290 -0.3676
14172TIP3    H263932   1.307   5.920   4.423 -1.2627  1.7608  2.0747
14173TIP3   OH263933   4.927   1.202   3.332 -0.3138 -0.2726  0.6104
14173TIP3    H163934   4.970   1.164   3.256  1.0948  0.7884  0.8269
14173TIP3    H263935   4.923   1.296   3.314  1.6497  0.2645  2.5129
14174TIP3   OH263936   5.719   4.662  11.737  0.9776 -0.4355 -0.4180
14174TIP3    H163937   5.770   4.741  11.719 -0.2769  0.5450  0.1549
14174TIP3    H263938   5.642   4.694  11.784  0.8704 -2.1068  0.6189
14175TIP3   OH263939   1.872   0.380  12.711  0.0082  0.5335 -0.4149
14175TIP3    H163940   1.874   0.304  12.652 -0.0096 -0.7224  1.1367
14175TIP3    H263941   1.791   0.370  12.760  0.0435  1.5293 -0.1344
14176TIP3   OH263942   6.091   3.011  16.388 -0.0072  0.1397 -0.5832
14176TIP3    H163943   6.124   2.954  16.318  4.1457  1.9936 -0.4721
14176TIP3    H263944   6.138   2.981  16.466 -1.6046  0.6000  0.5920
14177TIP3   OH263945   2.789   0.315   3.813  0.4050 -0.1295  0.1451
14177TIP3    H163946   2.715   0.255   3.820 -1.0321  1.5428 -0.1446
14177TIP3    H263947   2.751   0.402   3.824  2.1879  0.8469 -0.9797
14178TIP3   OH263948   3.527   4.719  13.189 -0.5153  0.3927 -0.5207
14178TIP3    H163949   3.559   4.642  13.236 -3.3833  0.0632  1.1205
14178TIP3    H263950   3.498   4.686  13.104 -2.0217 -0.4729  0.2922
14179TIP3   OH263951   4.709   1.095  16.888 -0.3656  0.2285  0.1846
14179TIP3    H163952   4.684   1.042  16.963  0.7044 -1.5184 -0.6399
14179TIP3    H263953   4.626   1.120  16.848 -0.9042 -0.5278  0.8005
14180TIP3   OH263954   4.667   0.983   0.854 -0.0162 -0.2793  0.1335
14180TIP3    H163955   4.615   0.965   0.932  1.5157 -0.8449  1.0882
14180TIP3    H263956   4.644   1.072   0.829  0.1994  0.2884  1.8650
14181TIP3   OH263957   3.291   5.920   3.677  0.1454 -0.4884 -0.7591
14181TIP3    H163958   3.365   5.976   3.655  0.5312 -0.9479 -0.6546
14181TIP3    H263959   3.259   5.886   3.593 -0.8283  0.7947 -0.9275
14182TIP3   OH263960   5.188   4.915  13.727  0.0648  0.0188  0.5138
14182TIP3    H163961   5.225   4.827  13.736  0.4871  0.1613  0.1941
14182TIP3    H263962   5.261   4.969  13.695 -0.6968  0.0631 -1.2533
14183TIP3   OH263963   0.282   1.585  14.877 -0.1773  0.3614  0.5770
14183TIP3    H163964   0.305   1.677  14.863 -0.5431  0.6711  1.8672
14183TIP3    H263965   0.317   1.540  14.800  1.0365  1.4130  0.4745
14184TIP3   OH263966   4.305   4.537  13.565  0.0295 -0.3718 -0.1970
14184TIP3    H163967   4.246   4.581  13.503 -1.7758 -1.0676  0.9392
14184TIP3    H263968   4.281   4.574  13.650  0.5632 -1.3768  0.4056
14185TIP3   OH263969   3.602   0.579  11.759 -0.5896  0.2720 -0.2833
14185TIP3    H163970   3.639   0.604  11.674  0.7754 -0.5125  0.0421
14185TIP3    H263971   3.536   0.514  11.738  0.8256 -1.1056 -0.6987
14186TIP3   OH263972   0.265   1.473  17.045  0.3383 -0.1128  0.0990
14186TIP3    H163973   0.240   1.553  16.998  0.4648 -0.0014  0.2178
14186TIP3    H263974   0.183   1.426  17.057  0.2499  0.0404  0.1026
14187TIP3   OH263975   0.622   1.341   3.270  0.1017 -0.5478 -0.1559
14187TIP3    H163976   0.614   1.290   3.190  0.3524 -0.7473 -0.0547
14187TIP3    H263977   0.532   1.366   3.292  0.1406  0.5111 -1.1405
14188TIP3   OH263978   1.065   1.949  16.765  0.3993 -0.1754 -0.3074
14188TIP3    H163979   1.031   1.917  16.681  1.0112  0.4328 -0.7942
14188TIP3    H263980   1.104   1.872  16.806 -1.6519 -0.9350  0.3408
14189TIP3   OH263981   5.108   0.419   6.005 -0.0922  0.4015 -0.0623
14189TIP3    H163982   5.052   0.488   6.042  0.2698  0.7042 -0.0755
14189TIP3    H263983   5.069   0.338   6.036  0.6911  0.6625  1.7157
14190TIP3   OH263984   0.934   2.763  14.910 -0.2906  0.4555  0.2760
14190TIP3    H163985   0.850   2.726  14.885 -0.7872  0.6024  1.6298
14190TIP3    H263986   0.920   2.795  14.999  1.9933 -2.1873  1.7485
14191TIP3   OH263987   5.694   4.774  12.535 -0.6599 -0.2149 -0.4912
14191TIP3    H163988   5.724   4.800  12.448  0.0953 -1.3598 -0.5897
14191TIP3    H263989   5.656   4.853  12.572  0.1601  0.6080 -1.3738
14192TIP3   OH263990   6.653   6.351  16.140 -0.3734  0.5706  0.2395
14192TIP3    H163991   6.630   6.367  16.048 -1.6506 -0.5079  0.3258
14192TIP3    H263992   6.610   6.421  16.188 -1.3656  0.0498  0.1550
14193TIP3   OH263993   0.004   2.198   4.505 -0.2854 -0.0718  0.0842
14193TIP3    H163994  -0.076   2.150   4.485 -0.2181 -0.0193 -0.3190
14193TIP3    H263995   0.074   2.134   4.492 -0.3252 -0.4228  1.4683
14194TIP3   OH263996   1.115   0.650   5.662  0.4302  0.5115  0.0973
14194TIP3    H163997   1.065   0.703   5.600 -0.1130 -0.5902 -0.4441
14194TIP3    H263998   1.068   0.659   5.745  0.7239  1.3854  0.1765
14195TIP3   OH263999   0.102   0.416  17.079  0.1042  0.1306 -0.3258
14195TIP3    H164000   0.121   0.322  17.075 -0.2159  0.0761 -0.7053
14195TIP3    H264001   0.128   0.449  16.993  2.9327  0.9476  0.7641
14196TIP3   OH264002   2.928   2.688  13.102  0.0977 -0.2685 -0.2501
14196TIP3    H164003   2.860   2.695  13.035 -0.2592  0.9639  0.2001
14196TIP3    H264004   2.991   2.625  13.067 -1.7697 -2.2486 -0.2297
14197TIP3   OH264005   0.275   5.119  11.522  0.3427  0.1501  0.1540
14197TIP3    H164006   0.338   5.051  11.501 -1.5637 -1.2515 -1.4103
14197TIP3    H264007   0.226   5.133  11.440  0.4061  3.1566  0.5200
14198TIP3   OH264008   6.096   0.351  13.621  0.0313 -0.5322 -0.2144
14198TIP3    H164009   6.143   0.416  13.674 -1.1783  0.8357 -0.7521
14198TIP3    H264010   6.094   0.273  13.676 -1.2619  0.8636  1.8551
14199TIP3   OH264011   0.359   0.032  15.424  0.4890  0.0247 -0.3396
14199TIP3    H164012   0.395  -0.043  15.375  0.5734 -0.5336  0.5642
14199TIP3    H264013   0.297   0.073  15.363 -1.3861 -2.1949 -0.0543
14200TIP3   OH264014   5.384   4.908   3.970  0.3200  0.2231 -0.1490
14200TIP3    H164015   5.410   4.992   4.007  2.7632 -0.1047 -0.9309
14200TIP3    H264016   5.435   4.843   4.019  0.4912 -0.5518 -1.2937
14201TIP3   OH264017   0.068   0.923  10.700 -0.4438  0.0206 -0.2297
14201TIP3    H164018   0.033   0.860  10.763 -0.6058 -0.6613 -0.9785
14201TIP3    H264019   0.163   0.909  10.702 -0.2291  1.4000  1.3056
14202TIP3   OH264020   1.944   6.123   4.277 -0.3550 -0.1061  0.3614
14202TIP3    H164021   1.994   6.199   4.309 -0.3778 -0.4535  1.2702
14202TIP3    H264022   1.897   6.092   4.354 -0.6912 -0.7793 -0.1056
14203TIP3   OH264023   4.569   1.834   1.337 -0.3983 -0.1051 -0.0341
14203TIP3    H164024   4.629   1.903   1.364  1.9588 -1.2846 -1.9291
14203TIP3    H264025   4.484   1.862   1.371  0.9390  2.2904  1.6557
14204TIP3   OH264026   5.243   0.177  14.905 -0.0088  0.3182 -0.0727
14204TIP3    H164027   5.315   0.198  14.965 -0.8357 -0.0856  1.0880
14204TIP3    H264028   5.287   0.152  14.824  1.1234  1.7014  0.0590
14205TIP3   OH264029   4.670   3.792  14.251 -0.4959  0.2480  0.2714
14205TIP3    H164030   4.744   3.848  14.272 -0.6929  1.7411 -2.5458
14205TIP3    H264031   4.697   3.745  14.172 -1.6789 -1.0277  0.5797
14206TIP3   OH264032   4.806   0.296  12.934  0.0204  0.2632  0.5798
14206TIP3    H164033   4.837   0.385  12.916  0.4461 -0.3820 -2.3509
14206TIP3    H264034   4.884   0.248  12.961  0.0173  0.5181  1.0376
14207TIP3   OH264035   3.408   1.351   5.174  0.0816  0.0893  0.2423
14207TIP3    H164036   3.492   1.362   5.219  0.5239 -0.1757 -0.4908
14207TIP3    H264037   3.428   1.292   5.100 -0.3795  1.3458 -0.9231
14208TIP3   OH264038   5.021   4.547   3.340  1.0915 -0.3230 -0.2639
14208TIP3    H164039   4.987   4.560   3.251 -3.5415 -1.0013  1.1238
14208TIP3    H264040   5.017   4.634   3.379  1.7381 -0.2794 -0.2890
14209TIP3   OH264041   4.681   3.704  15.536  0.2483 -0.0604 -0.2651
14209TIP3    H164042   4.757   3.683  15.590  0.5276 -3.2724 -1.6917
14209TIP3    H264043   4.712   3.770  15.475  1.9883 -1.4027 -0.9139
14210TIP3   OH264044   1.568   3.515   4.115 -0.0666 -0.3985  0.3245
14210TIP3    H164045   1.574   3.557   4.201 -2.2714 -0.6425  0.6695
14210TIP3    H264046   1.606   3.578   4.055 -0.4511  0.7469  1.2312
14211TIP3   OH264047   3.060   1.073   2.712 -0.0495 -1.3373 -0.0809
14211TIP3    H164048   3.148   1.101   2.737  0.6283 -0.0679 -3.3555
14211TIP3    H264049   3.001   1.121   2.770  1.3143  1.9526 -1.1737
14212TIP3   OH264050   6.062   5.580   4.720 -0.1200  0.2085  0.4230
14212TIP3    H164051   6.103   5.641   4.659 -1.8736  0.3905 -0.6391
14212TIP3    H264052   6.133   5.552   4.778  1.0595  1.9833 -0.0970
14213TIP3   OH264053   6.596   1.144   2.914  0.6988 -0.8463  0.4443
14213TIP3    H164054   6.615   1.237   2.897  0.4378 -0.6309  1.3064
14213TIP3    H264055   6.674   1.098   2.885  0.6945 -0.3997 -0.3340
14214TIP3   OH264056   5.140   1.460   3.424  0.1967 -0.4333 -0.0971
14214TIP3    H164057   5.055   1.435   3.460 -0.1575  0.6185 -0.1825
14214TIP3    H264058   5.182   1.377   3.402  0.0289 -1.0664  1.8249
14215TIP3   OH264059   5.447   1.187   4.435 -0.0521 -0.2634  0.7907
14215TIP3    H164060   5.410   1.220   4.518  0.5742  0.7849  0.6764
14215TIP3    H264061   5.496   1.262   4.400 -1.6329 -0.1495 -1.3406
14216TIP3   OH264062   3.612   5.291   1.131  0.1665  0.6077  0.0583
14216TIP3    H164063   3.697   5.271   1.171  0.4245  0.1724 -0.6897
14216TIP3    H264064   3.634   5.320   1.043 -0.3958  1.6216  0.2376
14217TIP3   OH264065   0.640   5.765   0.733  0.0076  0.1946  0.0677
14217TIP3    H164066   0.553   5.741   0.701  0.8126 -1.7031 -0.8524
14217TIP3    H264067   0.692   5.778   0.654  0.7472  0.6063  0.6077
14218TIP3   OH264068   5.952   0.930   2.894 -0.2040  0.1858  0.2425
14218TIP3    H164069   6.000   0.975   2.964  1.9913 -1.5043 -0.0587
14218TIP3    H264070   5.902   0.863   2.939 -0.2341  0.2673  0.3320
14219TIP3   OH264071   3.561   2.737   1.369 -0.0346 -0.5727  0.3399
14219TIP3    H164072   3.634   2.744   1.430  0.9171  0.3481 -0.8756
14219TIP3    H264073   3.534   2.645   1.375  0.5554 -0.6851  1.5430
14220TIP3   OH264074   5.586   5.781  17.269 -0.2043 -0.3095 -0.2462
14220TIP3    H164075   5.523   5.850  17.251 -0.0185  0.4021  1.6647
14220TIP3    H264076   5.637   5.774  17.188  1.4772  3.6418  0.2361
14221TIP3   OH264077   5.086   0.498  11.781  0.4586 -0.1397 -0.2244
14221TIP3    H164078   5.152   0.534  11.722 -0.7075  1.7470 -0.4772
14221TIP3    H264079   5.084   0.560  11.855 -1.3287  0.1328 -0.4552
14222TIP3   OH264080   4.029   5.521   2.717  0.0768  0.1656 -0.5236
14222TIP3    H164081   3.976   5.554   2.644  1.6220  0.7553 -1.4151
14222TIP3    H264082   4.096   5.588   2.731  0.7794 -0.6886  0.3874
14223TIP3   OH264083   4.996   5.967   6.352 -0.3767 -0.2254 -0.5415
14223TIP3    H164084   5.023   5.893   6.405  0.7426 -0.3067 -1.2036
14223TIP3    H264085   5.046   6.041   6.386 -0.1787 -0.1349 -1.0216
14224TIP3   OH264086   5.540   2.931  13.752 -0.5605 -0.3974 -0.3929
14224TIP3    H164087   5.622   2.883  13.755 -0.0119  0.4532 -1.2425
14224TIP3    H264088   5.489   2.895  13.825  0.4892 -1.0455  0.0531
14225TIP3   OH264089   5.169   3.385   1.639 -0.0925 -0.2890 -0.1755
14225TIP3    H164090   5.238   3.350   1.695  1.0144  0.6409 -0.9078
14225TIP3    H264091   5.129   3.454   1.693 -0.1650 -0.5395  0.0951
14226TIP3   OH264092   1.861   6.179   3.959 -0.5475 -0.0305  1.0514
14226TIP3    H164093   1.781   6.231   3.958  0.0560  0.9401  1.5557
14226TIP3    H264094   1.898   6.192   4.046  0.5704  0.2161  0.5708
14227TIP3   OH264095   4.811   3.868   1.363  0.3852  0.7234 -0.0147
14227TIP3    H164096   4.886   3.914   1.401 -0.1937  1.4788  0.2141
14227TIP3    H264097   4.800   3.908   1.276  1.5952 -0.8768 -0.9811
14228TIP3   OH264098   1.607   0.221   4.159 -0.1396  0.3618 -0.3443
14228TIP3    H164099   1.598   0.304   4.205 -1.8518  0.3735 -0.6140
14228TIP3    H264100   1.657   0.165   4.219  1.3750  1.6734 -0.3331
14229TIP3   OH264101   5.377   6.236  14.951  0.1251 -0.3262  0.3797
14229TIP3    H164102   5.381   6.186  15.033  1.0591 -1.3728 -0.2805
14229TIP3    H264103   5.453   6.294  14.954  1.2704 -1.7237 -0.5694
14230TIP3   OH264104   6.609   1.959   0.161 -0.0035 -0.0377  0.6741
14230TIP3    H164105   6.679   2.006   0.116  0.5036 -1.8956 -0.6361
14230TIP3    H264106   6.652   1.881   0.197 -1.4764 -1.7828 -1.0659
14231TIP3   OH264107   6.696   4.567  12.095 -0.5068  0.1063 -0.2089
14231TIP3    H164108   6.695   4.472  12.104 -2.6742  0.0832 -0.2478
14231TIP3    H264109   6.607   4.595  12.116  0.3897  2.2860  1.1173
14232TIP3   OH264110   2.095   0.013   5.571  0.0164 -0.0697 -0.3883
14232TIP3    H164111   2.010   0.048   5.544  1.0463  1.5781 -1.7687
14232TIP3    H264112   2.121  -0.044   5.499 -0.3256 -1.3379  0.4753
14233TIP3   OH264113   5.277   3.558   2.464 -0.0582 -0.2778 -0.3973
14233TIP3    H164114   5.370   3.574   2.448 -0.6855  2.1689 -2.1643
14233TIP3    H264115   5.249   3.501   2.392  0.2252 -1.9788  0.7638
14234TIP3   OH264116   2.952   2.550   0.271  0.4692 -0.0992 -0.6717
14234TIP3    H164117   2.899   2.622   0.238  0.0573 -0.6458 -1.2212
14234TIP3    H264118   3.033   2.555   0.219  0.2079 -0.3775 -1.1129
14235TIP3   OH264119   1.324   4.756  15.612 -0.5886 -0.3166  0.2726
14235TIP3    H164120   1.389   4.824  15.601 -2.3536  1.6901  1.5039
14235TIP3    H264121   1.243   4.794  15.578 -2.4875 -0.2081  4.4124
14236TIP3   OH264122   1.148   2.576  14.856  0.1926  0.3546 -0.4261
14236TIP3    H164123   1.093   2.652  14.874  2.2330  1.9093 -0.4630
14236TIP3    H264124   1.172   2.584  14.764  1.8023  0.6483 -0.0081
14237TIP3   OH264125   3.015   0.179   3.928  0.5520 -0.0056  0.0972
14237TIP3    H164126   2.956   0.166   4.002  0.6085  0.9113  0.3189
14237TIP3    H264127   2.961   0.164   3.851 -0.0368  0.9815  0.2955
14238TIP3   OH264128   6.512   5.925  12.831 -0.0389 -0.4223 -0.5898
14238TIP3    H164129   6.489   5.839  12.797  1.1438 -0.5446 -1.1218
14238TIP3    H264130   6.567   5.907  12.907  0.0355 -0.1375 -0.5745
14239TIP3   OH264131   4.666   0.461   5.666  0.3842 -0.0539 -0.1340
14239TIP3    H164132   4.599   0.464   5.597 -1.0392 -0.1447  1.1997
14239TIP3    H264133   4.734   0.522   5.635  0.0782 -0.5393 -1.8821
14240TIP3   OH264134   1.801   2.269   1.316 -0.1359 -0.4132 -0.5067
14240TIP3    H164135   1.804   2.276   1.221 -0.7109 -0.9463 -0.5703
14240TIP3    H264136   1.828   2.355   1.348  1.8836 -0.7838 -1.1231
14241TIP3   OH264137   3.893   4.531   1.666  0.2759  0.1239  0.2289
14241TIP3    H164138   3.904   4.623   1.639  1.3239  0.2309  0.9481
14241TIP3    H264139   3.807   4.528   1.708 -0.4458  0.4197 -1.1741
14242TIP3   OH264140   4.792   5.202   2.602 -0.3631  0.4269  0.1413
14242TIP3    H164141   4.847   5.253   2.662 -2.1519  2.1726  0.4257
14242TIP3    H264142   4.736   5.150   2.659  2.2527 -3.0275 -0.1413
14243TIP3   OH264143   3.273   3.456  14.298 -0.6512  0.3937  0.2012
14243TIP3    H164144   3.243   3.385  14.241 -1.1082  0.0072  0.9029
14243TIP3    H264145   3.194   3.507  14.316 -0.7606 -0.1812  1.4434
14244TIP3   OH264146   2.108   2.396  15.332 -0.1204 -0.4701  0.7097
14244TIP3    H164147   2.176   2.461  15.352  0.2194 -0.8923  0.9696
14244TIP3    H264148   2.082   2.415  15.242  0.1015 -0.0873  0.7231
14245TIP3   OH264149   2.731   1.850   3.165  0.2998 -0.4066  0.1950
14245TIP3    H164150   2.726   1.944   3.184  0.4051 -0.1387 -1.0263
14245TIP3    H264151   2.795   1.816   3.227  0.0593  0.2750  0.8306
14246TIP3   OH264152   1.266   0.665  14.062  0.3789  0.4563 -0.3587
14246TIP3    H164153   1.203   0.599  14.036  1.2049 -0.8955  0.8844
14246TIP3    H264154   1.235   0.697  14.147  0.5860  0.8627 -0.4282
14247TIP3   OH264155   3.466   3.321   4.265  0.0307  0.0052  0.0007
14247TIP3    H164156   3.455   3.416   4.259 -0.8568  0.0989  2.0045
14247TIP3    H264157   3.559   3.306   4.251  0.0693  1.0939 -1.0038
14248TIP3   OH264158   2.377   1.487  16.808  0.2829  0.1680 -0.1959
14248TIP3    H164159   2.464   1.523  16.822  0.5479 -0.9597  1.3190
14248TIP3    H264160   2.322   1.563  16.788  1.4925  0.9517 -0.6105
14249TIP3   OH264161   0.919   2.411  14.866 -0.3211  0.3955  0.1009
14249TIP3    H164162   1.004   2.455  14.877 -0.3556  0.5832 -0.3933
14249TIP3    H264163   0.884   2.446  14.785 -1.1735  0.8005  0.6323
14250TIP3   OH264164   4.154   2.181   5.940  0.7330  0.3321 -0.3477
14250TIP3    H164165   4.138   2.182   6.035  0.0186 -0.5056 -0.4433
14250TIP3    H264166   4.081   2.229   5.903  1.0091  0.6522 -0.4826
14251TIP3   OH264167   2.967   4.216  13.509 -0.2380 -0.0507 -0.2848
14251TIP3    H164168   2.955   4.310  13.495  2.1079  0.3522  0.0225
14251TIP3    H264169   2.893   4.175  13.464 -1.9427  1.9792  0.5487
14252TIP3   OH264170   2.528   4.871  15.225 -0.0623 -0.1463 -0.1170
14252TIP3    H164171   2.460   4.913  15.173 -0.4070 -0.1559  0.3177
14252TIP3    H264172   2.501   4.885  15.316  0.3032 -0.5074  0.0535
14253TIP3   OH264173   6.146   5.967   1.625  0.6370  0.4007  0.4935
14253TIP3    H164174   6.177   5.942   1.538 -1.8353  0.9529 -0.6396
14253TIP3    H264175   6.222   5.956   1.682  2.8659  1.6293 -2.0004
14254TIP3   OH264176   1.469   4.722   5.913  0.1932  0.1773 -0.1315
14254TIP3    H164177   1.445   4.807   5.875  0.2780  0.1073 -0.3422
14254TIP3    H264178   1.390   4.692   5.957  0.0973  0.2623 -0.2470
14255TIP3   OH264179   0.523   3.048   5.413 -0.8069  0.3361  0.5077
14255TIP3    H164180   0.499   3.073   5.502 -1.2304 -0.2618  0.5727
14255TIP3    H264181   0.613   3.077   5.403 -0.7858  0.4876  1.1052
14256TIP3   OH264182   6.090   2.357  14.490 -0.2941  0.1546  0.2005
14256TIP3    H164183   6.177   2.382  14.460 -0.0554 -0.1771  0.5914
14256TIP3    H264184   6.033   2.367  14.414  0.0696  0.4657 -0.0301
14257TIP3   OH264185   1.851   4.907  14.344  0.2593  0.5217 -0.4130
14257TIP3    H164186   1.807   4.927  14.261  0.8899  1.8384 -0.4420
14257TIP3    H264187   1.935   4.951  14.338  0.9025 -0.5643  0.3570
14258TIP3   OH264188   2.696   4.033  12.105  0.4288  0.0424 -0.1811
14258TIP3    H164189   2.620   3.975  12.108  0.1443  0.4500  0.9204
14258TIP3    H264190   2.665   4.114  12.145  0.9675  0.7843 -1.2407
14259TIP3   OH264191   5.493   0.626  11.064 -0.3378  0.4442 -0.0420
14259TIP3    H164192   5.570   0.663  11.022  1.0343 -2.3778 -0.2044
14259TIP3    H264193   5.430   0.699  11.066  2.2362  2.8288  0.0537
14260TIP3   OH264194   3.297   0.431  15.283  0.0976 -0.0904 -0.4412
14260TIP3    H164195   3.321   0.517  15.317 -3.1991  0.9645 -0.3929
14260TIP3    H264196   3.302   0.441  15.188 -0.5492  0.2855 -0.4434
14261TIP3   OH264197   6.339   0.745  14.280 -0.0111  0.4422  0.2029
14261TIP3    H164198   6.252   0.709  14.261  1.0142 -0.9602 -2.1875
14261TIP3    H264199   6.358   0.715  14.369 -2.9565  2.9818  1.8798
14262TIP3   OH264200   3.405   3.467  17.037  0.2484  0.5170 -0.0022
14262TIP3    H164201   3.425   3.379  17.068 -0.0634  1.1074  2.0062
14262TIP3    H264202   3.461   3.478  16.960 -0.0823 -1.5877 -0.6203
14263TIP3   OH264203   0.849   1.402  12.800 -0.4069  0.7051 -0.2861
14263TIP3    H164204   0.800   1.424  12.720 -3.1701  1.9991  1.6184
14263TIP3    H264205   0.870   1.486  12.839  1.1644  0.0884  0.2786
14264TIP3   OH264206   5.592   5.060  10.863 -0.6252  0.4660 -0.0708
14264TIP3    H164207   5.672   5.025  10.823 -0.7458 -1.4204  1.1525
14264TIP3    H264208   5.561   5.127  10.803  1.5914  0.8704 -0.8356
14265TIP3   OH264209   6.552   0.345   3.658 -0.1431 -0.2614 -0.2119
14265TIP3    H164210   6.627   0.347   3.598  1.0530 -0.0693  1.2105
14265TIP3    H264211   6.547   0.253   3.686 -0.2550 -0.2218 -0.1040
14266TIP3   OH264212   4.241   1.144  11.881 -0.1586  0.2264  0.3326
14266TIP3    H164213   4.184   1.067  11.876 -1.6379  1.2920  0.2509
14266TIP3    H264214   4.181   1.219  11.876  1.3002  1.3938 -0.2469
14267TIP3   OH264215   6.222   4.818  12.357  0.0892 -0.1650  0.3682
14267TIP3    H164216   6.248   4.910  12.346  0.6984 -0.4204 -0.4128
14267TIP3    H264217   6.166   4.799  12.282 -1.0335 -0.1072  1.1646
14268TIP3   OH264218   5.109   4.912   5.661  0.4674  0.1409  0.0906
14268TIP3    H164219   5.165   4.834   5.665 -0.1241 -0.2465  3.0248
14268TIP3    H264220   5.021   4.879   5.675 -0.3890  0.9346 -2.8962
14269TIP3   OH264221   4.734   4.227  13.016 -0.0808  0.1036  0.5108
14269TIP3    H164222   4.725   4.248  13.109  1.2645  0.3189  0.6146
14269TIP3    H264223   4.813   4.273  12.988 -0.0323 -0.5820 -0.5597
14270TIP3   OH264224   4.029   3.448   3.528  0.3081  0.2128 -0.8017
14270TIP3    H164225   4.095   3.382   3.548  0.3345  0.7607  1.1241
14270TIP3    H264226   3.946   3.400   3.530  0.3519  0.1554  0.3060
14271TIP3   OH264227   2.578   0.153   0.416 -0.1173 -0.7229  0.0384
14271TIP3    H164228   2.520   0.192   0.350 -0.5669 -0.6499  0.4712
14271TIP3    H264229   2.542   0.183   0.500  0.2456 -1.0993  0.3310
14272TIP3   OH264230   2.715   5.851  12.617  0.2163 -0.8780 -0.5439
14272TIP3    H164231   2.696   5.820  12.705  2.2660  0.6241  0.4952
14272TIP3    H264232   2.635   5.833  12.568 -1.2538 -1.0572  1.7848
14273TIP3   OH264233   1.840   4.094   3.015  0.8302  0.0239  0.4880
14273TIP3    H164234   1.781   4.022   3.038 -1.0590  1.3409  0.0837
14273TIP3    H264235   1.926   4.066   3.044  0.0368 -2.0921  0.9534
14274TIP3   OH264236   5.312   2.573   2.495 -0.1173 -0.3101  0.4502
14274TIP3    H164237   5.346   2.661   2.475  0.8826 -1.0985 -1.5517
14274TIP3    H264238   5.389   2.523   2.523 -0.2955 -1.0712 -0.3720
14275TIP3   OH264239   4.093   2.452  14.892  0.5116  0.0446 -0.3340
14275TIP3    H164240   4.001   2.465  14.867  0.4991 -0.1230 -0.3802
14275TIP3    H264241   4.114   2.364  14.860  0.1693 -0.6311  1.2282
14276TIP3   OH264242   3.462   3.244   1.466 -0.6026  0.9234  0.1276
14276TIP3    H164243   3.463   3.153   1.494  1.3096  1.0438  0.6305
14276TIP3    H264244   3.473   3.241   1.371 -0.9108  0.6381  0.0983
14277TIP3   OH264245   6.514   4.441   4.909 -0.5413 -0.0058 -0.1914
14277TIP3    H164246   6.601   4.413   4.880 -0.2859 -0.1623  0.7035
14277TIP3    H264247   6.528   4.525   4.951 -0.5808 -0.6701  1.2102
14278TIP3   OH264248   3.816   6.529  15.779 -0.4110  0.4490  0.0799
14278TIP3    H164249   3.766   6.490  15.851  0.9803  0.5942  1.1843
14278TIP3    H264250   3.819   6.622  15.800  0.4268  0.4193  0.1306
14279TIP3   OH264251   2.110   6.115   3.477 -0.1125 -0.2846  0.1325
14279TIP3    H164252   2.073   6.202   3.461 -0.1190 -0.1473  0.8581
14279TIP3    H264253   2.038   6.065   3.515 -0.0898 -0.5936 -0.2272
14280TIP3   OH264254   1.344   3.535  12.116 -0.4034 -0.3462 -0.4410
14280TIP3    H164255   1.328   3.470  12.048  0.2358 -0.4284 -0.5207
14280TIP3    H264256   1.317   3.618  12.078 -1.3217 -0.5696 -0.3043
14281TIP3   OH264257   0.513   0.575  13.630 -0.7164  0.1880 -0.1518
14281TIP3    H164258   0.541   0.522  13.555  0.9598 -0.7620  1.0932
14281TIP3    H264259   0.536   0.665  13.605  0.0280 -0.1382 -0.6831
14282TIP3   OH264260   4.111   1.241  15.803 -0.1335 -0.2134 -0.0283
14282TIP3    H164261   4.066   1.227  15.887  2.5117 -1.4403  1.3438
14282TIP3    H264262   4.061   1.189  15.740 -1.7774  0.1505  0.9040
14283TIP3   OH264263   0.033   1.036  13.370  0.5446 -0.2183 -0.7773
14283TIP3    H164264  -0.022   0.966  13.335 -1.9110  1.4312 -0.4872
14283TIP3    H264265   0.017   1.034  13.465  1.0165  0.2839 -0.6808
14284TIP3   OH264266   5.733   4.428   2.584 -0.0822 -0.0402  0.2977
14284TIP3    H164267   5.684   4.507   2.561 -1.5491 -0.8179  0.6241
14284TIP3    H264268   5.824   4.457   2.590 -0.5354  1.5311  0.0065
14285TIP3   OH264269   5.066   4.751  16.144  0.3354  0.6095  0.4891
14285TIP3    H164270   5.031   4.702  16.069 -0.1202  0.7486  0.6087
14285TIP3    H264271   4.997   4.813  16.166  0.5949  0.7762  0.8329
14286TIP3   OH264272   2.509   1.037  14.812  0.4164 -0.4018  0.2193
14286TIP3    H164273   2.566   0.967  14.843  1.9936 -0.2683 -2.0919
14286TIP3    H264274   2.551   1.068  14.732 -2.6857  0.0358 -1.4092
14287TIP3   OH264275   1.426   0.316   2.426  0.1171  0.4312 -0.6714
14287TIP3    H164276   1.505   0.368   2.407 -1.2713  2.9035 -0.1621
14287TIP3    H264277   1.358   0.356   2.371 -1.1760 -0.4385  0.2550
14288TIP3   OH264278   3.368   4.982   3.928 -0.6631  0.0652 -0.2313
14288TIP3    H164279   3.401   4.917   3.990  0.5351 -0.5577 -1.4714
14288TIP3    H264280   3.374   5.065   3.974 -1.5507 -0.5779  1.1300
14289TIP3   OH264281   4.292   2.001   3.700 -0.2772 -0.0899 -0.2044
14289TIP3    H164282   4.385   1.995   3.679 -0.1161  0.6803  0.2513
14289TIP3    H264283   4.247   1.967   3.623  0.3701  0.0862 -0.6594
14290TIP3   OH264284   3.503   4.105  16.687  0.0502  0.0913 -0.2894
14290TIP3    H164285   3.437   4.153  16.637  0.8184  2.3057  0.7200
14290TIP3    H264286   3.582   4.109  16.633 -0.4310 -2.1390 -1.2737
14291TIP3   OH264287   1.126   6.207  13.622  0.1688  0.6967 -0.0156
14291TIP3    H164288   1.072   6.267  13.674  1.2057  1.6230  0.0257
14291TIP3    H264289   1.114   6.236  13.532 -0.9631 -0.3785 -0.2412
14292TIP3   OH264290   2.343   1.383  14.754  0.6878  0.9117  0.3538
14292TIP3    H164291   2.408   1.322  14.717  0.9543 -0.1151  2.3683
14292TIP3    H264292   2.263   1.365  14.705  1.2264  0.2070 -0.2956
14293TIP3   OH264293   3.387   2.292  13.710  0.0121 -0.2995  0.1048
14293TIP3    H164294   3.482   2.294  13.720  0.0154  0.8238 -0.1125
14293TIP3    H264295   3.371   2.219  13.650  0.7455 -0.3617 -0.0227
14294TIP3   OH264296   0.050   4.267  16.044  0.2426 -0.3901 -0.1610
14294TIP3    H164297   0.023   4.177  16.022 -2.0195  0.0713  0.3872
14294TIP3    H264298   0.070   4.263  16.137  0.0743 -0.3339 -0.1207
14295TIP3   OH264299   6.494   4.094   4.916 -0.8305  0.2583  0.6975
14295TIP3    H164300   6.402   4.085   4.940 -0.3659 -0.3619  2.3737
14295TIP3    H264301   6.537   4.122   4.997  0.7107 -1.0922  0.3988
14296TIP3   OH264302   1.542   3.466  12.325  0.4933  0.1213  0.2024
14296TIP3    H164303   1.507   3.538  12.378  1.9374 -0.1594  1.6055
14296TIP3    H264304   1.508   3.482  12.237 -0.9975  1.2823  0.9431
14297TIP3   OH264305   1.529   0.611   4.667 -0.0066 -0.5670  0.1608
14297TIP3    H164306   1.547   0.704   4.653  0.1840 -0.0870  3.0133
14297TIP3    H264307   1.600   0.565   4.621 -0.7932  0.5914 -2.3242
14298TIP3   OH264308   2.227   3.594   4.783  0.2672 -0.0238 -0.0119
14298TIP3    H164309   2.222   3.640   4.867 -0.3866  1.2039 -0.6906
14298TIP3    H264310   2.148   3.621   4.737  0.8377 -0.3231 -1.1986
14299TIP3   OH264311   6.278   0.687  14.807  0.5514 -0.1361 -0.0753
14299TIP3    H164312   6.357   0.669  14.859  0.4301  0.7591  0.4495
14299TIP3    H264313   6.270   0.782  14.810  0.8442 -0.0079 -2.2150
14300TIP3   OH264314   6.533   1.903   2.670 -0.1897  0.7308 -0.1218
14300TIP3    H164315   6.521   1.815   2.636 -0.3761  0.4379  0.6857
14300TIP3    H264316   6.560   1.890   2.761 -0.0686  1.5042 -0.0404
14301TIP3   OH264317   1.297   4.880   0.040  0.3158 -0.5949  0.0945
14301TIP3    H164318   1.282   4.974   0.026 -0.1304 -0.3973  1.7064
14301TIP3    H264319   1.392   4.872   0.048  0.3439 -0.2585  0.1108
14302TIP3   OH264320   0.224   6.660  12.951 -0.0697  0.1318 -0.0986
14302TIP3    H164321   0.285   6.588  12.965  1.3680  1.8404  3.8136
14302TIP3    H264322   0.270   6.720  12.893  0.4114 -0.2434 -0.1047
14303TIP3   OH264323   0.293   2.860   4.742 -0.1143  0.1405 -0.4806
14303TIP3    H164324   0.343   2.855   4.824  0.0120 -0.7756 -0.6034
14303TIP3    H264325   0.297   2.952   4.717  1.3325  0.1212 -0.3741
14304TIP3   OH264326   2.775   6.668   5.258  0.5923  0.0067 -0.0420
14304TIP3    H164327   2.756   6.756   5.292  1.4060  0.1155  0.1467
14304TIP3    H264328   2.864   6.650   5.287  0.5057 -0.8016 -0.2626
14305TIP3   OH264329   0.030   3.148  15.079 -0.0936 -0.1012  0.1650
14305TIP3    H164330   0.067   3.116  14.997 -1.7596 -3.1079  0.4303
14305TIP3    H264331   0.090   3.217  15.107  1.0332  0.4257 -3.0794
14306TIP3   OH264332   1.558   4.682  13.209 -0.4919 -0.5084 -0.4482
14306TIP3    H164333   1.606   4.750  13.163  0.4093  0.1375  1.3698
14306TIP3    H264334   1.619   4.608  13.212  0.2703  0.1453  1.4277
14307TIP3   OH264335   0.633   3.623  12.264  0.0336  0.1262 -0.1401
14307TIP3    H164336   0.652   3.582  12.180 -0.0714  1.0646 -0.6407
14307TIP3    H264337   0.586   3.703  12.242 -1.6157 -0.5052  0.9148
14308TIP3   OH264338   4.567   2.201   2.599 -0.0561  0.0370 -0.3149
14308TIP3    H164339   4.580   2.288   2.637  1.9428 -0.4121  0.1510
14308TIP3    H264340   4.612   2.205   2.514 -0.1395 -0.4836 -0.3884
14309TIP3   OH264341   0.080   5.589  17.264  0.0068 -1.0616  0.0424
14309TIP3    H164342   0.035   5.660  17.218 -0.9760 -0.2240  2.1682
14309TIP3    H264343   0.168   5.589  17.228 -0.6088 -0.2326 -1.5620
14310TIP3   OH264344   6.528   0.917   6.028  0.0621 -0.1224 -0.6013
14310TIP3    H164345   6.574   0.903   6.111  0.1252  2.0378 -0.2088
14310TIP3    H264346   6.585   0.879   5.962  1.1679  0.2076  0.1305
14311TIP3   OH264347   4.212   3.801  13.732 -0.0668 -0.9503  0.2702
14311TIP3    H164348   4.126   3.783  13.769 -0.3804  0.4305  0.2976
14311TIP3    H264349   4.262   3.840  13.804 -0.3470  0.8005 -0.4361
14312TIP3   OH264350   4.144   4.912  15.119 -0.2224  0.1725  0.0076
14312TIP3    H164351   4.147   4.821  15.091 -0.1407  0.4343 -0.8811
14312TIP3    H264352   4.078   4.952  15.062 -0.2257  0.6785  0.3580
14313TIP3   OH264353   2.284   1.414   3.469 -0.2193  0.2809  0.0662
14313TIP3    H164354   2.268   1.489   3.410  0.8528  0.0862 -0.5052
14313TIP3    H264355   2.372   1.429   3.503 -1.7536  1.8177  3.8350
14314TIP3   OH264356   1.014   0.049  15.715  0.1248 -0.3586 -0.1161
14314TIP3    H164357   1.028   0.028  15.623 -1.8170  0.6159 -0.6741
14314TIP3    H264358   1.097   0.026  15.757  0.9314 -1.1647 -2.0274
14315TIP3   OH264359   6.351   0.031   2.790 -0.0773  0.4534  0.2792
14315TIP3    H164360   6.368  -0.023   2.867 -1.5446  0.4719  0.6487
14315TIP3    H264361   6.333   0.118   2.825  1.3738  0.9982 -0.2533
14316TIP3   OH264362   0.227   4.029   1.736  0.3306  0.5455  0.1377
14316TIP3    H164363   0.288   3.958   1.757 -0.3300  0.6106  2.6432
14316TIP3    H264364   0.146   3.984   1.712  0.5832  0.4550 -0.5478
14317TIP3   OH264365   5.047   1.174   2.216  0.3277  0.1856  0.7938
14317TIP3    H164366   5.002   1.216   2.143  0.7611  0.8522  0.9040
14317TIP3    H264367   5.101   1.106   2.175  0.1298  0.1714  0.5534
14318TIP3   OH264368   0.607   4.382   2.829 -0.2678 -0.1467  0.1118
14318TIP3    H164369   0.669   4.447   2.861 -0.9401 -0.8235  3.0773
14318TIP3    H264370   0.654   4.334   2.761  0.9561  1.9923 -0.6433
14319TIP3   OH264371   6.543   6.675  11.206  0.2132 -0.4069 -0.3920
14319TIP3    H164372   6.611   6.614  11.177  2.6454  1.7482  0.3846
14319TIP3    H264373   6.530   6.733  11.131 -0.2646 -0.3836 -0.2902
14320TIP3   OH264374   0.675   5.010   0.621 -0.2997 -0.1603  0.2922
14320TIP3    H164375   0.707   4.925   0.648  2.1982  1.2738  2.2764
14320TIP3    H264376   0.691   5.014   0.527  1.5503 -1.1252  0.5271
14321TIP3   OH264377   3.416   5.162  15.699  0.3835  0.7428 -0.1398
14321TIP3    H164378   3.372   5.079  15.715 -3.1591  2.4903  0.0485
14321TIP3    H264379   3.504   5.137  15.670 -0.4190 -3.0112  0.1581
14322TIP3   OH264380   2.769   6.233  15.599 -0.6446  0.0847 -0.2235
14322TIP3    H164381   2.797   6.212  15.510 -1.0423  2.3046 -0.9320
14322TIP3    H264382   2.819   6.311  15.622 -1.6341  0.4105  0.9350
14323TIP3   OH264383   6.538   4.951  12.864 -0.1142  0.4826  0.0036
14323TIP3    H164384   6.583   5.029  12.831 -0.0546  0.3275 -0.2775
14323TIP3    H264385   6.551   4.884  12.797 -0.5287  0.3539  0.0463
14324TIP3   OH264386   6.312   4.930   1.688 -0.0529 -0.0788 -0.1307
14324TIP3    H164387   6.224   4.894   1.677 -0.6685  1.8361 -2.4841
14324TIP3    H264388   6.369   4.867   1.643 -0.5196 -0.2736 -0.4609
14325TIP3   OH264389   4.604   1.700  16.585 -0.1462 -0.1182 -0.3936
14325TIP3    H164390   4.634   1.775  16.636  0.6201  0.1065 -1.1407
14325TIP3    H264391   4.640   1.715  16.497  1.6036 -2.2406 -0.1302
14326TIP3   OH264392   3.405   1.226   5.607 -0.2158 -0.8221 -0.4245
14326TIP3    H164393   3.321   1.179   5.607 -1.2868  1.0055 -1.1188
14326TIP3    H264394   3.431   1.227   5.699 -1.2267 -0.9803 -0.1165
14327TIP3   OH264395   1.820   1.356   5.667  0.6575  1.0025 -0.2323
14327TIP3    H164396   1.731   1.365   5.702  1.4048  0.3976  1.9339
14327TIP3    H264397   1.864   1.437   5.692  0.5872  1.6122 -1.9083
14328TIP3   OH264398   6.698   1.944   3.430  0.5908  0.3977 -0.2262
14328TIP3    H164399   6.686   1.872   3.367 -0.4390 -1.4695  1.9401
14328TIP3    H264400   6.609   1.972   3.450  0.8682  0.5232  0.8582
14329TIP3   OH264401   0.197   4.568  15.241  0.0339 -0.4005 -0.1037
14329TIP3    H164402   0.258   4.641  15.231 -0.8347  0.4969  0.9583
14329TIP3    H264403   0.178   4.540  15.151 -0.7574  1.6466 -0.6197
14330TIP3   OH264404   2.247   5.384   0.629 -0.9944 -0.4172  0.2565
14330TIP3    H164405   2.341   5.369   0.636 -1.1329 -1.8455 -0.5482
14330TIP3    H264406   2.214   5.374   0.719 -0.2868  1.0265  0.7050
14331TIP3   OH264407   2.577   3.832  15.696  0.5357 -0.0778  0.4993
14331TIP3    H164408   2.554   3.814  15.787 -1.0419 -0.7246 -0.0025
14331TIP3    H264409   2.669   3.804  15.689  0.0184 -2.1594  1.3408
14332TIP3   OH264410   4.602   3.648  11.638 -0.6887 -0.3190 -0.1472
14332TIP3    H164411   4.528   3.589  11.653 -0.0782 -0.5269  2.5086
14332TIP3    H264412   4.563   3.736  11.643 -0.8316 -0.4316  1.0476
14333TIP3   OH264413   5.551   0.453   0.575  0.1586  0.0475 -0.4039
14333TIP3    H164414   5.459   0.439   0.556  0.2981 -2.3456  0.3601
14333TIP3    H264415   5.572   0.388   0.642  2.4616  0.3583 -0.7336
14334TIP3   OH264416   6.071   0.123   2.934  0.1491  0.2147 -0.0459
14334TIP3    H164417   6.042   0.161   3.017  0.5749  0.3568  0.0390
14334TIP3    H264418   6.004   0.150   2.871 -0.8476 -0.9244  0.4792
14335TIP3   OH264419   6.188   2.029  11.481 -0.4057 -0.0362  0.0888
14335TIP3    H164420   6.199   1.995  11.392  4.0967  0.9699  0.0275
14335TIP3    H264421   6.169   1.952  11.534  0.6838 -1.2990 -1.2667
14336TIP3   OH264422   3.619   5.739   2.111  0.1347 -0.1662  0.1911
14336TIP3    H164423   3.685   5.808   2.107 -0.4304  0.3577 -0.3945
14336TIP3    H264424   3.550   5.776   2.168 -1.3867  0.8728 -2.1714
14337TIP3   OH264425   4.909   0.841  14.688  0.5213  0.4514 -0.4691
14337TIP3    H164426   4.953   0.845  14.773  0.3536 -2.0180 -0.1753
14337TIP3    H264427   4.840   0.907  14.693  0.5970  0.4435  1.2933
14338TIP3   OH264428   2.321   5.368   4.919  0.1143 -0.1990  0.2369
14338TIP3    H164429   2.314   5.273   4.929  0.1013 -0.2800 -0.4934
14338TIP3    H264430   2.237   5.401   4.948  0.7158 -0.2512  2.1929
14339TIP3   OH264431   3.119   1.959   2.651  0.4331  0.3066 -0.2941
14339TIP3    H164432   3.088   2.021   2.586  0.1014  0.2526 -0.1854
14339TIP3    H264433   3.186   2.007   2.700 -0.2487  0.7802  0.1870
14340TIP3   OH264434   4.859   6.481  16.958  0.0971 -0.1171  1.1674
14340TIP3    H164435   4.811   6.494  17.040  0.7293 -0.8608  1.6698
14340TIP3    H264436   4.839   6.559  16.906  1.9205  1.7690  3.1316
14341TIP3   OH264437   1.761   4.017   5.019  0.5815  0.0611  0.2950
14341TIP3    H164438   1.805   3.936   4.995 -1.0113 -0.5990 -0.5393
14341TIP3    H264439   1.805   4.085   4.966  1.4006 -0.3648  0.4151
14342TIP3   OH264440   5.795   3.240  15.087 -0.3375 -0.4184  0.1702
14342TIP3    H164441   5.778   3.329  15.055  1.9203  0.3006  0.7823
14342TIP3    H264442   5.708   3.201  15.094 -1.5706  2.2388  1.2975
14343TIP3   OH264443   2.555   6.210   2.580  0.4585 -0.4559  0.2748
14343TIP3    H164444   2.532   6.118   2.574 -0.7577 -0.2164  0.9735
14343TIP3    H264445   2.472   6.255   2.594  0.9321  0.8302 -0.8193
14344TIP3   OH264446   1.214   6.374   3.733  0.0754  0.2583  0.0005
14344TIP3    H164447   1.147   6.442   3.727 -1.0101 -0.3155  3.3135
14344TIP3    H264448   1.165   6.292   3.731  0.7420 -0.2049  1.3733
14345TIP3   OH264449   6.195   3.547   2.992 -0.2924 -0.2870 -0.5425
14345TIP3    H164450   6.177   3.627   3.042  0.2572  1.1126 -2.4652
14345TIP3    H264451   6.289   3.549   2.977 -0.1387 -1.7543  0.0685
14346TIP3   OH264452   6.083   3.549   1.879 -0.3832  0.4481  0.3796
14346TIP3    H164453   6.055   3.511   1.796 -0.0772  0.8304  0.0975
14346TIP3    H264454   6.015   3.523   1.941 -1.4335  1.4377 -0.3135
14347TIP3   OH264455   6.204   1.313  10.700 -0.4858 -0.3459 -0.2185
14347TIP3    H164456   6.130   1.361  10.662 -1.5496  1.1534  3.3038
14347TIP3    H264457   6.168   1.272  10.779  2.4585  0.8609  1.9318
14348TIP3   OH264458   4.275   2.922  14.571  0.0849  0.3202  0.1749
14348TIP3    H164459   4.221   2.999  14.555 -0.3000 -0.0398 -0.3258
14348TIP3    H264460   4.217   2.848  14.553  0.8515 -0.0783 -0.8284
14349TIP3   OH264461   0.749   0.943  17.173 -0.4445  0.2589 -0.0663
14349TIP3    H164462   0.785   0.961  17.260 -2.1849  2.4140  0.3158
14349TIP3    H264463   0.820   0.968  17.112  1.0031 -1.8276  0.6418
14350TIP3   OH264464   5.252   4.687  12.365  0.0424 -0.0425 -0.7060
14350TIP3    H164465   5.204   4.604  12.355 -1.1783  0.5308  0.0927
14350TIP3    H264466   5.192   4.753  12.331  0.6330  0.6035 -0.5078
14351TIP3   OH264467   4.283   0.885  15.419  0.0023 -0.0465 -0.1278
14351TIP3    H164468   4.309   0.857  15.507 -0.2302  1.2991  0.4049
14351TIP3    H264469   4.324   0.972  15.409  1.5256 -0.9006 -2.0661
14352TIP3   OH264470   4.333   6.524   3.922  0.0154  0.2216 -0.3117
14352TIP3    H164471   4.428   6.533   3.909  0.1551 -1.1807 -0.5263
14352TIP3    H264472   4.298   6.518   3.833 -0.2309  0.4215 -0.2276
14353TIP3   OH264473   2.726   0.844   0.565 -0.6725 -0.7918  0.2032
14353TIP3    H164474   2.684   0.768   0.604 -3.3803  0.5252  0.1078
14353TIP3    H264475   2.696   0.918   0.618 -0.1642  0.4625 -1.1950
14354TIP3   OH264476   0.041   4.702   4.215 -0.0677  0.0184 -0.3167
14354TIP3    H164477   0.115   4.650   4.184 -0.0949 -0.4910  0.4420
14354TIP3    H264478   0.001   4.737   4.136  0.6420 -0.1744 -0.7672
14355TIP3   OH264479   2.667   5.049  14.733  0.5038  0.3358 -0.1164
14355TIP3    H164480   2.621   5.051  14.649  0.3323  1.6820 -0.0116
14355TIP3    H264481   2.600   5.070  14.798  1.2298  2.4483  0.0289
14356TIP3   OH264482   0.253   1.851   4.122 -0.4675  0.4767 -0.1039
14356TIP3    H164483   0.168   1.875   4.085  0.1049 -0.2777 -2.0833
14356TIP3    H264484   0.307   1.829   4.045  1.4716  0.7864  1.0980
14357TIP3   OH264485   3.379   3.292  13.567 -0.0418 -0.5180  0.6671
14357TIP3    H164486   3.292   3.300  13.528 -0.1757 -1.2431  0.8062
14357TIP3    H264487   3.386   3.200  13.592  1.0315 -0.6273  0.0354
14358TIP3   OH264488   3.353   5.689   3.879  0.4949 -0.7622 -0.2366
14358TIP3    H164489   3.264   5.693   3.842  0.1683 -0.8531  0.5216
14358TIP3    H264490   3.346   5.624   3.949  0.9004  0.0110  0.5284
14359TIP3   OH264491   6.257   1.736  11.919 -0.2465  0.0604  0.0734
14359TIP3    H164492   6.206   1.796  11.973  0.7167 -0.0448  1.1484
14359TIP3    H264493   6.237   1.649  11.953  0.7105  0.0274  0.5846
14360TIP3   OH264494   4.977   2.579   1.290  0.5012  0.4382  0.0223
14360TIP3    H164495   5.071   2.589   1.270  0.2986  0.4336 -0.9848
14360TIP3    H264496   4.972   2.494   1.335  1.2000  1.2365  1.7158
14361TIP3   OH264497   3.297   5.510   4.075  1.1120 -0.2304 -0.6672
14361TIP3    H164498   3.355   5.472   4.141 -0.1704 -0.1197  0.5665
14361TIP3    H264499   3.213   5.466   4.088  0.6983  0.1604 -1.8927
14362TIP3   OH264500   2.861   1.101  14.090 -0.2663  0.0106  0.4235
14362TIP3    H164501   2.831   1.117  14.001 -0.6519 -2.4555  0.0422
14362TIP3    H264502   2.798   1.147  14.146 -0.1463  1.3953 -0.5307
14363TIP3   OH264503   1.207   1.345   3.519  0.3117  0.7867  0.0498
14363TIP3    H164504   1.280   1.331   3.458  0.4190 -0.3379  0.4187
14363TIP3    H264505   1.249   1.360   3.604  0.1191 -0.4357  0.3734
14364TIP3   OH264506   4.112   3.874  14.568 -0.2961  0.1012  0.0469
14364TIP3    H164507   4.018   3.853  14.569 -0.2843 -0.4586 -2.6110
14364TIP3    H264508   4.116   3.965  14.539 -0.0488  1.5944  4.1502
14365TIP3   OH264509   1.547   0.264  12.104 -0.5503  0.2171  0.2348
14365TIP3    H164510   1.628   0.214  12.095 -0.4361  0.6018 -0.9564
14365TIP3    H264511   1.504   0.256  12.019 -2.3875 -1.0285  1.2202
14366TIP3   OH264512   5.679   4.736   4.471  0.0332 -0.2831 -0.1888
14366TIP3    H164513   5.758   4.732   4.526 -0.8438  0.3274  1.1776
14366TIP3    H264514   5.675   4.650   4.428  1.0571 -0.5802  0.2766
14367TIP3   OH264515   2.273   5.492   4.663  0.0341 -0.1110 -0.0428
14367TIP3    H164516   2.301   5.428   4.730 -1.9973 -0.9961  0.0324
14367TIP3    H264517   2.234   5.563   4.713  0.6229  0.3337 -0.2089
14368TIP3   OH264518   1.733   1.677   4.727  0.1271 -0.1456 -0.0598
14368TIP3    H164519   1.819   1.643   4.751  0.5385  0.4963 -0.5821
14368TIP3    H264520   1.751   1.743   4.660 -1.0004 -2.4336 -2.8520
14369TIP3   OH264521   0.857   2.146  12.979  0.2447 -0.1526 -0.5751
14369TIP3    H164522   0.897   2.192  12.905  0.1046 -0.5943 -0.9313
14369TIP3    H264523   0.811   2.214  13.027  2.3059  0.5740  0.4760
14370TIP3   OH264524   4.600   4.190   0.535 -0.4305  0.1035 -0.7191
14370TIP3    H164525   4.567   4.237   0.458  0.1384 -0.0806 -1.0831
14370TIP3    H264526   4.694   4.180   0.518 -0.2618  0.2278  0.0900
14371TIP3   OH264527   4.308   5.682   3.715 -0.3652  0.5086 -0.2257
14371TIP3    H164528   4.310   5.745   3.643  0.3889  0.9387  0.1481
14371TIP3    H264529   4.219   5.648   3.715 -0.6971  1.3361 -0.6509
14372TIP3   OH264530   0.267   0.421  15.313  0.0384 -0.1744  0.4660
14372TIP3    H164531   0.181   0.460  15.326  0.4965  1.0726 -0.0647
14372TIP3    H264532   0.251   0.327  15.308 -1.2681  0.0342  0.4789
14373TIP3   OH264533   1.026   6.121   2.928  0.2095 -0.0649 -0.0053
14373TIP3    H164534   1.056   6.049   2.983 -0.4212 -0.4158 -0.1118
14373TIP3    H264535   1.058   6.100   2.840 -0.4071 -0.4767 -0.1333
14374TIP3   OH264536   2.636   2.435   1.815  0.1012  0.0302  0.8988
14374TIP3    H164537   2.624   2.378   1.891  0.5355 -0.1690  0.8239
14374TIP3    H264538   2.609   2.522   1.845 -1.0580 -0.3040  0.8558
14375TIP3   OH264539   1.844   2.499   5.342  0.1473 -0.4427 -0.3766
14375TIP3    H164540   1.812   2.442   5.412 -0.4850  0.6887  0.2812
14375TIP3    H264541   1.805   2.584   5.361  0.8951  0.1608 -1.4651
14376TIP3   OH264542   1.610   1.537  12.500 -0.7312  0.4185 -0.1065
14376TIP3    H164543   1.644   1.495  12.421 -2.5736  1.6312 -1.6099
14376TIP3    H264544   1.589   1.464  12.558 -0.0393 -0.5317 -1.0146
14377TIP3   OH264545   0.527   4.629   1.112 -0.3327 -0.1674  0.2329
14377TIP3    H164546   0.544   4.721   1.094 -1.0572  0.2503  1.5202
14377TIP3    H264547   0.597   4.582   1.067  2.1175  1.2191  2.2909
14378TIP3   OH264548   3.390   4.119  14.131 -0.1995  0.4176  0.2288
14378TIP3    H164549   3.335   4.153  14.061 -0.7420 -1.0631 -0.0972
14378TIP3    H264550   3.337   4.127  14.210 -0.6958 -0.4982  0.0026
14379TIP3   OH264551   1.545   2.250   1.584 -0.1191 -0.5788  0.0127
14379TIP3    H164552   1.606   2.203   1.528  1.1650  1.0758 -0.0472
14379TIP3    H264553   1.557   2.210   1.670 -0.8045 -1.9294 -0.4804
14380TIP3   OH264554   0.333   3.827   2.272 -0.0365  0.4462 -0.1545
14380TIP3    H164555   0.333   3.794   2.362 -0.0237 -1.4034 -0.7756
14380TIP3    H264556   0.245   3.862   2.259 -0.5852 -0.8013  0.0813
14381TIP3   OH264557   4.667   4.803  12.499  0.0050 -0.3287  0.3847
14381TIP3    H164558   4.691   4.828  12.589 -0.0939 -0.4681  0.4500
14381TIP3    H264559   4.630   4.882  12.461  0.9093 -0.0017  0.1674
14382TIP3   OH264560   4.509   4.020   1.704 -0.0807  0.3484  0.2136
14382TIP3    H164561   4.595   3.977   1.696  0.0889  0.4469  1.2815
14382TIP3    H264562   4.510   4.088   1.637 -1.1443 -2.5056 -2.9468
14383TIP3   OH264563   5.340   0.842  11.251  0.3555  0.3384  0.3787
14383TIP3    H164564   5.325   0.813  11.341 -2.1530 -0.4586 -0.2112
14383TIP3    H264565   5.390   0.923  11.260  2.1564 -0.8758  2.3589
14384TIP3   OH264566   2.856   3.449   3.224  0.0620  0.4913 -0.4692
14384TIP3    H164567   2.833   3.517   3.286 -0.9474  0.8689 -1.2104
14384TIP3    H264568   2.928   3.485   3.173 -0.1948  0.8445 -0.5859
14385TIP3   OH264569   1.558   2.749  15.957 -0.4048 -0.4264 -0.2928
14385TIP3    H164570   1.636   2.780  15.911 -0.5923  0.4173 -0.0556
14385TIP3    H264571   1.554   2.802  16.036 -1.2589 -0.4096 -0.3386
14386TIP3   OH264572   4.706   3.700  12.769 -0.1348  0.0073  0.6856
14386TIP3    H164573   4.799   3.716  12.750  0.0057 -1.2357  0.2549
14386TIP3    H264574   4.664   3.694  12.683 -0.8249  1.5633  0.8767
14387TIP3   OH264575   0.024   3.579   0.521 -0.1142  0.1747 -0.4064
14387TIP3    H164576   0.021   3.593   0.426 -1.9552  0.6388 -0.3106
14387TIP3    H264577   0.008   3.666   0.559 -0.0712 -0.1239  0.3188
14388TIP3   OH264578   2.989   0.730  15.684  0.0760 -0.0290  0.1448
14388TIP3    H164579   2.955   0.812  15.646  0.6253 -0.3921 -1.1876
14388TIP3    H264580   2.978   0.666  15.614  0.2537 -0.9526  0.9546
14389TIP3   OH264581   4.431   0.899  14.041  0.4608 -0.3972  0.4137
14389TIP3    H164582   4.485   0.968  14.003 -0.2402 -0.9650 -1.7462
14389TIP3    H264583   4.358   0.890  13.980 -0.6928 -1.4495  1.8869
14390TIP3   OH264584   0.601   0.770   5.408  0.4059 -0.2276  0.3482
14390TIP3    H164585   0.683   0.755   5.361 -0.2889 -0.3631 -0.8739
14390TIP3    H264586   0.560   0.684   5.413  0.1506 -0.0942  0.5846
14391TIP3   OH264587   3.676   5.553   4.376  0.2374 -0.2881  0.6091
14391TIP3    H164588   3.674   5.641   4.414  2.9492 -0.3651  1.1144
14391TIP3    H264589   3.665   5.495   4.450  0.1715 -0.3830  0.5245
14392TIP3   OH264590   5.443   0.743   3.851  0.1732  0.4987 -0.3833
14392TIP3    H164591   5.500   0.778   3.782  0.0466  0.8108 -0.3300
14392TIP3    H264592   5.369   0.803   3.854 -0.3984 -0.1694 -0.7811
14393TIP3   OH264593   3.863   0.479   6.453  0.2390  0.0673 -0.6442
14393TIP3    H164594   3.911   0.398   6.433 -0.2030 -0.1208 -0.9582
14393TIP3    H264595   3.931   0.540   6.483  0.4113 -0.8328  0.9297
14394TIP3   OH264596   6.602   3.314  14.355 -0.0940 -0.5028  0.7457
14394TIP3    H164597   6.600   3.268  14.272  0.7253  0.3976  0.1966
14394TIP3    H264598   6.512   3.345  14.368  0.1144  0.9017 -0.7443
14395TIP3   OH264599   2.503   6.264  13.054  0.5201  0.1846  0.0504
14395TIP3    H164600   2.434   6.205  13.083  1.2673 -0.2385  1.0140
14395TIP3    H264601   2.459   6.349  13.046 -0.3771 -0.3190 -0.5545
14396TIP3   OH264602   5.023   5.398  15.362  0.4156  0.2246 -0.0299
14396TIP3    H164603   4.942   5.449  15.366  1.2830  1.6521 -0.0670
14396TIP3    H264604   4.994   5.308  15.347 -1.1435  0.7527 -0.3365
14397TIP3   OH264605   1.278   4.677  15.053 -0.6793 -0.3790 -0.1738
14397TIP3    H164606   1.257   4.767  15.029 -0.2246  0.1395  1.2983
14397TIP3    H264607   1.240   4.665  15.140  1.7468 -0.6345  0.9286
14398TIP3   OH264608   0.719   0.438  11.246 -0.5129 -0.6264  0.5206
14398TIP3    H164609   0.791   0.486  11.287 -0.8947 -0.1316  0.6162
14398TIP3    H264610   0.752   0.415  11.159 -0.1794 -0.5496  0.6258
14399TIP3   OH264611   2.818   4.161  11.896 -0.1299 -0.4381 -1.0707
14399TIP3    H164612   2.799   4.100  11.967 -0.4826 -0.2871 -1.0325
14399TIP3    H264613   2.737   4.211  11.886  0.4948  0.7659 -0.3638
14400TIP3   OH264614   1.941   1.564  11.388 -0.7219 -0.1792  0.3666
14400TIP3    H164615   1.888   1.603  11.457 -1.6735 -0.0337 -0.4295
14400TIP3    H264616   1.961   1.637  11.329  0.1371 -0.2883  0.5053
14401TIP3   OH264617   3.062   6.071  12.828  0.2018  0.1638  0.4510
14401TIP3    H164618   3.011   6.152  12.820 -0.7187 -0.4469 -0.0478
14401TIP3    H264619   3.083   6.047  12.738 -1.6484 -1.4317  0.3656
14402TIP3   OH264620   4.565   4.645  14.132 -0.4699  0.1189 -0.1109
14402TIP3    H164621   4.658   4.643  14.109 -0.9286 -2.3427 -2.2929
14402TIP3    H264622   4.522   4.682  14.056 -1.3744 -0.0047  0.3257
14403TIP3   OH264623   3.454   1.789   4.177 -0.1683  0.0375  0.2197
14403TIP3    H164624   3.382   1.727   4.166 -0.0572  0.0863 -0.9484
14403TIP3    H264625   3.527   1.748   4.129  0.0411  0.8358 -0.1581
14404TIP3   OH264626   0.289   6.346  11.523 -0.3336  0.0202  0.4253
14404TIP3    H164627   0.289   6.322  11.430  2.0241 -1.0791  0.6241
14404TIP3    H264628   0.321   6.437  11.523  0.0466 -0.1074  0.1598
14405TIP3   OH264629   0.603   3.602   6.083 -0.2615 -0.5527 -0.0415
14405TIP3    H164630   0.538   3.661   6.121 -1.3797 -1.4074 -0.5766
14405TIP3    H264631   0.560   3.516   6.083  2.0592 -1.8727  2.6792
14406TIP3   OH264632   0.927   2.130  16.339  0.4712  1.4290 -0.5222
14406TIP3    H164633   0.970   2.213  16.360 -0.5738  2.2696 -1.5563
14406TIP3    H264634   0.871   2.150  16.265 -0.8048  0.0990  0.0256
14407TIP3   OH264635   0.320   2.832   1.480  0.7874  0.2425  0.4256
14407TIP3    H164636   0.378   2.757   1.493  0.8454  0.2717  0.3416
14407TIP3    H264637   0.364   2.883   1.412  0.5336  0.1336  0.1804
14408TIP3   OH264638   3.964   5.157   5.032 -0.0588  0.0266  0.4243
14408TIP3    H164639   4.044   5.110   5.056 -0.3841 -0.8891 -0.2428
14408TIP3    H264640   3.988   5.249   5.039  0.9299 -0.2312  0.6484
14409TIP3   OH264641   4.158   3.786   5.898  0.4900  0.1422 -0.0943
14409TIP3    H164642   4.087   3.737   5.857  0.8342 -0.2821 -0.1886
14409TIP3    H264643   4.226   3.791   5.831  1.0401 -0.5140  0.4013
14410TIP3   OH264644   1.122   3.931  15.092 -0.1061  0.3177 -0.0719
14410TIP3    H164645   1.093   3.963  15.007 -0.0531  0.8252  0.0987
14410TIP3    H264646   1.077   3.847  15.103 -1.3276  0.9769  0.0836
14411TIP3   OH264647   6.495   0.963  15.996 -0.4225  0.1966  0.3280
14411TIP3    H164648   6.544   0.881  15.986  0.4236  0.6485  0.6181
14411TIP3    H264649   6.418   0.938  16.047 -0.0228 -0.3697  0.6758
14412TIP3   OH264650   4.467   0.903   2.298 -0.2413  0.7876 -0.0645
14412TIP3    H164651   4.395   0.950   2.340 -1.0514  0.0858 -0.6411
14412TIP3    H264652   4.449   0.911   2.204  0.5912  0.8443 -0.2309
14413TIP3   OH264653   6.302   3.209   5.737  0.0783 -0.1066 -0.6699
14413TIP3    H164654   6.262   3.270   5.674  1.2094 -0.8018 -2.1288
14413TIP3    H264655   6.377   3.257   5.772 -1.6509  1.0448  1.7651
14414TIP3   OH264656   1.169   3.988   0.481 -0.3526 -0.0905  0.3581
14414TIP3    H164657   1.220   4.046   0.425 -2.7989  2.1138  0.2179
14414TIP3    H264658   1.171   4.029   0.567 -0.5905 -0.8315  0.7342
14415TIP3   OH264659   0.873   4.617  13.342  0.6586  0.7185  0.3262
14415TIP3    H164660   0.953   4.570  13.365  0.0946 -0.0747  0.7166
14415TIP3    H264661   0.903   4.700  13.306  1.7730 -0.8452 -2.6404
14416TIP3   OH264662   0.080   6.224   3.369  0.2338 -0.2673 -0.2338
14416TIP3    H164663   0.144   6.229   3.439 -0.1678  0.3265  0.0936
14416TIP3    H264664   0.125   6.177   3.299  1.1169  0.3718 -0.1111
14417TIP3   OH264665   0.392   0.251  16.790 -0.1966  0.2822 -0.3043
14417TIP3    H164666   0.439   0.208  16.719 -0.9960  0.8891 -1.2329
14417TIP3    H264667   0.330   0.185  16.821  0.3653 -0.0870  0.0468
14418TIP3   OH264668   4.288   2.749   1.882  0.0221 -0.3046 -0.6370
14418TIP3    H164669   4.302   2.843   1.871 -0.7641 -0.3646 -2.5425
14418TIP3    H264670   4.275   2.737   1.976 -1.1750  1.6909 -0.4891
14419TIP3   OH264671   1.686   1.313  15.953 -0.7404 -0.2839 -0.3539
14419TIP3    H164672   1.744   1.274  15.888 -2.7710 -1.6979 -1.4710
14419TIP3    H264673   1.675   1.404  15.926  0.4385 -0.1677 -0.4656
14420TIP3   OH264674   4.381   4.590  13.255  0.2206 -0.2997 -0.4231
14420TIP3    H164675   4.442   4.561  13.187 -0.2645 -1.0127 -0.5656
14420TIP3    H264676   4.397   4.532  13.329 -1.9528 -2.2125 -1.3032
14421TIP3   OH264677   3.512   1.356  14.452  0.6484 -0.1832  0.1047
14421TIP3    H164678   3.430   1.310  14.470  1.2226 -1.6975 -0.9939
14421TIP3    H264679   3.504   1.438  14.501 -0.8613 -0.9629  1.2427
14422TIP3   OH264680   6.301   5.939   3.435  0.0899 -0.0615  0.2411
14422TIP3    H164681   6.241   5.997   3.388  1.4721 -0.4865 -2.2598
14422TIP3    H264682   6.383   5.988   3.439  0.0834 -0.1478  2.0930
14423TIP3   OH264683   5.370   4.145   6.011  0.8655  0.5067  0.6485
14423TIP3    H164684   5.439   4.193   6.056  2.1552 -1.2613  0.6757
14423TIP3    H264685   5.316   4.108   6.081  3.1881 -2.7044  0.9836
14424TIP3   OH264686   3.009   2.093  10.745  0.4402 -0.5189 -0.2239
14424TIP3    H164687   2.957   2.125  10.819  1.6404  0.6476  0.1430
14424TIP3    H264688   3.038   2.006  10.772 -1.1403 -1.1191 -0.3633
14425TIP3   OH264689   4.737   0.478   2.928 -0.0243  0.0488 -0.0240
14425TIP3    H164690   4.687   0.442   3.001 -0.5299 -0.1978 -0.4864
14425TIP3    H264691   4.807   0.414   2.913  1.6195  1.2578  1.8147
14426TIP3   OH264692   3.580   2.538   5.270  0.2565  0.2113  0.9354
14426TIP3    H164693   3.501   2.565   5.318  0.1190 -0.3747  1.0462
14426TIP3    H264694   3.553   2.538   5.178  0.2502  0.4211  0.9368
14427TIP3   OH264695   4.406   2.754   3.491 -0.1603  0.3388 -0.2427
14427TIP3    H164696   4.316   2.735   3.463  0.4617 -0.3463 -1.9068
14427TIP3    H264697   4.422   2.694   3.564 -0.2765 -1.2730 -1.4962
14428TIP3   OH264698   4.777   2.755   1.163 -0.3565  0.3972 -0.2266
14428TIP3    H164699   4.745   2.791   1.245 -0.4222  0.2029 -0.1661
14428TIP3    H264700   4.839   2.687   1.189  1.1857  1.6970 -0.3411
14429TIP3   OH264701   4.873   2.080   4.653  0.5316 -0.4354 -0.7668
14429TIP3    H164702   4.905   2.170   4.644  0.7817 -0.1777  1.8692
14429TIP3    H264703   4.883   2.060   4.747  2.4313 -3.9637 -1.5320
14430TIP3   OH264704   3.893   4.465  17.081  0.0648 -0.4783  0.1127
14430TIP3    H164705   3.860   4.375  17.074  0.2066 -0.4644 -0.9243
14430TIP3    H264706   3.816   4.520  17.071 -0.2857 -0.4732  2.4195
14431TIP3   OH264707   0.982   4.971  13.946 -0.4884  0.1545  0.1209
14431TIP3    H164708   0.894   4.949  13.915 -0.2815 -1.8934  0.8053
14431TIP3    H264709   1.004   5.052  13.901 -2.6113  0.5693 -0.2788
14432TIP3   OH264710   6.424   0.983   3.164 -0.2825 -0.5842 -0.1664
14432TIP3    H164711   6.357   0.931   3.121 -0.0663  0.5033 -1.8970
14432TIP3    H264712   6.503   0.971   3.112  0.6448 -1.0639  1.2781
14433TIP3   OH264713   6.374   2.445   0.285  0.2680  0.2918 -0.5613
14433TIP3    H164714   6.450   2.496   0.258 -1.9637  3.7154 -0.9668
14433TIP3    H264715   6.303   2.474   0.227 -1.9642 -0.8248  1.4120
14434TIP3   OH264716   5.173   6.399  14.914 -0.0896 -0.1214  0.0365
14434TIP3    H164717   5.253   6.354  14.942 -0.1227 -0.5817 -0.6049
14434TIP3    H264718   5.107   6.371  14.977  0.0838 -0.3106  0.1376
14435TIP3   OH264719   2.395   4.004  16.581  0.0665  0.0127  0.3964
14435TIP3    H164720   2.490   4.010  16.586  0.0360  0.4525  0.4739
14435TIP3    H264721   2.365   4.094  16.575 -0.1494 -0.1653 -4.0535
14436TIP3   OH264722   0.603   6.544   4.863 -0.0097 -0.0011  0.3561
14436TIP3    H164723   0.536   6.530   4.930 -1.0510  0.1897 -0.5967
14436TIP3    H264724   0.570   6.618   4.812  0.5988 -0.3301 -0.5443
14437TIP3   OH264725   5.788   6.109  16.501 -0.3469 -0.1114  0.3729
14437TIP3    H164726   5.754   6.026  16.469 -0.3817  0.7093 -1.9187
14437TIP3    H264727   5.882   6.105  16.484 -0.5280  0.7878 -1.0607
14438TIP3   OH264728   2.599   5.985  13.819  0.5388 -0.7088  0.1577
14438TIP3    H164729   2.655   5.929  13.766  1.3811 -0.2106  0.4982
14438TIP3    H264730   2.659   6.047  13.860 -0.2231 -0.3884  0.8198
14439TIP3   OH264731   5.907   3.378  15.299 -0.2957 -0.1774  0.1360
14439TIP3    H164732   5.861   3.333  15.370  0.8690  0.4605  1.3314
14439TIP3    H264733   5.897   3.319  15.224  2.3162 -3.2426  1.9282
14440TIP3   OH264734   2.609   1.060   4.869  0.0403  0.0459 -0.4199
14440TIP3    H164735   2.523   1.068   4.910 -0.3571 -1.0820 -0.9954
14440TIP3    H264736   2.640   0.973   4.895  0.9547  0.3903 -0.3244
14441TIP3   OH264737   3.035   3.044   0.303 -0.1236  0.0441  0.5599
14441TIP3    H164738   3.115   2.996   0.326  1.0260  0.2807 -2.4974
14441TIP3    H264739   2.964   2.981   0.317  0.9854 -1.3415  0.1305
14442TIP3   OH264740   5.760   4.990  12.069  0.1433 -0.0840  0.0954
14442TIP3    H164741   5.745   5.029  11.983  2.3110  0.7763  0.0516
14442TIP3    H264742   5.692   4.922  12.076 -1.1549  0.9470 -1.5481
14443TIP3   OH264743   4.602   5.345   1.635  0.0781  0.3355  0.1690
14443TIP3    H164744   4.544   5.354   1.711 -0.0421  1.4422 -0.0376
14443TIP3    H264745   4.584   5.423   1.582  1.9796  0.8738  0.2476
14444TIP3   OH264746   0.451   0.138   5.603 -0.0291 -0.5474 -0.5246
14444TIP3    H164747   0.445   0.122   5.697 -0.1065  0.5830 -0.3204
14444TIP3    H264748   0.363   0.165   5.577  0.4767  1.3453 -0.4556
14445TIP3   OH264749   4.121   5.690  11.225 -0.0881  0.3515  0.1250
14445TIP3    H164750   4.167   5.632  11.286  0.0207  1.7405  1.4135
14445TIP3    H264751   4.189   5.718  11.163 -0.2716 -1.3361 -0.9156
14446TIP3   OH264752   4.773   0.104   2.379  0.4507  0.2475  0.8613
14446TIP3    H164753   4.737   0.164   2.312 -1.5123  1.2109  2.6445
14446TIP3    H264754   4.867   0.104   2.363  0.1601  1.2930 -1.2136
14447TIP3   OH264755   2.494   5.779   1.517  0.3227 -0.7171 -0.4152
14447TIP3    H164756   2.457   5.864   1.492  1.8722  0.3984  0.9294
14447TIP3    H264757   2.418   5.721   1.525 -0.8371  0.7293 -0.6133
14448TIP3   OH264758   4.365   6.254  11.128  0.5346 -0.6058 -0.4929
14448TIP3    H164759   4.350   6.161  11.107  1.9000 -0.6641 -1.3101
14448TIP3    H264760   4.460   6.265  11.122  0.5409  0.5285  1.0410
14449TIP3   OH264761   5.489   4.607  14.852  0.2208 -0.6274  0.2547
14449TIP3    H164762   5.582   4.590  14.838  0.2954 -0.6647  0.7482
14449TIP3    H264763   5.456   4.525  14.891  0.0119 -0.5690  0.2020
14450TIP3   OH264764   1.038   4.225  16.675  0.4637 -0.2356 -0.1476
14450TIP3    H164765   1.018   4.319  16.669 -0.2929 -0.4575 -1.2197
14450TIP3    H264766   0.970   4.182  16.623 -0.1459 -1.5152  1.6142
14451TIP3   OH264767   0.582   1.354  14.189 -0.6858 -0.1967 -0.2922
14451TIP3    H164768   0.656   1.369  14.130 -0.2543  0.2956  0.3636
14451TIP3    H264769   0.581   1.259  14.203 -0.0978 -0.1898 -0.2059
14452TIP3   OH264770   0.390   3.930  15.697 -0.0486 -0.4194 -0.0996
14452TIP3    H164771   0.315   3.871  15.687 -1.1813  0.9158  0.1494
14452TIP3    H264772   0.385   3.988  15.620  0.7458 -0.3230 -0.0877
14453TIP3   OH264773   3.969   6.118  13.884 -0.9348  0.2138  0.1285
14453TIP3    H164774   3.894   6.169  13.853 -1.4131 -1.0141 -0.8355
14453TIP3    H264775   3.935   6.068  13.959  0.0731  2.7545  2.4267
14454TIP3   OH264776   4.866   0.202  15.260 -0.6269 -0.1238  0.3039
14454TIP3    H164777   4.859   0.136  15.191 -0.7656 -0.0303  0.2284
14454TIP3    H264778   4.959   0.226  15.262 -0.6988  0.2028 -0.1602
14455TIP3   OH264779   1.948   4.301   5.129 -0.3867  0.0952 -0.3742
14455TIP3    H164780   1.932   4.375   5.070  2.7083 -0.1920 -1.7781
14455TIP3    H264781   1.861   4.265   5.146 -1.9446  3.4599 -0.3179
14456TIP3   OH264782   4.273   1.393   2.141  0.1717  0.1209  0.2091
14456TIP3    H164783   4.334   1.456   2.103  0.1153 -0.7671 -1.4232
14456TIP3    H264784   4.324   1.313   2.149 -0.7746 -0.6700 -1.2957
14457TIP3   OH264785   4.841   3.647  11.173 -0.0817 -0.2197 -0.3950
14457TIP3    H164786   4.776   3.675  11.108 -0.0666  0.2811 -0.1989
14457TIP3    H264787   4.925   3.672  11.134 -0.0141 -0.7407 -0.5851
14458TIP3   OH264788   5.720   2.041  13.097 -0.5825 -0.2760  0.1461
14458TIP3    H164789   5.721   1.956  13.141  2.3349 -1.3786 -1.7585
14458TIP3    H264790   5.702   2.020  13.005 -0.7598  1.2819 -0.2045
14459TIP3   OH264791   0.972   1.305   1.717 -0.9131 -0.2542 -0.0815
14459TIP3    H164792   0.910   1.300   1.644  1.3729  2.4276 -2.4391
14459TIP3    H264793   1.006   1.215   1.725 -2.6308 -1.0315 -0.9268
14460TIP3   OH264794   4.929   6.691  16.504 -0.3328 -0.4401  0.0415
14460TIP3    H164795   4.992   6.733  16.562  1.9387 -0.5208 -2.2056
14460TIP3    H264796   4.956   6.600  16.500  0.0568 -0.2702 -1.7200
14461TIP3   OH264797   0.241   6.188   5.348 -0.0082  0.4027 -0.8872
14461TIP3    H164798   0.182   6.252   5.309 -1.1420 -1.0082 -1.5724
14461TIP3    H264799   0.196   6.161   5.429  1.2364  1.6213  0.2595
14462TIP3   OH264800   2.561   3.526   5.681  0.1532 -0.4601  0.5709
14462TIP3    H164801   2.638   3.575   5.653  1.3979 -1.7357  1.5924
14462TIP3    H264802   2.490   3.590   5.680  0.9558  0.4967 -1.4851
14463TIP3   OH264803   4.002   5.639   4.997 -0.0291  0.3809  0.4953
14463TIP3    H164804   4.040   5.552   5.011 -0.8190  0.0586  0.6558
14463TIP3    H264805   4.078   5.696   4.982  0.4515 -0.5399 -0.7927
14464TIP3   OH264806   2.984   5.467  13.915 -0.3318 -0.9000 -0.2744
14464TIP3    H164807   2.912   5.523  13.886 -0.1714 -0.8070 -0.4952
14464TIP3    H264808   3.002   5.496  14.004  0.4927  0.1727 -0.7617
14465TIP3   OH264809   0.957   3.103  13.244 -0.1098 -0.4568 -0.3799
14465TIP3    H164810   0.899   3.111  13.319  3.8037  1.4902  2.7713
14465TIP3    H264811   0.988   3.012  13.247 -0.7354 -0.6687 -0.2851
14466TIP3   OH264812   0.814   3.066   4.969 -0.5503  0.0884 -0.3309
14466TIP3    H164813   0.778   3.141   4.921 -1.5821 -1.5657 -2.3113
14466TIP3    H264814   0.740   3.031   5.018  0.4536  1.6606  2.5516
14467TIP3   OH264815   2.504   1.289   3.794 -0.7085 -0.4743 -0.4707
14467TIP3    H164816   2.570   1.341   3.840 -1.3866 -0.6804  0.7460
14467TIP3    H264817   2.480   1.344   3.719 -0.8782  0.6506  0.3804
14468TIP3   OH264818   3.484   5.293  14.010  0.2889 -0.0520  1.1250
14468TIP3    H164819   3.576   5.319  14.000 -0.4159  3.1007  1.8284
14468TIP3    H264820   3.434   5.371  13.986 -2.1070 -0.4869  4.0424
14469TIP3   OH264821   4.466   6.259   3.730 -0.0125  0.1993 -0.1074
14469TIP3    H164822   4.493   6.323   3.796 -1.1634 -0.0016  0.5896
14469TIP3    H264823   4.402   6.306   3.676 -0.4489 -0.1818  0.0688
14470TIP3   OH264824   0.976   3.473  15.278 -0.0655 -0.2326  0.2804
14470TIP3    H164825   0.985   3.438  15.367 -0.7206 -1.6807 -0.2069
14470TIP3    H264826   0.882   3.479  15.264  0.0230 -0.9432 -0.6652
14471TIP3   OH264827   2.490   1.290   3.129  0.5976 -0.8317  0.2676
14471TIP3    H164828   2.524   1.379   3.141  0.7542 -0.9641  0.8392
14471TIP3    H264829   2.515   1.244   3.209 -1.2838 -0.8296  0.8947
14472TIP3   OH264830   1.468   6.075  15.551 -0.1166 -0.5655 -0.0448
14472TIP3    H164831   1.551   6.032  15.572 -1.1246 -2.2462  0.7123
14472TIP3    H264832   1.401   6.015  15.583 -1.6833 -0.1836 -2.3775
14473TIP3   OH264833   1.982   1.337   5.425 -0.0685  0.4331  0.1832
14473TIP3    H164834   1.888   1.326   5.412 -0.3774  2.5061  0.2837
14473TIP3    H264835   1.989   1.397   5.499  1.3721 -0.3447  0.7153
14474TIP3   OH264836   3.138   1.152   6.279  0.0928  0.9838 -0.2312
14474TIP3    H164837   3.225   1.183   6.306  0.8424 -1.2508  0.1375
14474TIP3    H264838   3.081   1.173   6.353  0.8685  0.2779  0.5992
14475TIP3   OH264839   6.712   3.617   3.313  0.1866  0.2796  0.2470
14475TIP3    H164840   6.659   3.647   3.239  0.5923 -1.4136 -0.7837
14475TIP3    H264841   6.665   3.541   3.347 -0.4938  1.5661  2.3954
14476TIP3   OH264842   3.845   2.666  16.805  0.2940 -0.5788 -0.0936
14476TIP3    H164843   3.929   2.685  16.847  0.3276  0.4805 -0.6180
14476TIP3    H264844   3.811   2.751  16.778  0.3273 -1.1969 -2.3290
14477TIP3   OH264845   1.889   4.711   3.852  0.4625 -0.7591  1.1797
14477TIP3    H164846   1.875   4.803   3.830 -0.1676 -0.8783  1.0560
14477TIP3    H264847   1.952   4.713   3.924  0.0210 -0.1910  1.5685
14478TIP3   OH264848   4.178   6.363   6.475 -0.4480  0.1643 -0.0843
14478TIP3    H164849   4.241   6.368   6.403 -0.0079  1.9237  0.3652
14478TIP3    H264850   4.209   6.291   6.529 -0.7846 -1.1943 -1.6127
14479TIP3   OH264851   0.582   4.861  15.746 -0.5535 -0.1479 -0.4798
14479TIP3    H164852   0.564   4.789  15.686  1.4759  0.4592 -1.9113
14479TIP3    H264853   0.551   4.939  15.700 -1.7325  0.0466  0.5904
14480TIP3   OH264854   0.947   0.029   3.000  0.4712  0.0664  0.6625
14480TIP3    H164855   0.908  -0.058   2.993 -0.5043  0.3935  1.7119
14480TIP3    H264856   0.874   0.090   2.986  1.2476  0.7343 -0.6274
14481TIP3   OH264857   2.264   3.095   2.161  0.1244  0.3997 -0.2231
14481TIP3    H164858   2.316   3.077   2.083  0.7172  2.9215 -0.4743
14481TIP3    H264859   2.324   3.079   2.234 -0.9425 -3.8469  0.0289
14482TIP3   OH264860   4.802   1.756  14.573  0.0943 -0.3942 -0.0793
14482TIP3    H164861   4.812   1.830  14.513  2.4317  0.1560  0.9151
14482TIP3    H264862   4.850   1.684  14.530  0.8997 -0.2900  0.6382
14483TIP3   OH264863   1.370   5.666  16.438  0.2178 -0.1299 -0.1268
14483TIP3    H164864   1.419   5.649  16.519  1.8812 -0.6873 -1.2004
14483TIP3    H264865   1.436   5.661  16.369 -0.9322  1.5697 -1.4177
14484TIP3   OH264866   2.012   2.865   4.715  0.8180  0.1547  0.3583
14484TIP3    H164867   1.949   2.796   4.734  0.5172  1.0283  2.8678
14484TIP3    H264868   2.097   2.827   4.737  1.0585 -0.5212 -1.5914
14485TIP3   OH264869   0.803   3.973   0.198  0.3323 -0.1220  0.0577
14485TIP3    H164870   0.871   4.037   0.176 -1.8015  2.4940  0.5333
14485TIP3    H264871   0.741   3.978   0.125 -1.1253  0.2455  1.2822
14486TIP3   OH264872   0.730   5.378   1.800  0.9612  0.5304 -0.5030
14486TIP3    H164873   0.735   5.300   1.744  1.3460  0.5167 -0.4466
14486TIP3    H264874   0.669   5.436   1.754  1.6232  0.7111 -1.1775
14487TIP3   OH264875   2.661   5.902  16.743  0.6976 -0.0750  0.3985
14487TIP3    H164876   2.641   5.880  16.834 -0.2075  1.1853  0.5342
14487TIP3    H264877   2.621   5.832  16.692 -1.3915  0.7166  0.8470
14488TIP3   OH264878   4.569   6.669   1.299  0.0939  0.3197  0.4412
14488TIP3    H164879   4.507   6.680   1.371 -0.4515  1.8811 -0.2121
14488TIP3    H264880   4.616   6.589   1.320 -1.1120 -0.1012  1.7337
14489TIP3   OH264881   5.979   4.529  16.345 -0.1208 -0.1035 -0.1509
14489TIP3    H164882   5.924   4.465  16.299  2.5183 -2.8739  0.2504
14489TIP3    H264883   5.969   4.507  16.437  1.8800 -1.0175 -0.0881
14490TIP3   OH264884   2.683   4.188  13.854 -0.8409 -0.1614 -0.1708
14490TIP3    H164885   2.655   4.200  13.944  1.1732 -0.0272  0.4842
14490TIP3    H264886   2.636   4.110  13.824 -1.8074  0.0094  0.8583
14491TIP3   OH264887   2.713   0.546  17.182  0.6107  0.1680 -0.0447
14491TIP3    H164888   2.772   0.513  17.250  1.7308  0.0998 -1.0148
14491TIP3    H264889   2.770   0.561  17.106 -0.6644 -0.1373 -1.0983
14492TIP3   OH264890   2.977   3.358   2.714  0.3795 -0.2914  0.4087
14492TIP3    H164891   2.988   3.292   2.646  0.8073 -1.7728  1.8595
14492TIP3    H264892   2.887   3.388   2.705  0.3263 -0.7364 -0.5803
14493TIP3   OH264893   0.520   6.707   5.400  0.2405 -0.2418 -0.6712
14493TIP3    H164894   0.505   6.783   5.455  2.4133 -0.5546  0.4306
14493TIP3    H264895   0.592   6.732   5.343  1.6791 -1.7607  0.3924
14494TIP3   OH264896   1.497   3.487  13.521 -0.4103  0.0487 -0.0331
14494TIP3    H164897   1.458   3.563  13.566  0.2672  0.3801 -0.0005
14494TIP3    H264898   1.479   3.413  13.579 -0.3387  0.3231  0.3438
14495TIP3   OH264899   4.241   6.595  15.669 -0.2166 -0.0910 -0.0179
14495TIP3    H164900   4.212   6.517  15.716  0.2840  0.3725  1.0991
14495TIP3    H264901   4.160   6.637  15.640 -0.5116 -0.7239 -0.1184
14496TIP3   OH264902   6.586   0.424  11.188  0.2869  0.0613 -0.5897
14496TIP3    H164903   6.568   0.427  11.094 -1.0399 -0.0060 -0.3515
14496TIP3    H264904   6.579   0.332  11.211  1.3774 -0.0285 -0.5463
14497TIP3   OH264905   3.268   1.533  16.303  0.0734  0.3282  0.5363
14497TIP3    H164906   3.177   1.519  16.277  0.3786  1.6805 -1.4634
14497TIP3    H264907   3.310   1.447  16.293 -0.2779  0.3832 -1.7031
14498TIP3   OH264908   3.880   3.849  10.942 -0.1563  0.1568  0.4707
14498TIP3    H164909   3.951   3.853  10.878 -0.5472 -0.0180  0.0165
14498TIP3    H264910   3.893   3.926  10.998  1.0580 -0.4932  1.1223
14499TIP3   OH264911   0.261   1.521  12.324 -0.3136 -0.7103  0.1775
14499TIP3    H164912   0.256   1.597  12.266 -2.0161  1.2000  2.5767
14499TIP3    H264913   0.355   1.505  12.334  0.0774  0.6850 -0.9117
14500TIP3   OH264914   4.088   6.288  11.390  0.2427 -0.1072 -0.6830
14500TIP3    H164915   4.175   6.328  11.386  0.5167 -0.2758  1.9799
14500TIP3    H264916   4.103   6.202  11.428 -0.9925 -0.5646 -1.1762
14501TIP3   OH264917   5.592   6.490  12.755  0.4962  0.2918  0.5538
14501TIP3    H164918   5.527   6.421  12.765  1.6079 -1.1176 -1.2861
14501TIP3    H264919   5.562   6.539  12.678  0.3544  1.1380  1.1381
14502TIP3   OH264920   4.886   1.396  13.074 -0.1288 -0.6835 -0.6885
14502TIP3    H164921   4.830   1.425  13.145 -0.8086  0.3360 -1.5940
14502TIP3    H264922   4.850   1.439  12.996  3.1360  1.8670 -1.0349
14503TIP3   OH264923   0.575   2.880  16.690  0.1089 -0.3106  0.7643
14503TIP3    H164924   0.495   2.838  16.721 -0.9691  1.5142  0.6038
14503TIP3    H264925   0.631   2.883  16.767 -0.2526 -0.9505  1.0634
14504TIP3   OH264926   0.791   2.973  15.589 -0.0679  0.3609 -0.5432
14504TIP3    H164927   0.751   3.023  15.518  0.3534  1.0434 -0.3133
14504TIP3    H264928   0.884   2.997  15.586 -0.0049  0.2266  0.0891
14505TIP3   OH264929   2.569   4.288  12.190 -0.4494  0.5682 -0.1486
14505TIP3    H164930   2.641   4.346  12.213 -0.6696  0.4021  1.0351
14505TIP3    H264931   2.516   4.338  12.128  0.2637  0.9795 -0.4289
14506TIP3   OH264932   5.350   2.040  14.426 -0.4478 -0.2274  0.3193
14506TIP3    H164933   5.424   2.101  14.430  0.3244 -1.1438  0.3479
14506TIP3    H264934   5.289   2.071  14.493  0.2035  0.1699  0.7346
14507TIP3   OH264935   4.965   4.685  16.963 -0.1796  0.2135 -0.1439
14507TIP3    H164936   4.977   4.697  16.869  1.2933  0.4983  0.0565
14507TIP3    H264937   5.052   4.666  16.996 -0.4952  1.1303  1.3129
14508TIP3   OH264938   4.417   4.950   1.632 -0.0236  0.3227 -0.3645
14508TIP3    H164939   4.433   4.856   1.637  1.0339  0.4950 -0.2520
14508TIP3    H264940   4.457   4.976   1.549 -0.1836  0.6945 -0.3232
14509TIP3   OH264941   4.712   5.288  15.124  0.8106  0.3002 -0.8875
14509TIP3    H164942   4.616   5.283  15.117  0.8633 -0.8243 -0.9861
14509TIP3    H264943   4.736   5.210  15.175  1.8889 -1.0046 -3.2174
14510TIP3   OH264944   1.406   1.059  16.845 -0.3055 -0.3351 -0.3628
14510TIP3    H164945   1.469   1.047  16.916  0.4032 -0.6773 -1.0364
14510TIP3    H264946   1.394   1.154  16.840  0.6343 -0.2243 -0.6312
14511TIP3   OH264947   1.796   3.102  11.632  0.3734 -0.1083  0.4659
14511TIP3    H164948   1.751   3.062  11.558  0.2203  3.8686 -1.8651
14511TIP3    H264949   1.743   3.079  11.708 -2.0706 -0.6540 -1.2983
14512TIP3   OH264950   5.771   5.560   0.721  0.3955  0.6539 -0.2546
14512TIP3    H164951   5.728   5.529   0.801 -1.2244  1.7806 -0.6449
14512TIP3    H264952   5.864   5.562   0.744  0.0022  0.6073  1.4851
14513TIP3   OH264953   2.570   5.442   5.012  0.2803 -0.1078  0.2571
14513TIP3    H164954   2.629   5.466   4.940  0.5274 -0.2431  0.4131
14513TIP3    H264955   2.487   5.422   4.969  0.8914 -1.8469 -0.1806
14514TIP3   OH264956   2.432   3.933  12.450 -0.3248  0.4372  0.4678
14514TIP3    H164957   2.468   3.942  12.538 -0.8878 -0.6372  0.8291
14514TIP3    H264958   2.459   3.845  12.423 -0.8352  0.4599 -0.1217
14515TIP3   OH264959   3.289   6.420   3.071 -0.1842 -0.5432  0.1560
14515TIP3    H164960   3.300   6.514   3.081  0.7000 -0.5708 -0.3617
14515TIP3    H264961   3.209   6.410   3.020 -0.6308 -0.1055  0.7657
14516TIP3   OH264962   4.444   0.825   2.933 -0.4044  0.3916 -0.3730
14516TIP3    H164963   4.512   0.801   2.871  0.1577  0.7075  0.1175
14516TIP3    H264964   4.447   0.757   3.000  0.0441  0.8864  0.1215
14517TIP3   OH264965   4.841   1.443   0.451 -0.4608  0.4954  0.4418
14517TIP3    H164966   4.762   1.459   0.400  0.3057 -1.2132 -1.4407
14517TIP3    H264967   4.810   1.401   0.531 -1.5097  0.1109 -0.1469
14518TIP3   OH264968   0.847   4.605   3.322 -0.4676  0.2864 -0.2574
14518TIP3    H164969   0.756   4.606   3.352 -0.5749  0.7761 -0.6026
14518TIP3    H264970   0.898   4.625   3.400 -0.7733  2.0002 -0.4759
14519TIP3   OH264971   0.552   0.348  14.706 -1.0129  0.7909  0.0273
14519TIP3    H164972   0.465   0.378  14.679 -0.1318  0.1988 -4.0847
14519TIP3    H264973   0.536   0.303  14.790 -4.3042  2.1614  0.3270
14520TIP3   OH264974   1.052   0.052   0.023 -0.3175 -0.6513  0.0322
14520TIP3    H164975   1.120   0.107  -0.014  3.8058 -3.4823  2.5039
14520TIP3    H264976   0.970   0.092  -0.006  2.2642  3.2396 -3.0107
14521TIP3   OH264977   6.045   6.328  12.343  0.1166 -0.1765  0.0461
14521TIP3    H164978   6.031   6.242  12.382 -0.3625 -0.5095 -0.8186
14521TIP3    H264979   6.009   6.320  12.254 -0.7643  1.1876  0.2489
14522TIP3   OH264980   3.839   4.748  11.935 -0.0569 -0.5433  0.0784
14522TIP3    H164981   3.815   4.696  11.859  0.1432 -2.4597  1.2740
14522TIP3    H264982   3.768   4.733  11.998  0.6610 -0.4391  0.9297
14523TIP3   OH264983   4.139   5.626   3.264 -0.1161 -0.5756 -0.4274
14523TIP3    H164984   4.129   5.661   3.176  0.6045  0.6860 -0.0313
14523TIP3    H264985   4.060   5.574   3.278 -1.0110  0.5315 -1.2113
14524TIP3   OH264986   2.647   1.069  15.068 -0.9914  0.1592  0.6137
14524TIP3    H164987   2.578   1.003  15.076  0.0159 -1.7732 -3.5540
14524TIP3    H264988   2.709   1.030  15.006  1.8732  3.3828  1.1993
14525TIP3   OH264989   5.023   4.497  11.280 -0.0352 -0.0233  0.1216
14525TIP3    H164990   5.041   4.564  11.214 -0.4373  0.0155  0.0501
14525TIP3    H264991   5.108   4.483  11.323 -0.0398  0.8912  0.4709
14526TIP3   OH264992   0.152   1.109   0.842  0.1318  0.1780 -0.7227
14526TIP3    H164993   0.195   1.039   0.892 -0.2852  0.4583  0.0371
14526TIP3    H264994   0.223   1.170   0.822  1.1410 -1.7749 -3.8853
14527TIP3   OH264995   2.035   0.041  14.081 -0.1688  0.0389  0.3007
14527TIP3    H164996   2.051   0.007  14.169  1.0637 -0.9413 -0.2817
14527TIP3    H264997   1.948   0.007  14.058 -0.1162 -0.4477  0.8001
14528TIP3   OH264998   1.890   3.246  12.302  0.0385 -0.6892 -0.0393
14528TIP3    H164999   1.887   3.341  12.308 -1.4379 -0.5517 -1.9370
14528TIP3    H265000   1.805   3.217  12.337  0.8721 -1.4262  1.4856
14529TIP3   OH265001   4.488   1.055  16.695  0.2360 -0.0759  0.6649
14529TIP3    H165002   4.554   1.075  16.628 -0.8230  0.7092 -0.1766
14529TIP3    H265003   4.404   1.071  16.652 -0.4864  0.0165  2.0483
14530TIP3   OH265004   0.642   3.682   2.877 -0.1026 -0.3639 -0.5568
14530TIP3    H165005   0.686   3.602   2.906  2.0689 -0.1730 -2.9222
14530TIP3    H265006   0.658   3.684   2.782 -0.1994  2.7981 -0.5921
14531TIP3   OH265007   1.381   6.386  12.041 -0.0138 -0.4407 -0.2255
14531TIP3    H165008   1.451   6.333  12.004  0.6072  0.2833 -0.1186
14531TIP3    H265009   1.418   6.474  12.046 -1.1218  0.0659 -0.6830
14532TIP3   OH265010   5.843   0.896  15.465 -0.1376 -0.8648  0.4268
14532TIP3    H165011   5.871   0.811  15.430 -0.4698 -1.1218  0.7846
14532TIP3    H265012   5.868   0.893  15.557  2.6067  0.6053 -0.1569
14533TIP3   OH265013   2.007   4.055  16.389 -0.2668  0.4629  0.3477
14533TIP3    H165014   2.087   4.003  16.394 -0.4081  0.0344 -1.2470
14533TIP3    H265015   1.936   3.990  16.393 -0.5155  0.7451  0.6214
14534TIP3   OH265016   3.229   5.152  14.076  0.2429  0.4249  0.7431
14534TIP3    H165017   3.305   5.203  14.105  0.2433  0.2276  1.0917
14534TIP3    H265018   3.225   5.167  13.981  0.1030  1.2700  0.8683
14535TIP3   OH265019   2.556   0.523  15.959  0.0575  0.3608  0.1445
14535TIP3    H165020   2.500   0.445  15.965 -0.5673  0.8558  1.0216
14535TIP3    H265021   2.495   0.596  15.957  0.6248  0.8287 -1.1215
14536TIP3   OH265022   5.021   0.719  13.398 -0.4632  0.4534  0.7190
14536TIP3    H165023   4.943   0.746  13.447 -0.6751  2.5138 -0.6109
14536TIP3    H265024   4.989   0.652  13.338 -1.2642  1.2810  0.1790
14537TIP3   OH265025   3.271   1.069   0.957 -0.8307 -0.4958 -0.4256
14537TIP3    H165026   3.357   1.103   0.981 -0.7788  0.1953 -1.5560
14537TIP3    H265027   3.211   1.111   1.019 -0.5366  0.1843 -0.5977
14538TIP3   OH265028   3.688   3.553   6.460  0.5872 -0.3780 -0.0171
14538TIP3    H165029   3.645   3.628   6.502 -1.2131 -0.9852 -0.6985
14538TIP3    H265030   3.759   3.530   6.520  0.4950  1.1839  0.7482
14539TIP3   OH265031   0.303   3.648   4.201 -0.0521  0.2039 -0.3119
14539TIP3    H165032   0.325   3.705   4.128  0.6312 -0.5991 -0.7469
14539TIP3    H265033   0.247   3.581   4.164  0.3726 -0.2625 -0.1276
14540TIP3   OH265034   5.167   3.047  16.468  0.1303 -0.0450 -0.1727
14540TIP3    H165035   5.248   3.095  16.453  0.2669  0.2066  1.1811
14540TIP3    H265036   5.193   2.955  16.465  0.2553  0.0131 -0.8225
14541TIP3   OH265037   1.844   5.354  13.892 -0.0918  0.0187 -0.0071
14541TIP3    H165038   1.830   5.272  13.846 -0.0856 -0.4437  0.8010
14541TIP3    H265039   1.757   5.379  13.924 -0.2732  0.8479 -1.0853
14542TIP3   OH265040   5.883   0.056  15.122 -0.3387  0.4160 -0.0157
14542TIP3    H165041   5.897   0.129  15.182 -1.0810 -0.0644  0.7699
14542TIP3    H265042   5.898   0.093  15.035 -0.4737  1.4368  0.3830
14543TIP3   OH265043   2.040   6.520   2.730  0.1605 -0.3106 -1.1870
14543TIP3    H165044   2.130   6.551   2.737 -0.5249  1.8533 -1.2082
14543TIP3    H265045   1.999   6.545   2.813 -0.5800 -0.7381 -1.4067
14544TIP3   OH265046   6.298   6.619  11.794 -0.4541 -0.3569  0.5320
14544TIP3    H165047   6.256   6.679  11.856 -2.4864 -2.5801  1.4503
14544TIP3    H265048   6.347   6.558  11.848  0.7148 -0.2333 -0.3280
14545TIP3   OH265049   3.794   2.209  11.949  0.1057  0.0668 -0.6817
14545TIP3    H165050   3.848   2.242  11.877  0.9185  0.0816 -0.0914
14545TIP3    H265051   3.858   2.182  12.015 -0.6253  0.5317  0.2377
14546TIP3   OH265052   6.170   1.100  16.603 -0.0118  0.6742  0.3688
14546TIP3    H165053   6.110   1.148  16.660  1.3425  1.5710  1.0910
14546TIP3    H265054   6.161   1.143  16.518 -0.0613  1.0987  0.5822
14547TIP3   OH265055   3.208   4.646   4.575  0.5076 -0.0918 -0.1664
14547TIP3    H165056   3.172   4.649   4.487 -0.2938  1.3257  0.1968
14547TIP3    H265057   3.302   4.633   4.562  0.5334  1.0615 -1.2686
14548TIP3   OH265058   1.389   4.994  11.996  0.4088 -0.0415 -0.4594
14548TIP3    H165059   1.453   4.924  11.980 -0.4883 -1.2349  0.9057
14548TIP3    H265060   1.340   5.001  11.914  1.1263 -0.3602 -0.9226
14549TIP3   OH265061   4.730   1.945   6.037 -0.1669  0.6079 -0.3464
14549TIP3    H165062   4.690   1.915   5.956  1.6936  2.2898 -1.9978
14549TIP3    H265063   4.817   1.905   6.038 -0.2447  0.4170  0.9559
14550TIP3   OH265064   4.127   4.921   5.421 -0.0088  0.0799 -0.1692
14550TIP3    H165065   4.146   4.974   5.499  1.1630 -0.6773  0.0827
14550TIP3    H265066   4.122   4.831   5.454 -1.1592 -0.0791 -0.7278
14551TIP3   OH265067   3.723   5.014   5.189  0.3785 -0.1365  0.0681
14551TIP3    H165068   3.631   5.025   5.165  0.4144 -0.0974 -0.0480
14551TIP3    H265069   3.770   5.007   5.106  0.4043 -0.7980  0.1303
14552TIP3   OH265070   4.890   3.976   3.275 -0.2959  0.3676 -0.3297
14552TIP3    H165071   4.808   3.969   3.324 -0.0932  1.3183  0.1694
14552TIP3    H265072   4.955   4.003   3.340 -0.0412  1.7772 -1.1162
14553TIP3   OH265073   2.935   5.462   6.378 -0.2296  0.8533 -0.4800
14553TIP3    H165074   2.939   5.549   6.418 -0.3013 -0.1068  1.7120
14553TIP3    H265075   2.841   5.441   6.376 -0.0869 -0.1197  1.2472
14554TIP3   OH265076   6.542   4.299  13.267 -0.0317 -0.0460 -0.5705
14554TIP3    H165077   6.509   4.243  13.337  1.3821  0.7109  0.7749
14554TIP3    H265078   6.609   4.246  13.223  1.9074  0.7413  1.2320
14555TIP3   OH265079   1.534   6.152  11.979  0.1480 -0.0776  0.4469
14555TIP3    H165080   1.553   6.131  12.070 -2.0406 -1.4772  0.6574
14555TIP3    H265081   1.542   6.069  11.932  0.8389  0.5426 -0.5633
14556TIP3   OH265082   0.811   4.599  16.484 -0.2945 -0.3587  0.1484
14556TIP3    H165083   0.892   4.567  16.445 -0.6597 -1.7496  0.4665
14556TIP3    H265084   0.839   4.667  16.546  0.8388 -2.0423  1.5995
14557TIP3   OH265085   2.605   1.729  15.422 -0.3035  0.0512  0.2689
14557TIP3    H165086   2.615   1.644  15.380  0.6457  0.3823 -0.2041
14557TIP3    H265087   2.664   1.787  15.373 -0.0787  0.7212  1.3002
14558TIP3   OH265088   1.881   4.650  11.263  0.6487  0.2287  0.8118
14558TIP3    H165089   1.905   4.595  11.188  0.5476  0.7085  0.4210
14558TIP3    H265090   1.851   4.588  11.329  1.0227 -0.2257  0.5655
14559TIP3   OH265091   5.527   5.480  12.092 -0.2590  0.4527 -0.1400
14559TIP3    H165092   5.483   5.503  12.010 -1.6677 -1.3453  0.0346
14559TIP3    H265093   5.538   5.385  12.087 -1.1709  0.1685  2.0905
14560TIP3   OH265094   2.959   5.710   3.078  0.0868  0.2172  0.1399
14560TIP3    H165095   2.967   5.805   3.078 -0.0009  0.2227  0.7397
14560TIP3    H265096   2.988   5.683   3.165  1.6312 -0.4292 -0.5457
14561TIP3   OH265097   5.606   1.197  13.521  0.5077  0.0248  0.3314
14561TIP3    H165098   5.574   1.111  13.547 -0.9052 -0.1771 -1.7835
14561TIP3    H265099   5.693   1.203  13.559 -0.4520 -1.1271  2.9083
14562TIP3   OH265100   1.605   5.751  12.319 -0.5006  0.5202  0.5528
14562TIP3    H165101   1.521   5.726  12.358 -0.8676  3.6549  2.1290
14562TIP3    H265102   1.668   5.744  12.392  0.8019 -2.1439 -0.6952
14563TIP3   OH265103   1.446   6.315  11.539  0.4013 -0.3618 -0.0637
14563TIP3    H165104   1.380   6.381  11.517  3.0981  2.6190  0.1127
14563TIP3    H265105   1.504   6.313  11.463  0.9466 -1.7905  0.3662
14564TIP3   OH265106   1.031   2.786   5.853 -0.1518  0.1330  0.0816
14564TIP3    H165107   0.965   2.787   5.923  1.1758  1.8112  1.3663
14564TIP3    H265108   1.036   2.876   5.823  0.2053 -0.3373 -1.3674
14565TIP3   OH265109   1.705   5.133   0.794 -0.6006  0.0047 -0.5357
14565TIP3    H165110   1.794   5.104   0.814  0.0430  1.2968 -1.3706
14565TIP3    H265111   1.715   5.189   0.717 -1.9255  1.3439  0.2087
14566TIP3   OH265112   6.731   0.984  11.197 -0.3350  0.1082 -0.2421
14566TIP3    H165113   6.668   0.953  11.132 -0.5977 -0.5188  0.3021
14566TIP3    H265114   6.692   0.961  11.281 -0.0049  0.9270  0.1448
14567TIP3   OH265115   1.628   4.430  16.940 -0.1631 -0.1494  0.0198
14567TIP3    H165116   1.689   4.478  16.885 -0.7592 -0.8093 -1.2681
14567TIP3    H265117   1.676   4.352  16.967 -0.0567 -0.1188 -0.0810
14568TIP3   OH265118   3.695   1.702  12.502 -0.3497 -0.4714 -0.5013
14568TIP3    H165119   3.662   1.769  12.562 -2.3857 -0.9727 -1.0017
14568TIP3    H265120   3.625   1.690  12.438  1.4595 -0.4863 -2.5995
14569TIP3   OH265121   6.358   6.600  13.781 -0.3648  0.4824 -0.6679
14569TIP3    H165122   6.433   6.622  13.726 -1.7942  1.6968 -2.2681
14569TIP3    H265123   6.315   6.528  13.735 -0.1774 -0.2493  0.2710
14570TIP3   OH265124   1.390   1.883   5.946  0.1832 -0.5034  0.1614
14570TIP3    H165125   1.364   1.955   6.003  1.2383  0.1661 -0.1682
14570TIP3    H265126   1.450   1.830   5.999  2.9485  1.3389 -0.9200
14571TIP3   OH265127   4.625   0.317  13.772 -0.4003  0.1687  0.5459
14571TIP3    H165128   4.641   0.384  13.706 -2.8728  0.8444  0.5354
14571TIP3    H265129   4.568   0.253  13.729 -2.0993  0.6532  1.9554
14572TIP3   OH265130   6.069   1.168  16.052  0.5894 -0.4424 -0.3092
14572TIP3    H165131   6.099   1.257  16.036  0.9285 -0.5812 -0.4418
14572TIP3    H265132   6.070   1.126  15.966 -0.8512 -0.1886 -0.4811
14573TIP3   OH265133   4.425   3.613   4.030 -0.1831  0.3413 -0.2106
14573TIP3    H165134   4.482   3.570   3.967 -1.2407 -1.2505 -0.1546
14573TIP3    H265135   4.342   3.625   3.983  0.0335  2.2276 -0.1661
14574TIP3   OH265136   2.720   4.381  10.900  0.1151 -0.3417 -0.2706
14574TIP3    H165137   2.726   4.413  10.989 -0.5205  0.9489 -0.6745
14574TIP3    H265138   2.811   4.361  10.875  0.3109 -0.5351  0.5874
14575TIP3   OH265139   3.276   3.745   2.858  0.2770  0.0907 -0.0743
14575TIP3    H165140   3.289   3.766   2.950  2.5094  1.0587 -0.5550
14575TIP3    H265141   3.314   3.819   2.811 -1.6351  0.0684 -1.8007
14576TIP3   OH265142   4.671   0.851   2.571  0.1187 -0.0030  0.3669
14576TIP3    H165143   4.652   0.780   2.632  1.2324  1.2565  2.2834
14576TIP3    H265144   4.763   0.836   2.545 -0.4157 -0.6813 -1.3047
14577TIP3   OH265145   0.389   2.231   3.986 -0.1507  0.3165 -0.0015
14577TIP3    H165146   0.313   2.186   3.949 -0.3499 -0.3478  1.1500
14577TIP3    H265147   0.462   2.204   3.930 -0.6223  0.2735 -0.6081
14578TIP3   OH265148   1.060   0.731  12.667  0.1237  0.1325 -0.0476
14578TIP3    H165149   1.134   0.764  12.616 -0.5494 -0.2445 -1.3261
14578TIP3    H265150   0.988   0.790  12.645 -0.6727 -1.1592 -1.0989
14579TIP3   OH265151   5.421   4.894  15.913  0.1920 -0.4444  0.3403
14579TIP3    H165152   5.496   4.852  15.870  2.0544  1.7284  1.2505
14579TIP3    H265153   5.358   4.908  15.842  1.7689  0.0118 -1.0449
14580TIP3   OH265154   4.332   4.717  16.851 -0.0880  0.6602 -0.6847
14580TIP3    H165155   4.249   4.676  16.827 -1.2441  1.1521  2.0944
14580TIP3    H265156   4.314   4.811  16.846 -0.0257  0.7691  0.8235
14581TIP3   OH265157   3.068   4.392  14.244  0.0291 -0.4161 -0.3876
14581TIP3    H165158   3.101   4.425  14.160 -1.1785  1.6159 -0.1569
14581TIP3    H265159   2.998   4.332  14.220 -0.2254  0.0574 -0.8676
14582TIP3   OH265160   6.070   6.483   0.783 -1.0456 -0.3850  0.6468
14582TIP3    H165161   6.005   6.553   0.780  0.1069  0.7098  0.5371
14582TIP3    H265162   6.128   6.507   0.855  0.6528 -0.0299 -0.7801
14583TIP3   OH265163   3.150   1.047   0.117  0.1006  0.1131 -0.0879
14583TIP3    H165164   3.072   1.090   0.083  0.6428  0.7419 -0.5746
14583TIP3    H265165   3.211   1.048   0.043  0.2834 -1.1095  0.0304
14584TIP3   OH265166   4.870   0.504  15.876 -0.5767 -0.4669  0.1330
14584TIP3    H165167   4.788   0.477  15.834  0.4465 -1.0302 -1.5983
14584TIP3    H265168   4.914   0.422  15.897  0.0458 -0.1639  0.0201
14585TIP3   OH265169   4.914   5.521   3.827  0.3477  0.2071  0.3568
14585TIP3    H165170   4.903   5.608   3.864 -1.8379 -0.7401  2.1188
14585TIP3    H265171   4.969   5.475   3.890  0.6510 -0.0013 -0.0562
14586TIP3   OH265172   4.202   5.190   0.500  0.6291  0.4132  0.5249
14586TIP3    H165173   4.153   5.193   0.418 -0.2849  0.6833  1.0756
14586TIP3    H265174   4.174   5.268   0.548  1.3611  0.4011  0.9918
14587TIP3   OH265175   4.532   1.633  15.912  0.2511 -0.0773 -0.1764
14587TIP3    H165176   4.571   1.714  15.879 -1.3996  0.9644  0.3449
14587TIP3    H265177   4.607   1.575  15.924  1.3311  0.8146 -2.0035
14588TIP3   OH265178   5.497   3.799  17.156 -0.7142  0.3608  0.2773
14588TIP3    H165179   5.453   3.795  17.240 -1.5752  0.7612 -0.1456
14588TIP3    H265180   5.486   3.711  17.120 -2.2379  0.7692 -0.3379
14589TIP3   OH265181   0.340   5.964  12.559  0.1348  0.1446 -0.3504
14589TIP3    H165182   0.424   6.010  12.558  1.6436 -2.2166  2.5775
14589TIP3    H265183   0.354   5.887  12.503 -0.6629  0.5635 -1.1520
14590TIP3   OH265184   0.772   1.632  12.986  0.5263 -0.2671  0.1852
14590TIP3    H165185   0.761   1.603  13.077  3.1473  0.9555  0.9803
14590TIP3    H265186   0.796   1.724  12.992 -0.3629  0.1550 -1.8522
14591TIP3   OH265187   3.180   3.273   1.086  0.0344  0.3597 -0.1140
14591TIP3    H165188   3.121   3.232   1.150 -0.6995 -0.8195 -1.5047
14591TIP3    H265189   3.131   3.349   1.055 -0.1384  0.2084 -0.2119
14592TIP3   OH265190   1.752   5.486   1.520 -0.3902 -0.1146  0.1856
14592TIP3    H165191   1.818   5.432   1.565 -0.1270 -0.3679 -0.4810
14592TIP3    H265192   1.668   5.448   1.545 -0.1946 -1.0740 -0.5422
14593TIP3   OH265193   0.434   3.322  11.361 -0.2509 -0.2339  0.1399
14593TIP3    H165194   0.372   3.339  11.290 -0.4781  0.8124  0.5668
14593TIP3    H265195   0.467   3.234  11.344 -1.1467 -0.4366 -0.6277
14594TIP3   OH265196   0.870   0.251   4.088 -0.7094 -0.2944 -0.3339
14594TIP3    H165197   0.895   0.344   4.096 -0.8218 -0.1882 -1.1528
14594TIP3    H265198   0.883   0.216   4.176  0.3271  0.2593 -0.2380
14595TIP3   OH265199   5.677   2.574   0.624  0.1733 -0.5020  0.3081
14595TIP3    H165200   5.619   2.596   0.696  1.0944  1.0267  0.6320
14595TIP3    H265201   5.734   2.505   0.659  0.2145 -0.2000  0.8452
14596TIP3   OH265202   3.021   3.536   3.871 -0.4743  0.6108 -0.5923
14596TIP3    H165203   3.036   3.462   3.929 -0.7463 -1.0257 -2.5149
14596TIP3    H265204   3.002   3.609   3.930  2.7316 -0.0554  1.5308
14597TIP3   OH265205   1.283   0.949   0.346 -0.1663  0.0137  0.5858
14597TIP3    H165206   1.237   0.873   0.383 -0.1733 -0.4681 -0.3906
14597TIP3    H265207   1.313   0.998   0.423  0.5747 -1.4141  1.2593
14598TIP3   OH265208   3.706   6.009  11.786 -0.1614 -0.3486 -0.4517
14598TIP3    H165209   3.640   6.029  11.720 -1.3251  3.7084  1.6529
14598TIP3    H265210   3.768   6.082  11.782  1.0169 -1.1503  1.4619
14599TIP3   OH265211   5.668   3.482   2.177  0.0242  0.6753  0.1565
14599TIP3    H165212   5.683   3.555   2.117 -0.2536  1.5329  1.1010
14599TIP3    H265213   5.611   3.423   2.129  1.7841  0.1106 -1.3568
14600TIP3   OH265214   6.344   2.207  11.348 -0.3095  0.8756  0.4853
14600TIP3    H165215   6.303   2.248  11.272  0.4240  2.5601  0.9523
14600TIP3    H265216   6.271   2.166  11.395 -1.1550  1.9261  0.1409
14601TIP3   OH265217   1.762   3.044   5.528 -0.4074  0.0685 -0.4838
14601TIP3    H165218   1.827   3.043   5.457 -0.5845 -1.4977 -0.6591
14601TIP3    H265219   1.688   3.094   5.492  1.0440  2.8551  0.1197
14602TIP3   OH265220   5.593   6.115  16.696 -0.4193 -0.2002  0.4217
14602TIP3    H165221   5.575   6.026  16.665 -1.1617 -0.2927  1.0963
14602TIP3    H265222   5.673   6.140  16.650  0.7642 -1.8332  1.4815
14603TIP3   OH265223   0.611   4.773   0.781 -0.1143  0.5839 -0.0545
14603TIP3    H165224   0.626   4.830   0.856  3.2130 -0.7698  0.4801
14603TIP3    H265225   0.611   4.685   0.818 -1.7311  0.0154 -1.2973
14604TIP3   OH265226   5.450   2.030  14.113  0.2187 -0.3215  0.0507
14604TIP3    H165227   5.521   1.990  14.163 -1.1394 -1.9061  0.8099
14604TIP3    H265228   5.386   2.057  14.178 -1.4568 -2.1546 -0.7007
14605TIP3   OH265229   2.922   1.554  17.203  0.0962 -0.0861 -0.0076
14605TIP3    H165230   2.942   1.525  17.292  2.0122  0.8185 -0.1013
14605TIP3    H265231   2.918   1.650  17.210  0.0286 -0.0263 -0.8615
14606TIP3   OH265232   3.054   1.881  11.717 -0.0183  0.1386 -0.1797
14606TIP3    H165233   3.052   1.977  11.722  0.6766  0.1484 -0.1016
14606TIP3    H265234   3.053   1.862  11.623  1.8471  0.2764 -0.2558
14607TIP3   OH265235   2.834   0.817   3.396 -0.9172  0.1362 -0.0530
14607TIP3    H165236   2.775   0.838   3.324 -1.0965  0.5169  0.1948
14607TIP3    H265237   2.876   0.735   3.372 -0.2037  0.7742 -1.0705
14608TIP3   OH265238   5.426   1.466   5.599  0.0768  0.0135 -0.2099
14608TIP3    H165239   5.409   1.483   5.692 -2.2430 -2.0021 -0.1656
14608TIP3    H265240   5.511   1.507   5.583  0.0223  1.4298  2.4897
14609TIP3   OH265241   1.461   0.101  14.825 -0.0081  0.5508  0.1161
14609TIP3    H165242   1.393   0.134  14.883 -0.9052  0.5595 -0.9023
14609TIP3    H265243   1.470   0.168  14.757 -1.1083 -0.7672 -1.3909
14610TIP3   OH265244   5.173   1.197  16.548  0.0286  0.0135  0.1892
14610TIP3    H165245   5.150   1.261  16.616  1.6961 -0.7375  1.5426
14610TIP3    H265246   5.146   1.113  16.585  0.5644 -0.3575 -0.2520
14611TIP3   OH265247   2.933   2.701  16.194  0.0845  0.1385 -0.2846
14611TIP3    H165248   2.966   2.667  16.277  0.9649  1.8259  0.0914
14611TIP3    H265249   2.843   2.669  16.189  0.5207 -1.2897  0.5567
14612TIP3   OH265250   2.958   6.681   2.628  0.5977  0.3125 -0.2950
14612TIP3    H165251   2.925   6.712   2.712 -1.8153 -2.0134 -0.2349
14612TIP3    H265252   2.970   6.761   2.576 -1.7667  1.6080  0.9642
14613TIP3   OH265253   5.710   4.003   5.916 -0.2838 -0.3103  0.0344
14613TIP3    H165254   5.780   4.005   5.982 -0.2465  1.6987  0.0125
14613TIP3    H265255   5.695   4.096   5.895 -1.7549 -0.7992 -1.2451
14614TIP3   OH265256   3.070   1.898  12.078  0.0248  0.4126 -0.4046
14614TIP3    H165257   3.139   1.884  12.143  0.5415  1.6085 -0.6772
14614TIP3    H265258   3.058   1.813  12.037  0.7417 -0.0068  0.2259
14615TIP3   OH265259   4.719   5.173   1.461  0.3580  0.0276 -0.1440
14615TIP3    H165260   4.681   5.234   1.524 -0.2007  0.4799 -0.9021
14615TIP3    H265261   4.803   5.213   1.437  1.8774 -1.4506  2.2652
14616TIP3   OH265262   3.605   0.418  10.654 -0.3442  0.1884 -0.5483
14616TIP3    H165263   3.575   0.508  10.644 -0.3724  0.1629 -0.6979
14616TIP3    H265264   3.656   0.401  10.575 -0.0342  0.1933 -0.3517
14617TIP3   OH265265   2.217   0.477   4.510 -0.7229  0.2994  0.7661
14617TIP3    H165266   2.154   0.405   4.515 -0.6255  0.1916  0.4626
14617TIP3    H265267   2.218   0.514   4.599 -1.2117  0.3051  0.7740
14618TIP3   OH265268   6.606   4.069   6.282 -0.7680 -0.0900 -0.2412
14618TIP3    H165269   6.592   4.001   6.348  0.6085 -0.9666 -0.8177
14618TIP3    H265270   6.571   4.033   6.202 -3.1571  1.2865  0.0853
14619TIP3   OH265271   0.326   5.286  12.416 -0.8492 -0.0070  0.0845
14619TIP3    H165272   0.276   5.333  12.483 -1.8835  0.0287 -0.6781
14619TIP3    H265273   0.403   5.340  12.400 -1.5019  0.9055 -0.0390
14620TIP3   OH265274   6.625   0.488  14.740 -0.4229  0.2100 -0.1812
14620TIP3    H165275   6.552   0.426  14.741 -0.4093  0.1974  0.4985
14620TIP3    H265276   6.652   0.496  14.831  0.5166  0.1192 -0.4339
14621TIP3   OH265277   5.829   1.994  15.331 -0.0965 -0.1335 -0.4691
14621TIP3    H165278   5.849   2.088  15.335 -0.1605 -0.1566  0.5965
14621TIP3    H265279   5.800   1.972  15.419 -0.0472 -1.1706 -0.7032
14622TIP3   OH265280   2.312   5.486  12.585 -0.3127 -0.3608 -0.3962
14622TIP3    H165281   2.304   5.403  12.632 -0.9641 -0.5729 -0.8574
14622TIP3    H265282   2.263   5.472  12.504 -0.7592  0.6035 -0.3067
14623TIP3   OH265283   1.745   3.131  10.799 -0.3632  0.3982  0.0398
14623TIP3    H165284   1.804   3.121  10.724  1.0609 -0.5971  1.2461
14623TIP3    H265285   1.784   3.201  10.852 -0.5752  0.1167  0.5748
14624TIP3   OH265286   6.169   0.348  11.915 -0.3201 -0.2343 -0.2325
14624TIP3    H165287   6.242   0.350  11.853 -0.4109  1.4509 -0.3298
14624TIP3    H265288   6.129   0.262  11.903 -0.7346  0.2549 -3.0086
14625TIP3   OH265289   5.617   2.472   4.234  0.1101 -0.4346 -0.0323
14625TIP3    H165290   5.691   2.500   4.287  1.8410 -2.3239 -1.3120
14625TIP3    H265291   5.541   2.516   4.273  1.4546 -0.6990  3.1278
14626TIP3   OH265292   5.593   5.550  14.064  0.6831 -0.3349  0.0655
14626TIP3    H165293   5.566   5.592  14.146 -0.3200  0.5947 -0.7167
14626TIP3    H265294   5.683   5.523  14.079  0.0200 -1.6999  2.0746
14627TIP3   OH265295   2.617   2.185  11.999 -0.0491  0.0990  0.3037
14627TIP3    H165296   2.678   2.195  11.926 -0.6418  0.3445 -0.1532
14627TIP3    H265297   2.670   2.143  12.067 -0.0600 -2.2522 -1.0298
14628TIP3   OH265298   3.731   5.311  16.951  0.5515  0.2583  0.5230
14628TIP3    H165299   3.705   5.237  17.006  0.0662 -0.1485 -0.2376
14628TIP3    H265300   3.705   5.389  17.002 -0.5219 -0.1150  0.5778
14629TIP3   OH265301   0.759   4.484  11.964 -0.1017 -0.0222  0.2563
14629TIP3    H165302   0.695   4.523  11.904 -0.6895 -2.8901 -1.1636
14629TIP3    H265303   0.844   4.508  11.928 -0.3914  1.0904  0.2719
14630TIP3   OH265304   4.806   1.776  12.657  0.4613  0.1269 -0.3749
14630TIP3    H165305   4.727   1.812  12.698 -0.3484 -0.9038 -0.9760
14630TIP3    H265306   4.773   1.713  12.593  1.8252 -2.1722  1.0728
14631TIP3   OH265307   2.595   2.913   6.781 -0.0406  0.1911  0.0494
14631TIP3    H165308   2.602   2.979   6.850 -0.3940 -0.8030  1.0699
14631TIP3    H265309   2.576   2.963   6.702  1.6439  1.4864  0.3891
14632TIP3   OH265310   1.093   2.170   1.152 -0.0582 -0.5905  1.1657
14632TIP3    H165311   1.065   2.100   1.093 -1.4035  2.7160 -2.6466
14632TIP3    H265312   1.016   2.228   1.158  1.5205  1.5217  2.4957
14633TIP3   OH265313   4.006   1.868   2.823 -0.1193  0.5176 -0.1207
14633TIP3    H165314   4.053   1.793   2.860 -1.7089 -0.5008 -0.0471
14633TIP3    H265315   3.946   1.830   2.759 -1.3606  1.6578  0.3153
14634TIP3   OH265316   0.608   1.831   2.809  0.5249 -0.1545 -0.1121
14634TIP3    H165317   0.625   1.919   2.775 -0.9403  0.4240  0.5938
14634TIP3    H265318   0.641   1.773   2.740  0.7284  0.9448 -0.9816
14635TIP3   OH265319   2.158   0.764   2.465  0.1311  0.3203 -0.5786
14635TIP3    H165320   2.168   0.858   2.451 -1.4953  0.4378 -1.1918
14635TIP3    H265321   2.204   0.746   2.547  0.6306  1.6072 -0.5663
14636TIP3   OH265322   0.877   0.345  12.577  0.0545  0.3794  0.0326
14636TIP3    H165323   0.845   0.382  12.495  2.0382  1.6699 -0.2353
14636TIP3    H265324   0.844   0.404  12.645  0.1912  0.5593 -0.0546
14637TIP3   OH265325   1.365   0.100  11.096  0.1719 -0.2640  0.0307
14637TIP3    H165326   1.335   0.147  11.174 -1.7404  0.7963 -1.2597
14637TIP3    H265327   1.461   0.110  11.097 -0.0107  1.9025  0.9148
14638TIP3   OH265328   0.177   0.330   1.995  0.3029  0.3519  0.4174
14638TIP3    H165329   0.134   0.260   2.044 -0.7595  0.4987 -0.2750
14638TIP3    H265330   0.199   0.291   1.911 -1.9144  1.2834 -0.6699
14639TIP3   OH265331   4.887   2.990  16.511  0.2377  0.1123  0.1617
14639TIP3    H165332   4.975   3.025  16.524  0.5440 -1.2133  2.1214
14639TIP3    H265333   4.836   3.063  16.476  2.1208  0.8808 -1.0925
14640TIP3   OH265334   2.551   2.207   0.783  0.3931  0.4240  0.3499
14640TIP3    H165335   2.488   2.193   0.854  0.1172 -0.1405  0.0082
14640TIP3    H265336   2.498   2.203   0.703  1.0049 -1.2082 -0.0144
14641TIP3   OH265337   0.917   5.412   0.710  0.1741 -0.1312  0.7450
14641TIP3    H165338   0.970   5.333   0.711  3.1886  1.6951 -0.0751
14641TIP3    H265339   0.878   5.416   0.797  1.1441 -1.7749  1.2948
14642TIP3   OH265340   2.909   5.178   0.016  0.0732 -0.1976 -0.1234
14642TIP3    H165341   2.994   5.181   0.060 -0.0450  1.4491  0.0464
14642TIP3    H265342   2.930   5.149  -0.073  1.4085  3.4091 -1.1977
14643TIP3   OH265343   2.192   2.171   1.955  0.4955  0.3025  0.4221
14643TIP3    H165344   2.108   2.198   1.994 -0.2467 -0.1176 -0.8191
14643TIP3    H265345   2.239   2.253   1.941 -0.4365  0.7218 -0.4376
14644TIP3   OH265346   0.031   6.538   0.845 -0.0141  0.3533 -0.3308
14644TIP3    H165347   0.124   6.521   0.861 -0.1959 -0.8105 -0.4478
14644TIP3    H265348  -0.015   6.467   0.889 -0.6541 -1.3556 -3.4460
14645TIP3   OH265349   6.431   5.337   1.156  0.1042 -0.0148  0.3889
14645TIP3    H165350   6.374   5.261   1.166  0.2448  0.0378  1.6885
14645TIP3    H265351   6.416   5.389   1.235  0.3012  1.1202 -0.2957
14646TIP3   OH265352   3.256   6.607   5.276 -0.5382 -0.6491 -0.1683
14646TIP3    H165353   3.252   6.629   5.369 -0.4691 -1.5771  0.0572
14646TIP3    H265354   3.335   6.554   5.266  0.1932  0.5517 -1.0064
14647TIP3   OH265355   3.446   5.299   1.735  0.3647  0.1451  0.6208
14647TIP3    H165356   3.499   5.226   1.767  0.6076  1.1908  2.8045
14647TIP3    H265357   3.452   5.293   1.640  3.1269 -0.7184  0.7456
14648TIP3   OH265358   5.162   5.890  15.407  0.1789  0.4092 -0.3986
14648TIP3    H165359   5.239   5.947  15.414 -1.2257  2.5821 -1.5255
14648TIP3    H265360   5.173   5.845  15.324  0.8812 -0.3421  0.0915
14649TIP3   OH265361   5.077   4.545   1.682  0.2077 -0.5991 -0.0909
14649TIP3    H165362   5.106   4.527   1.593 -1.3250  0.0242 -0.7538
14649TIP3    H265363   5.051   4.459   1.716  0.7753 -0.8364 -0.2481
14650TIP3   OH265364   2.187   2.304  13.647 -0.7109 -0.3787  0.2506
14650TIP3    H165365   2.165   2.211  13.651 -0.3180 -0.5521 -1.0853
14650TIP3    H265366   2.240   2.312  13.567  1.2541  0.5874  1.5745
14651TIP3   OH265367   2.010   1.726   0.910 -0.5844 -0.4561  0.2255
14651TIP3    H165368   1.981   1.660   0.974 -2.1730  1.2202  1.3536
14651TIP3    H265369   2.074   1.779   0.958 -1.6318  0.6841  0.4332
14652TIP3   OH265370   3.978   5.800   0.181 -0.3676  0.6153  0.0511
14652TIP3    H165371   4.027   5.804   0.099 -0.8961  0.3002 -0.2916
14652TIP3    H265372   4.034   5.751   0.241 -1.6148 -2.8726 -1.3601
14653TIP3   OH265373   5.898   6.038   1.583 -0.0824 -0.0165 -0.5756
14653TIP3    H165374   5.979   6.006   1.623 -0.7942 -1.9145 -0.5485
14653TIP3    H265375   5.867   6.107   1.643  0.0952 -1.1888  0.9303
14654TIP3   OH265376   5.437   5.149  15.246 -0.5216 -0.3259  0.2990
14654TIP3    H165377   5.438   5.245  15.251 -2.3591 -0.2145 -0.6466
14654TIP3    H265378   5.525   5.123  15.273 -1.0508  1.4107  4.5397
14655TIP3   OH265379   1.869   2.096  12.704  0.7609  0.5692 -0.4935
14655TIP3    H165380   1.870   2.170  12.643 -0.2171 -0.4767 -1.8412
14655TIP3    H265381   1.810   2.124  12.774  2.2911  1.9846  0.3107
14656TIP3   OH265382   0.394   0.280  11.635  0.1194  0.2699 -0.0621
14656TIP3    H165383   0.364   0.266  11.545 -3.1230  0.5032  0.8533
14656TIP3    H265384   0.430   0.196  11.662 -1.7667 -0.7714 -0.6189
14657TIP3   OH265385   5.210   4.678  14.966  0.4817  0.9946  0.7371
14657TIP3    H165386   5.296   4.671  14.926  0.6632 -1.7129  1.4103
14657TIP3    H265387   5.149   4.654  14.896  0.4525  0.7054  0.8603
14658TIP3   OH265388   3.945   5.980   3.708  0.6185 -0.4472  0.4781
14658TIP3    H165389   3.948   5.904   3.765 -2.4380 -1.3340 -0.3898
14658TIP3    H265390   3.870   6.031   3.739  0.4123  0.3374 -1.1905
14659TIP3   OH265391   0.850   2.533  12.781 -0.2575  0.2771 -0.1184
14659TIP3    H165392   0.794   2.478  12.836 -0.2052  1.1381  0.8283
14659TIP3    H265393   0.856   2.486  12.698 -1.2142 -0.5268  0.2494
14660TIP3   OH265394   6.712   6.752  13.856  0.2898 -0.4532  0.0311
14660TIP3    H165395   6.658   6.798  13.791 -1.1720 -0.1011  1.4242
14660TIP3    H265396   6.715   6.811  13.931  0.2544 -1.6634  1.0197
14661TIP3   OH265397   4.618   1.675  13.694  0.2227  0.3198 -0.0003
14661TIP3    H165398   4.703   1.697  13.732  0.1435  0.7818 -0.0846
14661TIP3    H265399   4.601   1.745  13.632 -0.3740  0.4050  0.2540
14662TIP3   OH265400   3.611   4.883  10.750 -0.3179  0.5904 -0.2492
14662TIP3    H165401   3.568   4.903  10.667 -0.4281  0.9014 -0.1204
14662TIP3    H265402   3.558   4.928  10.816 -1.7479 -1.7351  0.2952
14663TIP3   OH265403   5.921   5.166   0.999  1.1073  0.0108 -0.2911
14663TIP3    H165404   6.005   5.126   0.976  0.3196 -1.9334  0.0109
14663TIP3    H265405   5.858   5.124   0.940  0.1366  0.3478  0.4802
14664TIP3   OH265406   2.147   5.366  11.112  0.3235  0.1206  0.0886
14664TIP3    H165407   2.178   5.344  11.024  0.5921  3.3629 -0.7793
14664TIP3    H265408   2.208   5.434  11.142 -0.6423  0.1473  2.1764
14665TIP3   OH265409   5.706   3.195  11.511  0.0316  0.3106  0.1075
14665TIP3    H165410   5.754   3.116  11.539  0.0858  0.4623  0.4476
14665TIP3    H265411   5.637   3.162  11.454  0.5715  0.0917 -0.4265
14666TIP3   OH265412   4.229   2.354  14.013  0.5023  0.6950  0.0306
14666TIP3    H165413   4.315   2.343  14.055  1.0637  1.4095 -0.9070
14666TIP3    H265414   4.245   2.331  13.921 -0.4548  0.2633 -0.0319
14667TIP3   OH265415   0.809   4.297   5.688 -0.1027 -0.4964  0.1067
14667TIP3    H165416   0.751   4.222   5.676 -0.1835 -0.3336 -0.5362
14667TIP3    H265417   0.871   4.292   5.616 -0.2063  0.1388 -0.0381
14668TIP3   OH265418   2.992   5.804   5.024  0.2510 -0.2554  0.2124
14668TIP3    H165419   3.040   5.862   5.083  1.0408 -0.4748 -0.2073
14668TIP3    H265420   3.003   5.717   5.061  1.7792 -0.5688 -0.8883
14669TIP3   OH265421   3.260   3.132   4.159 -0.2826  0.4788 -0.6155
14669TIP3    H165422   3.174   3.103   4.188 -1.3375  1.8580 -2.1700
14669TIP3    H265423   3.300   3.170   4.237  0.4135 -3.1795  1.0228
14670TIP3   OH265424   4.458   1.596   0.690 -0.4342  0.5934  0.6726
14670TIP3    H165425   4.371   1.625   0.664 -1.6580 -1.4223  2.1832
14670TIP3    H265426   4.512   1.606   0.611 -2.3051  0.8623 -0.6384
14671TIP3   OH265427   3.788   0.259   4.189  0.7303  0.4231  0.1592
14671TIP3    H165428   3.831   0.343   4.205  1.4522  0.5597 -2.1100
14671TIP3    H265429   3.855   0.207   4.143 -1.2731  0.4789 -3.1125
14672TIP3   OH265430   5.927   4.735  12.684  0.2615 -0.0729 -0.6122
14672TIP3    H165431   5.893   4.658  12.730 -0.1401  0.3807 -0.1309
14672TIP3    H265432   5.853   4.767  12.632 -0.2929  1.2768  0.9091
14673TIP3   OH265433   0.167   2.174  16.357 -0.0959 -0.3896  0.4636
14673TIP3    H165434   0.092   2.124  16.327 -0.8245 -0.0851  1.6847
14673TIP3    H265435   0.129   2.255  16.393  0.9449  0.4740 -0.3191
14674TIP3   OH265436   6.284   3.046   3.172  0.2076  0.1006  0.2529
14674TIP3    H165437   6.231   3.024   3.249 -0.4632  1.3158  0.1621
14674TIP3    H265438   6.350   3.107   3.206 -0.6114  1.3054 -0.2725
14675TIP3   OH265439   5.099   2.066  13.905  0.4438 -0.3680  0.0349
14675TIP3    H165440   5.043   2.026  13.839 -0.9780 -0.7696  1.4170
14675TIP3    H265441   5.159   1.996  13.932  1.2923 -0.0950 -1.0434
14676TIP3   OH265442   3.088   5.496  13.379  0.5286 -0.2393  0.0739
14676TIP3    H165443   3.041   5.567  13.335 -1.2156  0.3063  2.6069
14676TIP3    H265444   3.044   5.416  13.348  1.2303 -0.1022 -1.3222
14677TIP3   OH265445   3.654   3.659   3.159  0.3140  0.3700  0.2006
14677TIP3    H165446   3.731   3.715   3.168 -0.8612  1.9869  0.7072
14677TIP3    H265447   3.601   3.678   3.236 -1.7200  1.1942 -1.2881
14678TIP3   OH265448   5.733   3.952  13.035 -0.1568 -0.3266 -0.3013
14678TIP3    H165449   5.824   3.920  13.037  0.1870  0.6467  1.4540
14678TIP3    H265450   5.693   3.913  13.113 -0.5335  1.2068  0.2909
14679TIP3   OH265451   0.248   0.634   1.189 -1.0727  0.2841 -0.8910
14679TIP3    H165452   0.251   0.569   1.260 -0.4539  0.2939 -0.8974
14679TIP3    H265453   0.156   0.656   1.180 -1.1774  0.1438 -0.2102
14680TIP3   OH265454   6.393   0.346   0.916 -0.2883  0.1184  0.2940
14680TIP3    H165455   6.333   0.379   0.849 -0.6704  1.2638  1.1775
14680TIP3    H265456   6.351   0.268   0.949 -0.1826 -0.3648 -0.6635
14681TIP3   OH265457   2.770   6.464   2.497 -0.2089 -0.3057 -0.1687
14681TIP3    H165458   2.714   6.529   2.453 -0.2659 -0.1626  0.1077
14681TIP3    H265459   2.821   6.516   2.560  0.5442 -0.3728 -0.7093
14682TIP3   OH265460   0.229   0.090   1.893  0.1632 -0.1539 -0.0249
14682TIP3    H165461   0.298   0.081   1.959 -1.5213 -0.3216  1.8207
14682TIP3    H265462   0.210  -0.000   1.867 -0.6556 -0.2855  0.9452
14683TIP3   OH265463   0.649   0.541   0.098  0.1511  0.0899 -0.5083
14683TIP3    H165464   0.688   0.628   0.109 -0.4853  0.7134 -2.6550
14683TIP3    H265465   0.673   0.516   0.009 -1.7932 -0.8243 -0.8239
14684TIP3   OH265466   0.235   3.823  11.583 -0.8089 -0.2277  0.1956
14684TIP3    H165467   0.199   3.881  11.516 -0.0768 -1.1084 -1.0129
14684TIP3    H265468   0.211   3.735  11.552  2.1468 -0.8555 -0.5966
14685TIP3   OH265469   0.045   5.467  12.816 -0.4242  0.9185  0.1645
14685TIP3    H165470   0.091   5.444  12.896  1.1675  2.1223 -0.3634
14685TIP3    H265471   0.112   5.460  12.747 -1.4154  1.2386 -0.8646
14686TIP3   OH265472   1.900   0.687  12.794 -0.6623  0.1876 -0.1146
14686TIP3    H165473   1.986   0.649  12.773 -0.9353 -0.7672  0.4047
14686TIP3    H265474   1.867   0.632  12.865 -1.9714  0.1704 -0.7073
14687TIP3   OH265475   6.027   2.548  11.789  0.2610 -0.0681 -0.0989
14687TIP3    H165476   5.953   2.608  11.794 -0.4918 -1.0135  0.4195
14687TIP3    H265477   6.082   2.570  11.865  0.0247  0.0079  0.0488
14688TIP3   OH265478   6.488   6.269  16.984 -0.7371 -0.3058  0.1763
14688TIP3    H165479   6.565   6.218  17.009 -0.1911  0.9928  1.2888
14688TIP3    H265480   6.447   6.218  16.914  0.0230 -2.0115  0.9139
14689TIP3   OH265481   6.572   0.817   3.348  0.0902  0.2188  0.6895
14689TIP3    H165482   6.480   0.820   3.322  0.6007  1.0209 -1.1663
14689TIP3    H265483   6.617   0.872   3.285  1.8278  0.0837  1.7388
14690TIP3   OH265484   4.101   2.858   5.629  0.3754 -0.3752  0.0987
14690TIP3    H165485   4.140   2.935   5.588  0.6237 -0.1534  0.7380
14690TIP3    H265486   4.075   2.802   5.556  1.8237 -0.5083 -0.3474
14691TIP3   OH265487   2.451   1.070  12.616 -0.1235  0.3604  0.4033
14691TIP3    H165488   2.530   1.035  12.575 -0.9161  0.8445 -1.6653
14691TIP3    H265489   2.444   1.023  12.699  0.3246 -2.4340 -1.0207
14692TIP3   OH265490   5.850   0.416   4.403 -0.3172  0.0047  0.0386
14692TIP3    H165491   5.915   0.368   4.351  0.5975 -0.5989  1.6686
14692TIP3    H265492   5.889   0.503   4.413 -0.8574  0.3702 -0.8981
14693TIP3   OH265493   5.810   1.625  14.744 -0.1263  0.7582 -0.5592
14693TIP3    H165494   5.733   1.668  14.782  0.6030  0.7119  1.0437
14693TIP3    H265495   5.782   1.535  14.727  0.0572  0.2128  1.7395
14694TIP3   OH265496   3.539   4.045  13.807  0.6943  0.5816  0.3689
14694TIP3    H165497   3.444   4.051  13.797  0.5928 -1.0271  0.0965
14694TIP3    H265498   3.569   4.136  13.806 -0.8135  1.1070  0.2488
14695TIP3   OH265499   4.934   6.547  13.049 -0.1703  0.3494 -0.4789
14695TIP3    H165500   4.884   6.486  12.995 -1.2807 -1.2480  2.1594
14695TIP3    H265501   5.001   6.494  13.091  0.5782  1.4984 -0.1523
14696TIP3   OH265502   5.156   6.690   2.022  0.0843  0.1621  0.5982
14696TIP3    H165503   5.197   6.776   2.017 -0.8125  0.5349 -1.6935
14696TIP3    H265504   5.221   6.629   1.987 -0.0221  0.2115  0.3161
14697TIP3   OH265505   0.827   3.712  11.996  0.0384  0.4214  0.3180
14697TIP3    H165506   0.742   3.747  11.969 -0.0911 -0.4275 -0.3974
14697TIP3    H265507   0.888   3.742  11.928  0.4090  1.4084  1.0658
14698TIP3   OH265508   0.866   2.624  14.630 -0.1165  0.1345 -0.3358
14698TIP3    H165509   0.917   2.575  14.566 -0.7691 -0.6520 -0.2578
14698TIP3    H265510   0.776   2.621  14.597 -0.5024 -0.5034  0.7485
14699TIP3   OH265511   3.658   5.116   1.775  0.1540 -0.5394  0.1205
14699TIP3    H165512   3.604   5.040   1.796  0.4985 -0.6471  0.6445
14699TIP3    H265513   3.704   5.136   1.856 -0.3542  0.5819  0.1445
14700TIP3   OH265514   2.420   2.613   0.209 -0.1072  0.6069 -0.1678
14700TIP3    H165515   2.450   2.667   0.136  0.9920  0.1915 -0.0477
14700TIP3    H265516   2.449   2.524   0.188  1.3818  0.6709  1.3196
14701TIP3   OH265517   6.282   1.335  16.881 -0.3303 -0.1641 -0.6049
14701TIP3    H165518   6.216   1.397  16.912 -1.5011 -1.5695 -0.1390
14701TIP3    H265519   6.254   1.251  16.917  0.7058 -1.1245 -1.9402
14702TIP3   OH265520   6.537   5.086   6.924 -0.3015  0.3186  0.1434
14702TIP3    H165521   6.469   5.107   6.861  0.9435  0.0437 -1.3508
14702TIP3    H265522   6.505   5.007   6.968 -1.1054  0.4080 -0.2578
14703TIP3   OH265523   6.374   4.998   4.461  0.1534  0.4386  0.2665
14703TIP3    H165524   6.322   5.050   4.401 -1.6366 -1.4046  0.1263
14703TIP3    H265525   6.366   5.043   4.545 -1.4429  0.3764  0.1747
14704TIP3   OH265526   5.016   4.833  14.754 -1.1128  0.3406 -0.1484
14704TIP3    H165527   4.940   4.806  14.704 -2.0819 -2.8255  2.6550
14704TIP3    H265528   5.077   4.760  14.748 -0.8511  0.2609  2.3041
14705TIP3   OH265529   0.060   6.184  15.738 -0.4397  0.7573 -0.3203
14705TIP3    H165530  -0.027   6.157  15.707  0.5489 -0.1713 -2.4820
14705TIP3    H265531   0.101   6.103  15.767 -1.0077  1.4789  2.8764
14706TIP3   OH265532   3.663   1.720   3.994 -0.8458  0.3729 -0.2262
14706TIP3    H165533   3.647   1.800   3.944  0.4674  0.5012 -0.4760
14706TIP3    H265534   3.743   1.684   3.955 -0.5510 -0.2322  0.9184
14707TIP3   OH265535   2.649   3.942   2.576 -0.0788 -0.6883  0.0997
14707TIP3    H165536   2.725   3.952   2.634  1.3511  1.1455 -1.9275
14707TIP3    H265537   2.587   3.889   2.627  2.0227 -1.2033  2.3248
14708TIP3   OH265538   2.793   3.701  10.426 -0.7391 -0.0013  0.2227
14708TIP3    H165539   2.817   3.627  10.369 -0.2961 -0.4092  0.9294
14708TIP3    H265540   2.856   3.770  10.404 -1.2318  0.2181 -0.5295
14709TIP3   OH265541   4.916   3.963   0.797 -0.2907 -0.1448  0.3353
14709TIP3    H165542   4.827   3.985   0.771  0.5378  0.7432 -2.1119
14709TIP3    H265543   4.969   4.037   0.767  1.4590 -1.3381  0.2754
14710TIP3   OH265544   6.515   2.591  11.156  0.0220 -0.2893 -0.7790
14710TIP3    H165545   6.521   2.534  11.232  1.0104 -1.1383 -1.4591
14710TIP3    H265546   6.606   2.609  11.132 -0.2739  0.6842 -1.2350
14711TIP3   OH265547   6.462   0.312  11.561 -0.1070  0.2359  0.1358
14711TIP3    H165548   6.390   0.372  11.579 -1.3228 -0.9392 -0.6029
14711TIP3    H265549   6.491   0.284  11.648 -0.8304  0.4000  0.4403
14712TIP3   OH265550   4.754   3.705  14.522  0.2549 -0.0028 -0.0348
14712TIP3    H165551   4.708   3.756  14.455  0.5618 -1.3566 -1.3226
14712TIP3    H265552   4.793   3.632  14.474 -0.6832 -1.8127  1.8323
14713TIP3   OH265553   6.102   6.134  11.838  0.9805 -0.4400  0.2908
14713TIP3    H165554   6.028   6.075  11.823  2.6344 -2.7335  0.5921
14713TIP3    H265555   6.118   6.175  11.753 -0.5968  0.0652  0.2210
14714TIP3   OH265556   1.487   4.928  14.105 -0.2152  0.9304  0.1348
14714TIP3    H165557   1.579   4.908  14.117 -0.0588  1.8341  0.4562
14714TIP3    H265558   1.461   4.876  14.028  0.3085 -0.0590  0.6095
14715TIP3   OH265559   4.318   1.387  16.164 -0.0142  0.3027 -0.2459
14715TIP3    H165560   4.352   1.302  16.135 -2.2167 -1.0168  0.8253
14715TIP3    H265561   4.292   1.431  16.082  1.3849  0.0980 -0.8292
14716TIP3   OH265562   3.099   5.849   0.167  0.1380  0.4796 -0.1929
14716TIP3    H165563   3.121   5.933   0.127 -0.9106  1.6124  1.4665
14716TIP3    H265564   3.183   5.813   0.194  0.5203  1.5852  0.1435
14717TIP3   OH265565   0.773   1.491   3.849 -0.0835  0.3282 -0.1265
14717TIP3    H165566   0.719   1.465   3.774  0.2900  2.1037 -1.0603
14717TIP3    H265567   0.712   1.532   3.910 -0.5887 -2.1149  1.1299
14718TIP3   OH265568   2.072   0.477  15.470 -0.7595  0.0940  0.2520
14718TIP3    H165569   2.031   0.562  15.450 -0.0806 -0.1143 -2.3794
14718TIP3    H265570   1.999   0.423  15.501 -1.6911  0.9296 -0.3939
14719TIP3   OH265571   6.648   2.020  17.101 -0.4258  0.3249  0.4032
14719TIP3    H165572   6.738   2.044  17.122 -0.9154  1.8830  0.7843
14719TIP3    H265573   6.628   1.949  17.162  0.3375  0.3600  0.7104
14720TIP3   OH265574   0.482   6.319  17.313  0.0423 -0.2577 -0.2774
14720TIP3    H165575   0.558   6.293  17.259  0.3711 -0.1677  0.1412
14720TIP3    H265576   0.498   6.410  17.335 -0.4621 -0.0749 -0.6366
14721TIP3   OH265577   5.668   1.761   0.258 -0.5101  0.1375 -0.4239
14721TIP3    H165578   5.690   1.807   0.339  1.2389 -1.5653  0.1493
14721TIP3    H265579   5.646   1.831   0.196 -0.5350  1.5640  1.1088
14722TIP3   OH265580   2.593   5.192   1.018  0.1375  0.1372 -0.0299
14722TIP3    H165581   2.687   5.176   1.006 -0.0055 -1.5177  0.8135
14722TIP3    H265582   2.551   5.137   0.951 -0.2564  0.6754 -0.2341
14723TIP3   OH265583   1.029   0.623  12.937 -0.1690 -0.7961 -0.0180
14723TIP3    H165584   1.045   0.638  12.844  0.5426 -2.0794 -0.1207
14723TIP3    H265585   0.969   0.694  12.963  1.0044  0.6189 -1.0282
14724TIP3   OH265586   5.951   5.733   2.240  0.1816  0.2444 -0.1721
14724TIP3    H165587   6.036   5.744   2.283  0.3438 -1.1398 -0.0709
14724TIP3    H265588   5.952   5.797   2.168  2.2058 -1.0988 -1.4763
14725TIP3   OH265589   6.713   2.497   0.674 -0.3941  0.2941  0.1034
14725TIP3    H165590   6.740   2.461   0.590  0.2523 -0.7781  0.7403
14725TIP3    H265591   6.624   2.464   0.687  0.1875 -1.1483  0.6766
14726TIP3   OH265592   0.601   1.496   1.951  0.5691 -0.3068  0.2373
14726TIP3    H165593   0.558   1.444   1.883 -4.0621 -0.5399  2.9315
14726TIP3    H265594   0.550   1.577   1.955  3.3071  1.5047  0.8028
14727TIP3   OH265595   4.791   3.576   5.058  0.0321 -1.2591 -0.0935
14727TIP3    H165596   4.778   3.656   5.108  1.5324 -0.8187 -0.3498
14727TIP3    H265597   4.710   3.565   5.008 -0.3441 -0.1179  0.2334
14728TIP3   OH265598   4.232   3.144   3.386 -0.1196 -0.5919 -0.0190
14728TIP3    H165599   4.322   3.111   3.387  0.8991  1.9621  0.1157
14728TIP3    H265600   4.180   3.069   3.415  1.6870 -2.7317 -1.8411
14729TIP3   OH265601   5.936   1.283   4.641  0.2959  0.2694 -0.1039
14729TIP3    H165602   5.882   1.328   4.575  0.3553  1.2950  0.5188
14729TIP3    H265603   5.916   1.191   4.630 -2.0751  0.6599  0.5291
14730TIP3   OH265604   2.739   0.631  11.831 -0.0950  0.1497 -0.0236
14730TIP3    H165605   2.760   0.722  11.853  1.1033  0.2810 -1.5756
14730TIP3    H265606   2.688   0.636  11.751 -0.6367 -0.5265  0.2658
14731TIP3   OH265607   4.092   3.965  10.817 -0.7576 -0.3344  0.5724
14731TIP3    H165608   4.134   3.953  10.732 -1.3588 -0.0567  0.2329
14731TIP3    H265609   4.152   4.023  10.865 -1.1488  0.7663 -0.2246
14732TIP3   OH265610   5.054   6.544  15.244  0.5472  0.1241  0.3171
14732TIP3    H165611   5.064   6.467  15.188  0.2710 -0.0107  0.4477
14732TIP3    H265612   5.115   6.608  15.208 -1.4830  1.0030 -1.8512
14733TIP3   OH265613   4.188   0.638   4.730 -0.2051 -0.1824  0.6049
14733TIP3    H165614   4.142   0.714   4.768 -1.0657 -1.0674  1.3838
14733TIP3    H265615   4.187   0.572   4.799  0.4667 -0.9520 -0.0917
14734TIP3   OH265616   0.330   5.008  13.684 -0.1654  0.0855  0.1861
14734TIP3    H165617   0.418   5.046  13.683  0.6935 -1.5331 -3.0889
14734TIP3    H265618   0.344   4.916  13.706 -0.8340 -0.4287 -1.4033
14735TIP3   OH265619   4.580   5.578   5.005 -0.9480  0.6155 -0.0731
14735TIP3    H165620   4.666   5.599   5.042 -1.3595  1.5581  0.3920
14735TIP3    H265621   4.517   5.611   5.069 -1.6611  0.5697 -0.7256
14736TIP3   OH265622   2.708   0.438  14.950 -0.2923 -0.4763  0.0227
14736TIP3    H165623   2.672   0.472  15.032 -0.8535 -1.5304  0.2316
14736TIP3    H265624   2.772   0.372  14.978 -0.0576 -0.4207 -0.3840
14737TIP3   OH265625   3.604   5.505  16.203 -0.8723 -0.7286  0.2444
14737TIP3    H165626   3.541   5.488  16.133 -0.2194  0.1239 -0.5704
14737TIP3    H265627   3.647   5.420  16.217  1.5409 -0.2471 -2.9677
14738TIP3   OH265628   0.811   5.145   5.140 -0.2860  0.1081  0.4043
14738TIP3    H165629   0.796   5.133   5.046  1.0389 -0.7082  0.2792
14738TIP3    H265630   0.900   5.178   5.146  0.3033 -1.5239  1.4387
14739TIP3   OH265631   2.527   0.196   2.431 -0.4784  0.2815  0.2428
14739TIP3    H165632   2.496   0.287   2.423 -0.9850 -0.0397 -2.7414
14739TIP3    H265633   2.475   0.148   2.367  0.3578 -1.9995  1.1772
14740TIP3   OH265634   1.057   5.932   5.331 -0.3268 -0.2839 -0.5854
14740TIP3    H165635   1.144   5.953   5.366 -1.6580  2.6366  1.3619
14740TIP3    H265636   1.067   5.936   5.236  1.7066 -0.3761 -0.4193
14741TIP3   OH265637   3.082   1.287  11.761  0.0937  0.0683 -0.4828
14741TIP3    H165638   3.005   1.248  11.718 -1.3801  0.2585  1.8114
14741TIP3    H265639   3.091   1.373  11.720  0.1177 -0.5820 -1.9101
14742TIP3   OH265640   0.386   2.437  12.716 -0.7855 -0.4869 -0.3329
14742TIP3    H165641   0.331   2.363  12.743 -2.7979  0.7884 -0.7880
14742TIP3    H265642   0.368   2.505  12.781  0.7804 -0.2226 -0.1223
14743TIP3   OH265643   6.476   4.501  13.722  0.0312 -0.7729  0.6462
14743TIP3    H165644   6.498   4.455  13.641 -0.2960  0.5251 -0.1939
14743TIP3    H265645   6.441   4.585  13.694  0.0774 -0.2245  2.1427
14744TIP3   OH265646   3.499   3.291   0.740  0.0254  0.2307  1.0521
14744TIP3    H165647   3.580   3.245   0.764  0.6756  0.0270 -1.2579
14744TIP3    H265648   3.495   3.283   0.645 -0.1488  4.4130  0.5144
14745TIP3   OH265649   2.497   5.343  14.404 -0.0114  0.7169 -0.0842
14745TIP3    H165650   2.475   5.409  14.471 -0.4579  0.8620 -0.3677
14745TIP3    H265651   2.561   5.387  14.348  0.9068  0.3571  0.6351
14746TIP3   OH265652   3.865   3.060   4.838 -0.2561 -0.4928  0.6514
14746TIP3    H165653   3.879   3.014   4.756 -0.8128 -0.2633  0.4209
14746TIP3    H265654   3.870   2.993   4.905  1.7717 -0.4616  0.5941
14747TIP3   OH265655   1.355   2.871   3.574  0.2011 -0.0084 -0.1248
14747TIP3    H165656   1.299   2.793   3.574 -1.7338  1.2959  1.1145
14747TIP3    H265657   1.365   2.894   3.666  1.2460  0.8887 -0.4364
14748TIP3   OH265658   5.785   6.066  13.031  0.5618  0.2780  0.2656
14748TIP3    H165659   5.853   6.071  13.098  2.4292  1.3945 -1.5654
14748TIP3    H265660   5.832   6.039  12.952 -1.2706  0.4288 -0.9256
14749TIP3   OH265661   6.740   0.747  16.884 -0.2756  0.6826 -0.4557
14749TIP3    H165662   6.766   0.660  16.854  1.4425  1.2609 -0.7717
14749TIP3    H265663   6.740   0.800  16.804  1.1428  1.5141  0.0710
14750TIP3   OH265664   0.271   6.320  15.860  0.9616 -0.0777 -0.2100
14750TIP3    H165665   0.243   6.270  15.936 -1.2961  2.5185  0.8589
14750TIP3    H265666   0.204   6.304  15.794  0.4229  1.0916  0.0111
14751TIP3   OH265667   2.280   1.025  16.923  0.1044 -0.0144  0.4185
14751TIP3    H165668   2.355   1.030  16.863 -1.5529  0.1586 -1.7520
14751TIP3    H265669   2.284   1.107  16.972  0.2217  0.9405 -1.1197
14752TIP3   OH265670   3.902   3.758   3.184  0.5674  0.2220 -0.3034
14752TIP3    H165671   3.983   3.715   3.209  0.9933  0.2622 -1.5271
14752TIP3    H265672   3.909   3.847   3.220  1.2575  0.3500 -0.7351
14753TIP3   OH265673   6.472   3.409   2.627 -0.0592  0.0899 -0.4698
14753TIP3    H165674   6.423   3.344   2.576  0.1112 -1.5561  1.3614
14753TIP3    H265675   6.564   3.390   2.609  0.0753 -1.7349  1.7654
14754TIP3   OH265676   3.435   3.077   5.660  0.4321 -0.3372 -0.2046
14754TIP3    H165677   3.471   3.012   5.721 -2.0175 -1.6674 -0.0291
14754TIP3    H265678   3.352   3.103   5.699  1.1098  2.6861 -0.4997
14755TIP3   OH265679   0.161   4.031   1.311  0.1934  0.3677  0.4637
14755TIP3    H165680   0.102   4.105   1.308 -1.1391 -0.6757 -0.0054
14755TIP3    H265681   0.218   4.041   1.235  0.6195  1.3616  0.9019
14756TIP3   OH265682   0.411   3.830   0.968 -0.1098  0.2991  0.4303
14756TIP3    H165683   0.484   3.886   0.941  0.6734 -0.1373  1.5456
14756TIP3    H265684   0.402   3.766   0.899  1.0375 -0.0634  0.5993
14757TIP3   OH265685   0.901   4.084  14.602  0.1101 -0.6289 -0.0172
14757TIP3    H165686   0.833   4.027  14.636 -0.0343 -1.3695 -1.4532
14757TIP3    H265687   0.983   4.037  14.618  0.1629 -0.3808  0.4550
14758TIP3   OH265688   2.380   3.365   3.810 -0.0071  0.4519  0.0611
14758TIP3    H165689   2.355   3.395   3.898  0.3605  1.2887 -0.1159
14758TIP3    H265690   2.298   3.335   3.771 -0.0362 -0.8028  1.0206
14759TIP3   OH265691   3.666   0.825  16.793 -0.5878  0.0122 -0.0959
14759TIP3    H165692   3.599   0.882  16.832 -1.1997  0.6393 -1.9319
14759TIP3    H265693   3.625   0.739  16.792 -0.3745 -0.1241  1.0249
14760TIP3   OH265694   5.805   2.301  16.912 -0.5452 -0.1109  0.5989
14760TIP3    H165695   5.736   2.249  16.953 -2.6064  3.4261  2.0717
14760TIP3    H265696   5.778   2.310  16.821  0.0495 -1.8004  0.2171
14761TIP3   OH265697   1.275   3.629  17.129  0.1117 -0.1331 -0.3613
14761TIP3    H165698   1.215   3.650  17.057 -0.3479 -1.8718 -0.5213
14761TIP3    H265699   1.352   3.684  17.113 -0.6386  0.6855 -1.2618
14762TIP3   OH265700   1.597   6.313  12.676 -0.4257 -0.2370 -0.1629
14762TIP3    H165701   1.518   6.277  12.634 -1.3436  0.2323  1.1128
14762TIP3    H265702   1.612   6.257  12.751 -1.2661  1.3313  1.2586
14763TIP3   OH265703   3.953   4.052  15.820  0.6364 -0.4596 -0.4385
14763TIP3    H165704   3.962   4.074  15.728  0.5517 -1.8773 -0.8113
14763TIP3    H265705   3.909   3.966  15.820  0.5777 -0.4539  0.9121
14764TIP3   OH265706   2.521   0.588   6.093 -0.2583 -0.0233  0.0073
14764TIP3    H165707   2.553   0.621   6.177 -0.2252  1.3320 -0.5102
14764TIP3    H265708   2.558   0.648   6.028 -1.7466  0.0513 -0.8254
14765TIP3   OH265709   1.256   1.154   5.611  0.0405 -0.0761 -0.0097
14765TIP3    H165710   1.210   1.152   5.526  1.4248 -1.3397 -0.7768
14765TIP3    H265711   1.202   1.100   5.669 -0.2240 -0.3237 -0.4800
14766TIP3   OH265712   1.044   4.357   5.890 -0.7529 -0.5168 -0.2117
14766TIP3    H165713   0.991   4.302   5.832  0.1817 -0.6735 -0.9606
14766TIP3    H265714   1.030   4.321   5.977 -0.1761 -1.9693 -0.6815
14767TIP3   OH265715   5.697   0.472  16.580  0.5203 -0.6054 -0.3376
14767TIP3    H165716   5.670   0.500  16.668 -1.0381  2.0057 -1.5022
14767TIP3    H265717   5.630   0.409  16.553  0.7888 -1.1181  0.1713
14768TIP3   OH265718   4.125   2.079  14.523 -0.0171  0.4265  0.0013
14768TIP3    H165719   4.194   2.139  14.496 -1.1197  1.3207 -0.9244
14768TIP3    H265720   4.131   2.005  14.462 -0.2410  0.7827 -0.4607
14769TIP3   OH265721   6.686   1.920   3.854  0.4529 -0.3985 -0.2927
14769TIP3    H165722   6.604   1.965   3.838 -0.2386 -0.6018  2.2455
14769TIP3    H265723   6.674   1.834   3.814 -0.2984 -0.1976 -0.5198
14770TIP3   OH265724   4.869   6.091  15.005 -0.5749  0.4203 -0.9314
14770TIP3    H165725   4.786   6.051  15.030 -0.1215  0.5984  0.9951
14770TIP3    H265726   4.931   6.018  14.999 -0.5938  0.4240 -1.2140
14771TIP3   OH265727   2.732   4.412   3.698 -0.0639 -0.3468  0.2141
14771TIP3    H165728   2.715   4.414   3.793 -0.5936 -0.2057  0.1160
14771TIP3    H265729   2.695   4.328   3.670  1.1059 -0.9188  0.3192
14772TIP3   OH265730   2.799   2.358  11.807  0.9184 -0.6073 -0.4549
14772TIP3    H165731   2.725   2.412  11.780  0.9914 -0.1164  0.2983
14772TIP3    H265732   2.876   2.413  11.791  1.0124 -0.5769  0.0824
14773TIP3   OH265733   5.374   5.529   4.382 -0.2663 -0.0734  0.5412
14773TIP3    H165734   5.310   5.472   4.426  0.4365 -1.1425  0.2322
14773TIP3    H265735   5.332   5.555   4.301 -0.5746 -0.2108  0.6547
14774TIP3   OH265736   1.332   2.875   4.837  0.3159 -0.2096  0.2317
14774TIP3    H165737   1.266   2.891   4.768  2.0373 -0.4544 -1.5625
14774TIP3    H265738   1.283   2.834   4.908 -1.6126  0.3649 -0.6913
14775TIP3   OH265739   1.125   0.462  15.755  0.1451 -0.0854  0.4184
14775TIP3    H165740   1.094   0.409  15.681 -1.7602  2.1179 -0.4796
14775TIP3    H265741   1.220   0.463  15.746  0.0046 -0.4741 -1.5882
14776TIP3   OH265742   0.478   1.534   3.627 -0.2756  0.1412 -0.3247
14776TIP3    H165743   0.445   1.622   3.646  1.0573  0.4086  0.9158
14776TIP3    H265744   0.452   1.481   3.702  2.4687  0.5033  1.0114
14777TIP3   OH265745   0.106   3.910   2.572  0.0979 -0.4598  0.1106
14777TIP3    H165746   0.141   3.969   2.505 -0.5051  1.0945  1.1224
14777TIP3    H265747   0.183   3.878   2.619  0.3372  1.3892  1.0503
14778TIP3   OH265748   3.102   0.634  14.382  0.6076  0.1809  0.4536
14778TIP3    H165749   3.174   0.572  14.391  1.2759  0.9822  0.7358
14778TIP3    H265750   3.077   0.629  14.290 -1.1350 -2.4229  0.9380
14779TIP3   OH265751   3.023   2.637  14.273 -0.6094  0.6649  0.4990
14779TIP3    H165752   2.940   2.630  14.319 -2.1547  0.5474 -2.1116
14779TIP3    H265753   2.999   2.647  14.181  2.2455  2.0905 -0.2136
14780TIP3   OH265754   3.288   1.557  15.171  0.3440 -0.1373 -0.0090
14780TIP3    H165755   3.353   1.495  15.136 -1.5381 -1.8418 -0.6995
14780TIP3    H265756   3.250   1.512  15.247  0.1990  0.9758  0.5958
14781TIP3   OH265757   1.392   5.864   1.117  0.2596 -0.1233 -0.1133
14781TIP3    H165758   1.436   5.947   1.101 -1.5263  0.7843 -0.4267
14781TIP3    H265759   1.411   5.844   1.209 -1.3262  1.9083  0.7139
14782TIP3   OH265760   5.759   0.116  14.391 -0.0148  0.6114  0.2970
14782TIP3    H165761   5.841   0.142  14.432 -0.8277  0.6673  1.9797
14782TIP3    H265762   5.704   0.195  14.394  0.0709  0.7671 -1.4162
14783TIP3   OH265763   0.156   0.749  13.069 -0.0181 -0.4708  0.5573
14783TIP3    H165764   0.133   0.691  12.997 -1.0147 -0.9043  1.2086
14783TIP3    H265765   0.141   0.697  13.148  1.2769 -0.0787  1.0893
14784TIP3   OH265766   4.427   3.069  12.972  0.1477  0.3423  0.1152
14784TIP3    H165767   4.473   3.089  13.054 -1.6547  1.4873  0.8976
14784TIP3    H265768   4.369   2.997  12.994  0.9677 -0.5897 -0.6760
14785TIP3   OH265769   5.798   3.299  17.040  0.0431  0.0500  0.3329
14785TIP3    H165770   5.787   3.366  17.107  1.0586 -0.8824  1.4790
14785TIP3    H265771   5.870   3.244  17.072  0.2265 -0.7148 -1.2858
14786TIP3   OH265772   0.522   3.318   1.037  0.2458  0.1632 -0.1320
14786TIP3    H165773   0.480   3.299   0.953 -1.6733 -1.6413  1.1128
14786TIP3    H265774   0.566   3.236   1.060  1.2510  0.8250  0.3756
14787TIP3   OH265775   1.417   2.366   4.094  0.0048  0.3564  0.3912
14787TIP3    H165776   1.334   2.375   4.139  0.4086  1.8079  0.9027
14787TIP3    H265777   1.429   2.450   4.049  1.7427  0.6528  1.3223
14788TIP3   OH265778   3.163   5.708  16.236  0.7464  0.0475 -0.4968
14788TIP3    H165779   3.153   5.669  16.149  0.0420  1.3215 -1.0035
14788TIP3    H265780   3.074   5.727  16.265  1.0063  0.1143  0.2845
14789TIP3   OH265781   1.529   5.855   2.960 -0.0941  0.4835 -0.3095
14789TIP3    H165782   1.567   5.791   2.899 -0.2161 -0.5724  0.7003
14789TIP3    H265783   1.605   5.895   3.003 -0.0461 -0.8525  0.9210
14790TIP3   OH265784   1.171   0.041   3.919 -0.1779 -0.2527  0.0123
14790TIP3    H165785   1.252  -0.009   3.911 -0.1767 -0.3909  0.7788
14790TIP3    H265786   1.199   0.132   3.920 -0.1744 -0.2256 -1.3222
14791TIP3   OH265787   5.569   3.541   2.483 -0.4545  0.2656 -0.1630
14791TIP3    H165788   5.597   3.573   2.397 -0.3802  0.5787 -0.0251
14791TIP3    H265789   5.640   3.566   2.542 -0.7109  0.4568  0.0693
14792TIP3   OH265790   4.076   3.777   4.034  0.0946 -0.1902  0.1822
14792TIP3    H165791   4.117   3.699   3.995 -2.9229 -0.8223 -2.1298
14792TIP3    H265792   3.984   3.753   4.045 -0.8890  2.9076 -0.2437
14793TIP3   OH265793   2.860   3.732   4.888 -1.0073  0.3595  0.3131
14793TIP3    H165794   2.812   3.769   4.815 -3.2365 -2.7581  0.0215
14793TIP3    H265795   2.802   3.743   4.964 -0.7817 -0.5293  0.6344
14794TIP3   OH265796   0.095   6.234   4.534 -0.6844  0.0280  0.3865
14794TIP3    H165797   0.028   6.299   4.511  0.0906  0.5044 -0.5808
14794TIP3    H265798   0.177   6.282   4.532 -0.2166 -0.7400  0.7679
14795TIP3   OH265799   6.739   4.240   1.317 -0.2947  0.1940 -0.6436
14795TIP3    H165800   6.660   4.187   1.309 -0.6172  0.4815  0.4910
14795TIP3    H265801   6.731   4.305   1.247 -1.1643  0.3491 -0.4108
14796TIP3   OH265802   0.978   5.796   4.178 -0.4689 -0.1506 -0.3598
14796TIP3    H165803   0.973   5.736   4.252 -2.4152  1.4490  0.9062
14796TIP3    H265804   0.956   5.882   4.215 -0.1574  0.9462 -2.5414
14797TIP3   OH265805   1.551   4.551   0.526  0.4039  0.2206 -0.0853
14797TIP3    H165806   1.521   4.461   0.539  1.1050 -0.3554 -2.0816
14797TIP3    H265807   1.472   4.604   0.537 -0.0102 -0.6081  1.1613
14798TIP3   OH265808   3.225   5.370   1.495  0.5026 -0.0971  0.3558
14798TIP3    H165809   3.162   5.425   1.450  0.3465  0.9117  1.7298
14798TIP3    H265810   3.299   5.363   1.434  1.1009  2.7787  0.5808
14799TIP3   OH265811   1.478   3.548  16.021 -0.3306  0.4783 -0.4126
14799TIP3    H165812   1.389   3.568  16.051 -0.0318  2.2264 -0.6009
14799TIP3    H265813   1.479   3.572  15.929  0.1823 -0.0850 -0.5602
14800TIP3   OH265814   2.453   0.502   4.136  0.6311  0.4371  0.7879
14800TIP3    H165815   2.499   0.497   4.220  1.3318 -1.3689  0.3601
14800TIP3    H265816   2.509   0.558   4.082  1.2701 -0.0613  0.9127
14801TIP3   OH265817   0.879   0.647  11.360 -0.2725  0.5431 -0.1818
14801TIP3    H165818   0.961   0.602  11.383 -1.0248 -2.3988 -2.6158
14801TIP3    H265819   0.906   0.736  11.336  1.9154  0.2312  0.8992
14802TIP3   OH265820   2.760   6.371  11.718 -0.6221 -0.6298 -0.3424
14802TIP3    H165821   2.789   6.300  11.660 -1.1894 -0.1725 -1.2145
14802TIP3    H265822   2.733   6.441  11.658  0.6608  0.6318  0.5160
14803TIP3   OH265823   4.162   6.166   1.644  0.0467 -0.1482  0.4529
14803TIP3    H165824   4.229   6.118   1.594 -2.9616 -0.0301 -4.4279
14803TIP3    H265825   4.098   6.099   1.668 -0.6814  0.4060  0.0941
14804TIP3   OH265826   6.133   5.533   3.539 -0.0642  0.3197 -0.4379
14804TIP3    H165827   6.093   5.462   3.588  1.6628 -0.9816 -0.7908
14804TIP3    H265828   6.128   5.505   3.448 -0.3576  1.1824 -0.6929
14805TIP3   OH265829   3.879   3.629   2.183  0.0885  0.0513  0.6059
14805TIP3    H165830   3.927   3.593   2.109 -0.8891 -0.9292  0.4284
14805TIP3    H265831   3.837   3.553   2.224  0.5402  0.5807  2.1256
14806TIP3   OH265832   3.159   3.302   6.506  0.0146  0.0947  0.1106
14806TIP3    H165833   3.197   3.244   6.572  1.0092  0.8411  0.2280
14806TIP3    H265834   3.157   3.388   6.548  1.1099  0.6777 -0.9652
14807TIP3   OH265835   6.594   2.285   0.197  1.1633 -0.1081  0.6262
14807TIP3    H165836   6.523   2.263   0.138  1.7929 -0.3228 -0.0669
14807TIP3    H265837   6.567   2.249   0.282  0.4305 -0.1353  0.3843
14808TIP3   OH265838   5.227   2.722   4.516 -0.5805 -0.3353  0.2688
14808TIP3    H165839   5.200   2.811   4.492  0.1767  0.1674  1.1828
14808TIP3    H265840   5.164   2.695   4.583 -0.0945  0.0135  0.8824
14809TIP3   OH265841   1.768   3.041  15.390 -0.6273 -0.6797 -0.9055
14809TIP3    H165842   1.788   3.026  15.297 -1.1573  0.2211 -1.1753
14809TIP3    H265843   1.821   2.976  15.436  0.2423 -0.6339 -1.7963
14810TIP3   OH265844   3.251   0.471   1.253  0.3699 -0.6243  0.7166
14810TIP3    H165845   3.241   0.420   1.334 -0.7656 -0.7628  0.5062
14810TIP3    H265846   3.343   0.462   1.230  0.4857 -1.4293  1.4461
14811TIP3   OH265847   4.673   3.212  15.052 -0.3895 -0.1233  0.1420
14811TIP3    H165848   4.766   3.209  15.031 -0.2391 -1.2228  0.8954
14811TIP3    H265849   4.636   3.271  14.986  1.2273  2.4590  1.3383
14812TIP3   OH265850   3.840   0.047  13.984 -0.4364  0.2304  0.0089
14812TIP3    H165851   3.839  -0.034  14.034  1.5304  0.1663  0.0395
14812TIP3    H265852   3.887   0.109  14.040  1.8001  0.1672 -1.6597
14813TIP3   OH265853   1.592   3.360  10.765 -0.0987 -0.5154  0.8472
14813TIP3    H165854   1.678   3.401  10.751 -0.1011 -0.8627 -0.1994
14813TIP3    H265855   1.612   3.274  10.802  0.1877 -1.8435 -2.1620
14814TIP3   OH265856   5.539   5.842  11.493  0.2953  0.3233  0.3563
14814TIP3    H165857   5.610   5.906  11.488 -1.1109  1.8428 -1.3585
14814TIP3    H265858   5.572   5.775  11.552  1.4223  3.1730  3.2899
14815TIP3   OH265859   2.006   3.991   2.066 -0.5875  0.1668 -0.1036
14815TIP3    H165860   2.038   3.954   1.984  1.7116  0.8909  0.4115
14815TIP3    H265861   1.983   4.081   2.043  2.1631  1.0949  0.4022
14816TIP3   OH265862   4.772   2.327  12.020  1.0735  0.0808 -0.2383
14816TIP3    H165863   4.745   2.366  11.937  0.6588 -0.0669 -0.1754
14816TIP3    H265864   4.774   2.233  12.003  0.8139  0.0375 -0.0303
14817TIP3   OH265865   5.572   4.208   1.038  0.0598 -0.1527 -0.1142
14817TIP3    H165866   5.517   4.217   1.115  2.0153  0.5229  1.2790
14817TIP3    H265867   5.533   4.267   0.973 -1.2807 -0.3090  0.5143
14818TIP3   OH265868   0.232   6.095   2.499  0.1325 -0.1718 -0.5861
14818TIP3    H165869   0.207   6.019   2.447 -0.1829 -0.3922 -0.1222
14818TIP3    H265870   0.292   6.145   2.443  0.1826 -0.6577 -0.9661
14819TIP3   OH265871   2.542   6.457   1.775 -0.2107 -0.0777  0.0786
14819TIP3    H165872   2.594   6.381   1.749 -0.7208 -0.6078  0.5655
14819TIP3    H265873   2.546   6.457   1.871  1.4360  1.6982  0.0676
14820TIP3   OH265874   6.077   1.565  10.994  0.6101 -0.1542 -0.4916
14820TIP3    H165875   6.021   1.604  10.927 -0.3963 -0.5020  0.1156
14820TIP3    H265876   6.025   1.492  11.028  0.7427  0.5077  1.2203
14821TIP3   OH265877   4.156   3.737   0.963 -0.1306 -0.8359 -0.1789
14821TIP3    H165878   4.237   3.743   0.914  0.9577  1.3680  1.6631
14821TIP3    H265879   4.165   3.658   1.016  1.7426  0.3333  1.3836
14822TIP3   OH265880   0.339   6.536  17.051  0.6438 -0.8952 -0.3937
14822TIP3    H165881   0.428   6.564  17.072  0.2039  0.1057  0.2199
14822TIP3    H265882   0.312   6.593  16.978 -1.0765  2.0668  2.3148
14823TIP3   OH265883   0.598   3.605   4.460 -0.1929 -0.2963 -0.2108
14823TIP3    H165884   0.644   3.678   4.502 -0.1154 -1.5386  2.0494
14823TIP3    H265885   0.517   3.643   4.428  0.7998  1.2062 -1.0765
14824TIP3   OH265886   0.416   3.667  14.338 -0.3496  0.1140 -0.1728
14824TIP3    H165887   0.504   3.637  14.316 -0.3030 -0.1562  0.3571
14824TIP3    H265888   0.376   3.592  14.384 -1.1092 -0.0404 -1.0475
14825TIP3   OH265889   2.207   2.384   6.669  0.4351 -0.2784  0.4795
14825TIP3    H165890   2.237   2.296   6.645  0.6894 -0.6445  2.0311
14825TIP3    H265891   2.283   2.425   6.709 -0.0224  0.2305  0.8364
14826TIP3   OH265892   3.622   5.473   4.090 -0.0247  0.1740  0.0416
14826TIP3    H165893   3.612   5.397   4.033 -2.3137 -0.3228  0.9844
14826TIP3    H265894   3.662   5.438   4.170  0.2821  0.2537 -0.0766
14827TIP3   OH265895   1.786   5.306   2.269  0.7813 -0.2690 -0.3582
14827TIP3    H165896   1.730   5.383   2.273  2.5731  1.0820  0.1800
14827TIP3    H265897   1.779   5.276   2.178 -1.0864 -0.4163 -0.2019
14828TIP3   OH265898   2.737   1.320   0.472 -0.3839 -0.2168 -0.2556
14828TIP3    H165899   2.714   1.241   0.521  1.0481 -1.5743 -1.6775
14828TIP3    H265900   2.802   1.364   0.528 -1.1634 -0.0158  0.5254
14829TIP3   OH265901   2.914   5.140  14.022  0.3579 -0.6487  0.1224
14829TIP3    H165902   2.878   5.158  13.935  0.9696  0.2779  0.0405
14829TIP3    H265903   3.008   5.157  14.012  0.2804  0.6299  1.2349
14830TIP3   OH265904   5.282   4.750  11.068  0.3082  0.4752  0.7950
14830TIP3    H165905   5.300   4.718  11.156 -0.4743 -0.2794  0.6897
14830TIP3    H265906   5.187   4.745  11.059  0.4679 -0.8899 -0.6141
14831TIP3   OH265907   4.230   6.709  16.578 -0.2685 -0.5750 -0.1490
14831TIP3    H165908   4.148   6.700  16.529 -0.9633  0.2163  0.8324
14831TIP3    H265909   4.298   6.715  16.510 -1.0695 -0.7598 -0.9822
14832TIP3   OH265910   5.133   0.982  13.304  0.3489  0.0823  0.4718
14832TIP3    H165911   5.090   1.065  13.283 -2.0640 -1.1960  0.0431
14832TIP3    H265912   5.069   0.935  13.358  0.8181 -2.2908 -0.9321
14833TIP3   OH265913   6.033   2.829  16.182  0.1939 -0.5146 -0.1069
14833TIP3    H165914   6.003   2.795  16.266  1.6440 -0.5085  0.4336
14833TIP3    H265915   5.995   2.769  16.118 -0.4848 -0.8414  0.5786
14834TIP3   OH265916   3.860   4.641   3.195  1.1760  0.0488  0.0927
14834TIP3    H165917   3.915   4.690   3.255  1.0278  0.7374 -0.3261
14834TIP3    H265918   3.911   4.635   3.114  0.3301  1.4163 -0.5781
14835TIP3   OH265919   4.256   2.508  12.345  0.3565 -0.3725 -0.1010
14835TIP3    H165920   4.342   2.518  12.386  0.7803 -1.7680 -0.5769
14835TIP3    H265921   4.244   2.587  12.294  0.8688  0.3324  0.8335
14836TIP3   OH265922   2.105   6.356   3.833  0.4910 -0.0394 -0.2093
14836TIP3    H165923   2.168   6.395   3.894  1.1129  1.2711 -1.6211
14836TIP3    H265924   2.116   6.262   3.844  1.5840  0.1687  0.6987
14837TIP3   OH265925   1.404   6.581  14.423  0.2121 -0.5043 -0.0750
14837TIP3    H165926   1.356   6.502  14.401 -0.3343 -0.6182  1.4263
14837TIP3    H265927   1.495   6.552  14.433  0.1513 -0.7784 -0.2976
14838TIP3   OH265928   4.108   2.500  13.592 -0.6213 -0.2908 -0.1811
14838TIP3    H165929   4.097   2.535  13.680 -0.1747  0.2531 -0.3318
14838TIP3    H265930   4.161   2.421  13.604  2.0453  1.3733 -0.2024
14839TIP3   OH265931   3.075   3.281  14.081 -0.0960  0.3477 -0.4997
14839TIP3    H165932   3.014   3.233  14.025 -1.5726  1.3979  0.1344
14839TIP3    H265933   3.077   3.369  14.045 -1.2860  1.1209  1.1858
14840TIP3   OH265934   4.556   4.378   4.049  0.2957  0.1730  0.5567
14840TIP3    H165935   4.531   4.445   3.985  0.8423 -1.0678 -1.0524
14840TIP3    H265936   4.481   4.319   4.052  0.4518 -0.0184  0.6999
14841TIP3   OH265937   4.045   3.595   4.958 -0.0072 -0.3990 -1.1030
14841TIP3    H165938   4.034   3.641   5.041 -1.7619 -0.3489 -1.3240
14841TIP3    H265939   4.135   3.561   4.960  0.4659  0.8591  0.1565
14842TIP3   OH265940   0.875   5.772   2.782  0.0778 -0.2003  0.1137
14842TIP3    H165941   0.829   5.799   2.862  1.8866  2.8832  0.2633
14842TIP3    H265942   0.945   5.715   2.813  0.0392  0.0003  0.5786
14843TIP3   OH265943   4.119   4.496  11.139  0.2771 -0.4590  0.1743
14843TIP3    H165944   4.100   4.402  11.130 -1.0544 -0.2666  0.7545
14843TIP3    H265945   4.101   4.532  11.052  0.0532 -0.6317  0.1468
14844TIP3   OH265946   2.095   0.196  13.126 -0.2912 -0.0213 -0.2607
14844TIP3    H165947   2.093   0.175  13.219 -2.8969 -0.6486 -0.3604
14844TIP3    H265948   2.037   0.272  13.117 -1.6268 -1.1049 -1.5179
14845TIP3   OH265949   0.547   1.794   6.554  0.4588 -0.0589  0.0880
14845TIP3    H165950   0.541   1.870   6.496 -1.2085 -0.6872 -0.6158
14845TIP3    H265951   0.641   1.782   6.568  1.0334 -0.5075 -3.3356
14846TIP3   OH265952   2.895   3.207   0.105 -0.1616  0.6532  0.3529
14846TIP3    H165953   2.937   3.166   0.181 -1.2612 -0.9396  0.1338
14846TIP3    H265954   2.927   3.157   0.030  0.0847  1.5413 -0.1555
14847TIP3   OH265955   4.774   0.855   6.385 -0.3013 -0.1566 -0.1916
14847TIP3    H165956   4.861   0.878   6.354  0.1514 -0.9098  0.4777
14847TIP3    H265957   4.748   0.927   6.442  0.9143 -1.0154  1.5402
14848TIP3   OH265958   1.117   0.728   4.470  0.0692 -0.1016 -0.3524
14848TIP3    H165959   1.205   0.760   4.449 -0.2970  1.5017  0.3929
14848TIP3    H265960   1.113   0.641   4.431  2.5474 -0.8829  0.9462
14849TIP3   OH265961   1.109   2.686   4.991 -0.1251 -0.2361  0.0875
14849TIP3    H165962   1.117   2.608   5.045 -0.6087  0.0973  0.6556
14849TIP3    H265963   1.140   2.659   4.905 -1.5732 -1.4519 -0.0983
14850TIP3   OH265964   3.969   4.883  11.627 -0.1344 -0.3707 -0.4101
14850TIP3    H165965   3.985   4.938  11.704 -0.0887 -1.3479  0.2902
14850TIP3    H265966   4.053   4.841  11.609 -0.5094 -1.2637 -0.0987
14851TIP3   OH265967   0.412   1.136   2.454  0.3454 -0.0231  0.3481
14851TIP3    H165968   0.505   1.151   2.471  1.0564 -0.5421 -2.5978
14851TIP3    H265969   0.390   1.061   2.510  1.6786  0.0684  1.0481
14852TIP3   OH265970   0.421   4.474   0.004 -0.4744 -0.4538  0.1699
14852TIP3    H165971   0.460   4.390   0.027 -1.2164 -0.4336  1.6271
14852TIP3    H265972   0.493   4.536   0.010 -0.4693 -0.5702  1.8587
14853TIP3   OH265973   6.622   3.612   2.309 -0.0944  0.4777  0.7324
14853TIP3    H165974   6.538   3.567   2.299 -0.4457  0.9671  1.4242
14853TIP3    H265975   6.687   3.544   2.290 -0.6275 -0.1168  0.9781
14854TIP3   OH265976   2.423   4.811  14.129 -0.5280  0.9491 -0.0851
14854TIP3    H165977   2.492   4.759  14.087 -0.5611  0.4344  0.4691
14854TIP3    H265978   2.393   4.871  14.062 -0.1799  0.5378 -0.6169
14855TIP3   OH265979   6.104   3.431  13.704 -0.0056  0.0885  0.3128
14855TIP3    H165980   6.028   3.446  13.760 -1.1751  1.4627 -1.5142
14855TIP3    H265981   6.069   3.378  13.632  0.5568  1.3853 -0.9504
14856TIP3   OH265982   4.081   2.950   0.994 -0.2851 -0.0946 -0.5218
14856TIP3    H165983   4.073   2.879   1.058 -0.0980 -0.3766 -0.8051
14856TIP3    H265984   4.058   3.029   1.042  0.9145 -0.1561  0.1923
14857TIP3   OH265985   5.373   0.908  12.361 -0.2603  0.5643  0.0088
14857TIP3    H165986   5.437   0.878  12.426  0.0975  1.1690 -0.0610
14857TIP3    H265987   5.330   0.983  12.403  0.5138  1.4588 -0.7376
14858TIP3   OH265988   3.471   5.594  12.692  0.1517  0.0890  0.1358
14858TIP3    H165989   3.543   5.633  12.643 -0.1684  1.2055  0.5075
14858TIP3    H265990   3.427   5.536  12.630  1.3104 -0.5548 -0.1169
14859TIP3   OH265991   3.225   5.962   4.191  0.8396  0.0726 -0.1782
14859TIP3    H165992   3.225   5.980   4.097  0.8823  2.7941  0.2827
14859TIP3    H265993   3.317   5.951   4.213  0.7443 -3.1958 -0.7767
14860TIP3   OH265994   2.437   2.581   3.725  0.6118 -0.3960 -0.8775
14860TIP3    H165995   2.442   2.518   3.796 -1.0961  1.4433  1.0189
14860TIP3    H265996   2.350   2.568   3.687  0.5507  0.2487 -0.9803
14861TIP3   OH265997   2.775   0.176  13.479  0.1733 -0.5412  0.7303
14861TIP3    H165998   2.735   0.135  13.402 -0.0578 -1.0400  1.1156
14861TIP3    H265999   2.838   0.239  13.442 -2.0942  1.5093  0.0623
14862TIP3   OH266000   3.618   0.176  15.634 -0.1896  0.4310  0.6585
14862TIP3    H166001   3.666   0.186  15.552  1.4351 -0.3285  1.4685
14862TIP3    H266002   3.563   0.255  15.640  0.7559  1.2008 -0.4341
14863TIP3   OH266003   0.997   6.035  11.061 -0.0429 -0.5161  0.3991
14863TIP3    H166004   1.013   6.000  11.149 -1.8667 -2.7383 -0.0620
14863TIP3    H266005   1.074   6.010  11.011  1.1956  1.1080  1.3955
14864TIP3   OH266006   6.271   5.640   3.751 -0.5721  0.2818  0.5092
14864TIP3    H166007   6.230   5.604   3.672  1.5477 -0.6117 -0.2556
14864TIP3    H266008   6.241   5.731   3.754  0.4975  0.8088 -2.2457
14865TIP3   OH266009   5.521   4.855  13.969 -0.6946 -0.2753  0.5800
14865TIP3    H166010   5.427   4.844  13.982 -0.4912 -1.2404  1.4200
14865TIP3    H266011   5.548   4.776  13.922  0.1068 -1.4350  2.8049
14866TIP3   OH266012   0.874   6.061  12.068  0.6647 -0.2354  0.0249
14866TIP3    H166013   0.938   6.031  12.004 -0.0129 -0.9747 -0.3101
14866TIP3    H266014   0.797   6.086  12.017  0.2496 -0.4862  0.5158
14867TIP3   OH266015   6.458   4.752  11.004 -0.2758  0.1612 -0.2687
14867TIP3    H166016   6.485   4.674  10.956  0.3934  0.2645 -0.0766
14867TIP3    H266017   6.368   4.735  11.030 -1.0500  0.5611 -2.4968
14868TIP3   OH266018   5.059   1.107  10.471  0.5037 -0.4112 -0.9052
14868TIP3    H166019   5.030   1.032  10.524 -3.7544  0.9679 -0.9363
14868TIP3    H266020   5.040   1.082  10.381 -0.8763  0.5647 -0.9242
14869TIP3   OH266021   6.389   4.470   4.639  0.0627  0.5596  0.2594
14869TIP3    H166022   6.295   4.452   4.650  0.1749 -0.8407 -0.8109
14869TIP3    H266023   6.421   4.482   4.729 -0.8471 -0.6305  0.7852
14870TIP3   OH266024   1.025   4.482   2.736 -0.6926 -0.3262  0.6881
14870TIP3    H166025   1.095   4.545   2.754 -1.0950  0.6358 -0.9175
14870TIP3    H266026   1.059   4.399   2.768  1.8299 -0.1811 -1.2968
14871TIP3   OH266027   2.621   0.579  10.882 -1.2197 -0.4517  0.0338
14871TIP3    H166028   2.603   0.609  10.793 -1.7689 -1.9955 -0.4170
14871TIP3    H266029   2.585   0.647  10.938 -1.6158  0.1508 -0.9201
14872TIP3   OH266030   1.161   6.595   4.681  0.1578  0.3896  0.0194
14872TIP3    H166031   1.123   6.531   4.741 -2.4036  1.5528 -0.2400
14872TIP3    H266032   1.239   6.628   4.726  0.7256 -1.8248  0.7658
14873TIP3   OH266033   2.855   0.999   1.015 -0.0079  0.3669 -0.2688
14873TIP3    H166034   2.908   0.928   1.051 -0.5860 -0.0196 -0.1769
14873TIP3    H266035   2.804   1.031   1.089  0.6912  1.2947 -0.1646
14874TIP3   OH266036   0.251   2.444   6.308 -0.0562 -0.4539  0.1862
14874TIP3    H166037   0.294   2.358   6.312 -0.6401 -0.7074  1.3899
14874TIP3    H266038   0.159   2.424   6.289 -0.1329 -0.0619  0.1474
14875TIP3   OH266039   1.417   0.273   5.226  0.2347  0.0765  0.1417
14875TIP3    H166040   1.466   0.345   5.267 -0.6127  0.1514  1.0481
14875TIP3    H266041   1.438   0.196   5.279  0.3650 -0.1488 -0.2355
14876TIP3   OH266042   2.059   1.779   0.646  0.0900 -0.1259  0.2367
14876TIP3    H166043   2.155   1.778   0.656 -0.0766 -0.2647  2.0592
14876TIP3    H266044   2.025   1.754   0.731 -1.6104  1.7635  0.1983
14877TIP3   OH266045   1.396   1.740  12.520  0.2098 -0.1039  0.0649
14877TIP3    H166046   1.450   1.816  12.497 -1.9649  0.7904 -2.6714
14877TIP3    H266047   1.436   1.667  12.473 -0.0590  0.2441 -0.7263
14878TIP3   OH266048   2.507   4.761   1.678 -0.4039  0.0289 -0.0959
14878TIP3    H166049   2.536   4.714   1.600 -0.6557  0.1926 -0.2894
14878TIP3    H266050   2.507   4.695   1.748  1.4122  0.2275  0.1598
14879TIP3   OH266051   4.126   6.277   0.370 -1.0940 -0.5470  0.0132
14879TIP3    H166052   4.060   6.212   0.393 -1.3600 -0.0086  0.7982
14879TIP3    H266053   4.204   6.225   0.349 -2.2531 -1.3240 -2.8414
14880TIP3   OH266054   3.437   4.993  14.270 -0.3809  0.1840  0.3418
14880TIP3    H166055   3.364   4.932  14.270 -1.3320  1.2471 -1.3853
14880TIP3    H266056   3.515   4.938  14.282 -1.2988 -1.1957  0.1597
14881TIP3   OH266057   3.752   6.090   4.868 -0.0362  0.1901 -0.2446
14881TIP3    H166058   3.805   6.066   4.944  0.1717 -0.1008 -0.4788
14881TIP3    H266059   3.674   6.130   4.905  0.5590  1.0633  0.1016
14882TIP3   OH266060   5.063   0.947  16.077 -0.3348 -0.0904 -0.2594
14882TIP3    H166061   5.086   0.920  16.166  0.5624 -0.9113 -0.7261
14882TIP3    H266062   4.968   0.936  16.073 -0.3048 -0.6701  0.4008
14883TIP3   OH266063   2.039   1.843  12.700 -0.9283 -0.0728  0.2622
14883TIP3    H166064   2.040   1.904  12.627  0.0287 -2.2574 -1.6928
14883TIP3    H266065   1.951   1.805  12.698 -1.5127  1.1331  1.4564
14884TIP3   OH266066   1.286   5.534  15.646 -0.4240 -0.0069  0.1592
14884TIP3    H166067   1.328   5.615  15.619 -0.9444  0.5973  1.1096
14884TIP3    H266068   1.241   5.556  15.728 -0.0742 -1.4006  0.7596
14885TIP3   OH266069   1.508   5.162   6.677 -0.6611  0.2455  0.5189
14885TIP3    H166070   1.569   5.106   6.726  0.8551  1.7565  0.4925
14885TIP3    H266071   1.421   5.135   6.706  0.0734 -1.0244  1.6602
14886TIP3   OH266072   6.149   2.298  11.812 -0.0737 -0.2375  0.6609
14886TIP3    H166073   6.079   2.239  11.782  0.9072 -0.0700 -2.2309
14886TIP3    H266074   6.105   2.382  11.824 -0.3484  0.0297 -1.7569
14887TIP3   OH266075   4.179   1.494   0.373 -0.4513  0.3792  0.2369
14887TIP3    H166076   4.194   1.451   0.289  0.0652  1.8642 -0.4687
14887TIP3    H266077   4.235   1.447   0.435 -0.5363 -0.4799 -0.3158
14888TIP3   OH266078   1.528   3.228   4.040 -0.2099  0.3305  0.5230
14888TIP3    H166079   1.542   3.323   4.033 -0.6894  0.2576 -2.6332
14888TIP3    H266080   1.608   3.189   4.006 -0.2181 -0.4226  1.3328
14889TIP3   OH266081   6.070   1.370   5.032  0.3907 -0.1824  0.1623
14889TIP3    H166082   6.069   1.274   5.031  0.6447 -0.1970  0.6393
14889TIP3    H266083   6.074   1.395   4.940 -1.9763 -0.5770 -0.0990
14890TIP3   OH266084   6.393   5.450   5.091 -0.1919  0.1891 -0.1372
14890TIP3    H166085   6.330   5.421   5.156  0.1527  1.0044  0.5871
14890TIP3    H266086   6.345   5.512   5.036 -0.0576  0.7434  0.3605
14891TIP3   OH266087   1.282   0.261  11.296  0.0345  0.0189  0.1144
14891TIP3    H166088   1.323   0.348  11.301 -0.4044  0.4039 -1.9489
14891TIP3    H266089   1.279   0.231  11.386  0.9657  1.7989  0.7949
14892TIP3   OH266090   4.406   5.658   4.451  0.0313  0.4157  0.4187
14892TIP3    H166091   4.377   5.732   4.399  1.2174  0.3579 -0.3755
14892TIP3    H266092   4.484   5.689   4.497  0.4769 -0.2945  0.1679
14893TIP3   OH266093   1.351   4.498  10.799  0.1368  0.1485  0.0078
14893TIP3    H166094   1.302   4.527  10.723 -1.2520 -1.3176  0.3021
14893TIP3    H266095   1.406   4.426  10.767  0.3767  0.2564  0.1690
14894TIP3   OH266096   1.272   5.907  15.629 -0.1177 -0.0631  0.2534
14894TIP3    H166097   1.288   5.880  15.719 -0.9110 -0.7037  0.2209
14894TIP3    H266098   1.212   5.982  15.636 -0.2544 -0.1727  0.2568
14895TIP3   OH266099   3.086   1.758  16.106 -0.0971  0.9692  0.3890
14895TIP3    H166100   3.026   1.812  16.054 -2.3477 -1.0049  0.7320
14895TIP3    H266101   3.036   1.738  16.186 -0.1648 -2.9199 -0.4303
14896TIP3   OH266102   1.277   5.929  12.727  0.3911 -0.0037 -0.2972
14896TIP3    H166103   1.258   6.015  12.691  0.2584 -0.5079 -1.4666
14896TIP3    H266104   1.373   5.922  12.724  0.4803  0.4721  0.7327
14897TIP3   OH266105   3.242   1.354   3.025  0.2591 -0.1797  0.4823
14897TIP3    H166106   3.294   1.403   2.962 -0.8717 -1.6448 -1.7270
14897TIP3    H266107   3.300   1.284   3.056  0.9122  0.7169  1.3252
14898TIP3   OH266108   4.655   6.219   0.814 -0.2495 -0.3917 -0.3392
14898TIP3    H166109   4.704   6.230   0.732 -3.4036  2.0990 -2.1602
14898TIP3    H266110   4.690   6.287   0.872  1.2222 -1.4218  0.0436
14899TIP3   OH266111   5.510   0.869  15.778 -0.2833  0.1124 -0.4547
14899TIP3    H166112   5.584   0.890  15.720 -0.7757  0.7544 -0.8581
14899TIP3    H266113   5.464   0.952  15.789 -0.2269 -0.0173  0.8238
14900TIP3   OH266114   2.450   5.625  15.669  0.3768 -0.8594 -0.4710
14900TIP3    H166115   2.458   5.570  15.592  0.0824  1.3970 -2.2156
14900TIP3    H266116   2.401   5.571  15.732 -0.2393 -2.4204 -2.1988
14901TIP3   OH266117   5.594   3.395   3.160 -0.6412 -0.3844  0.2193
14901TIP3    H166118   5.556   3.481   3.143 -0.6734 -0.2166  1.1098
14901TIP3    H266119   5.683   3.400   3.126 -1.0886 -0.4783 -1.0398
14902TIP3   OH266120   0.193   5.355  15.073  0.0064 -0.4429  0.1439
14902TIP3    H166121   0.214   5.281  15.130 -0.5216  0.5781  1.7219
14902TIP3    H266122   0.097   5.357  15.070  0.0181  0.1346  0.0514
14903TIP3   OH266123   0.634   1.012  14.093 -0.2056 -0.9666 -0.4047
14903TIP3    H166124   0.669   0.964  14.168 -2.1710 -0.2195  1.0881
14903TIP3    H266125   0.696   1.084  14.079 -0.1645 -0.7140  0.9722
14904TIP3   OH266126   5.695   0.994   0.708 -0.1142 -0.0007 -0.5986
14904TIP3    H166127   5.744   0.912   0.695  0.1064 -0.3016  1.7088
14904TIP3    H266128   5.738   1.035   0.783 -1.7262  1.0610 -0.2211
14905TIP3   OH266129   1.977   5.387   5.220 -0.1969  0.0712  0.7124
14905TIP3    H166130   1.891   5.354   5.242 -1.2724  1.3641 -1.2473
14905TIP3    H266131   1.964   5.480   5.204  1.2290  0.0317 -1.0602
14906TIP3   OH266132   2.784   3.621   6.624  0.7476 -0.5161  0.2443
14906TIP3    H166133   2.827   3.545   6.662  1.5916 -0.5510 -0.7460
14906TIP3    H266134   2.849   3.691   6.628  0.7174 -0.4125 -0.7473
14907TIP3   OH266135   5.352   5.069   1.959  0.2681 -0.0948 -0.0056
14907TIP3    H166136   5.258   5.084   1.974  0.3559  1.8027 -0.9369
14907TIP3    H266137   5.358   5.049   1.865  0.7302 -1.0839  0.2232
14908TIP3   OH266138   4.338   0.861   5.506  0.0046 -0.3037  0.0014
14908TIP3    H166139   4.244   0.873   5.516  0.0070 -1.1640  1.4353
14908TIP3    H266140   4.358   0.783   5.559  1.3573 -0.7806 -1.1441
14909TIP3   OH266141   5.443   0.136   5.428  0.2007  0.7713 -0.6908
14909TIP3    H166142   5.455   0.059   5.373  0.5503  0.2226  0.1360
14909TIP3    H266143   5.451   0.103   5.517  0.8428  1.8443 -0.3307
14910TIP3   OH266144   2.067   2.304   3.311 -0.0812 -0.9710 -0.4491
14910TIP3    H166145   2.035   2.331   3.398 -0.3336 -1.3275 -0.4291
14910TIP3    H266146   1.988   2.303   3.256 -0.0031 -1.2624 -0.5529
14911TIP3   OH266147   2.261   4.831   2.339 -0.0869 -0.1565 -0.0496
14911TIP3    H166148   2.284   4.859   2.428 -0.0064 -1.5071  0.3753
14911TIP3    H266149   2.256   4.736   2.345 -0.2932 -0.2451 -1.4546
14912TIP3   OH266150   3.937   3.085  16.624  0.1154  0.3549 -0.1084
14912TIP3    H166151   3.935   3.076  16.528  0.0280 -0.5556 -0.0307
14912TIP3    H266152   4.028   3.065  16.648  0.6914  2.6402 -0.1609
14913TIP3   OH266153   0.170   1.807  11.433 -0.6002  0.2774  0.0933
14913TIP3    H166154   0.087   1.824  11.477 -0.7162  0.5141 -0.2140
14913TIP3    H266155   0.155   1.832  11.342 -0.2841  0.0339 -0.0294
14914TIP3   OH266156   0.524   3.310   2.682 -0.3026  0.4096 -0.3517
14914TIP3    H166157   0.441   3.262   2.681 -1.3992  2.2130 -0.0412
14914TIP3    H266158   0.559   3.298   2.594  0.0115 -1.8109  0.0203
14915TIP3   OH266159   3.208   0.532  12.389  0.1968 -0.8015  0.1055
14915TIP3    H166160   3.198   0.586  12.310  0.1756 -1.1571 -0.1397
14915TIP3    H266161   3.118   0.506  12.411  0.0471  0.3666  1.0214
14916TIP3   OH266162   1.081   6.233   3.448 -0.0995  0.2542  0.0312
14916TIP3    H166163   1.152   6.294   3.433  1.2933 -1.2019  0.3922
14916TIP3    H266164   1.012   6.259   3.387  1.3247  0.8187 -1.3752
14917TIP3   OH266165   0.100   4.186  14.783  0.7223  0.8295 -0.0357
14917TIP3    H166166   0.054   4.237  14.716  0.7159 -0.0812 -0.7426
14917TIP3    H266167   0.080   4.095  14.761 -1.3254  0.5189  2.6346
14918TIP3   OH266168   1.013   0.835   0.974  0.1237 -0.0314 -0.4351
14918TIP3    H166169   1.020   0.902   0.906 -1.8845  1.5804  0.8515
14918TIP3    H266170   0.959   0.875   1.042 -2.0320 -3.2651 -0.0083
14919TIP3   OH266171   0.813   4.751   0.577  0.4032  0.4661  0.6356
14919TIP3    H166172   0.835   4.661   0.599  1.2035  0.8677  1.5487
14919TIP3    H266173   0.822   4.755   0.482  0.9722 -0.2565  0.6504
14920TIP3   OH266174   6.353   4.318   5.905 -0.1165  0.4046 -0.4603
14920TIP3    H166175   6.328   4.399   5.860 -0.4554  0.3595 -0.3542
14920TIP3    H266176   6.281   4.301   5.965  0.7612  0.9576  0.7843
14921TIP3   OH266177   4.844   5.975   5.852  0.1192  0.0557 -0.6080
14921TIP3    H166178   4.871   6.059   5.888 -0.4263  0.6737 -1.6199
14921TIP3    H266179   4.920   5.946   5.801  0.3381 -0.1262 -0.1931
14922TIP3   OH266180   0.699   1.898  15.427  0.6503 -0.7301 -0.0414
14922TIP3    H166181   0.714   1.914  15.520  1.7120  1.4670 -0.5289
14922TIP3    H266182   0.615   1.939  15.409  0.4036 -1.2316 -0.0383
14923TIP3   OH266183   3.779   5.932  14.305 -0.2350  0.3924 -0.1884
14923TIP3    H166184   3.736   5.895  14.228  0.2594 -0.4293 -0.0767
14923TIP3    H266185   3.720   6.003  14.333 -1.1027 -0.1763 -0.5231
14924TIP3   OH266186   0.925   1.141   6.321 -0.1972  0.0700  0.8559
14924TIP3    H166187   0.833   1.167   6.316 -0.2776 -0.0083  1.8380
14924TIP3    H266188   0.970   1.216   6.360  0.1691  0.1314  0.3204
14925TIP3   OH266189   4.620   6.501   4.222 -1.0072 -0.5788 -0.2047
14925TIP3    H166190   4.714   6.505   4.242 -0.8944  0.3001 -0.8504
14925TIP3    H266191   4.615   6.448   4.142 -1.2017 -1.7179  0.5287
14926TIP3   OH266192   1.630   4.207  11.069  0.4082  0.3277  0.1621
14926TIP3    H166193   1.691   4.216  10.997  1.3732  2.5752  1.1754
14926TIP3    H266194   1.544   4.206  11.028  1.0061 -0.2473 -1.1120
14927TIP3   OH266195   4.043   0.023   4.779  0.5678  0.2273 -0.4614
14927TIP3    H166196   4.009  -0.051   4.730  1.3535  0.9749 -2.2118
14927TIP3    H266197   4.112  -0.013   4.835  0.0260 -0.5480 -0.2799
14928TIP3   OH266198   2.952   5.535  13.624  1.0134  0.0593  0.2716
14928TIP3    H166199   2.921   5.622  13.599  1.8120  0.6443  1.2528
14928TIP3    H266200   3.035   5.551  13.669  0.5192 -1.0817  1.6634
14929TIP3   OH266201   3.043   0.423   5.834 -0.1660  0.0068  0.5022
14929TIP3    H166202   3.122   0.446   5.787 -1.0483  0.1183 -0.9875
14929TIP3    H266203   3.053   0.465   5.920  1.1632  0.3923  0.1775
14930TIP3   OH266204   2.710   0.635  16.530 -0.0773  0.3251 -0.2255
14930TIP3    H166205   2.730   0.694  16.603 -0.5642  1.0754 -0.6869
14930TIP3    H266206   2.616   0.618  16.538  0.0542 -0.3598 -0.1198
14931TIP3   OH266207   3.350   6.088   2.963  0.3921 -0.1700 -0.4304
14931TIP3    H166208   3.343   6.176   3.001  1.6430  0.1123 -0.7989
14931TIP3    H266209   3.337   6.029   3.037  3.0686  0.3690  0.5929
14932TIP3   OH266210   2.289   2.163  15.190 -0.3080  0.0746  0.3019
14932TIP3    H166211   2.337   2.080  15.193  1.6720  0.9951 -2.5206
14932TIP3    H266212   2.197   2.137  15.179  0.3465 -1.7820 -1.2861
14933TIP3   OH266213   2.134   3.537  15.578 -0.0217  0.3474 -0.1961
14933TIP3    H166214   2.227   3.559  15.577 -0.1006  0.6890 -1.2458
14933TIP3    H266215   2.112   3.530  15.671  1.2193 -0.4965  0.0583
14934TIP3   OH266216   1.777   4.189  11.516 -0.5811 -0.0342 -0.4770
14934TIP3    H166217   1.858   4.190  11.567  0.1117 -1.4120 -1.5017
14934TIP3    H266218   1.759   4.096  11.500 -1.1890  0.3312 -2.0819
14935TIP3   OH266219   1.068   6.461   1.899 -0.7098 -0.0042  0.0858
14935TIP3    H166220   0.996   6.492   1.845  0.3737  0.7717 -0.9775
14935TIP3    H266221   1.119   6.403   1.841  1.0555  1.6613 -0.1335
14936TIP3   OH266222   1.950   4.122  13.650  0.4712 -0.1368  0.5850
14936TIP3    H166223   1.975   4.137  13.741 -0.6597  1.1870  0.7067
14936TIP3    H266224   1.913   4.205  13.621  0.7530 -0.5498 -1.0797
14937TIP3   OH266225   5.367   6.358   3.169  0.6000  0.1928  0.5499
14937TIP3    H166226   5.387   6.298   3.241 -0.4912 -0.4017  0.3944
14937TIP3    H266227   5.447   6.362   3.117  0.9525 -0.4906  1.0236
14938TIP3   OH266228   4.492   6.673  14.886 -0.4366  0.2529 -0.3977
14938TIP3    H166229   4.499   6.585  14.851 -1.2521  0.1824 -0.3990
14938TIP3    H266230   4.492   6.661  14.981 -0.8078  0.2288 -0.4003
14939TIP3   OH266231   3.899   3.345  13.073 -0.1861  0.3261 -0.7559
14939TIP3    H166232   3.941   3.419  13.030  1.3736 -0.0419  0.0835
14939TIP3    H266233   3.946   3.268  13.040 -1.0814 -0.2280 -0.7976
14940TIP3   OH266234   0.331   1.808  13.122 -0.2345 -0.1453 -0.0360
14940TIP3    H166235   0.386   1.790  13.198 -1.6001  3.2230  1.9462
14940TIP3    H266236   0.249   1.763  13.141 -0.1822 -0.2603 -0.0824
14941TIP3   OH266237   2.890   0.646   0.866 -0.2889  0.1944 -0.2624
14941TIP3    H166238   2.872   0.580   0.799 -0.9123  1.4383 -1.3541
14941TIP3    H266239   2.974   0.619   0.903 -0.9006 -1.6537 -0.0953
14942TIP3   OH266240   4.364   0.824  14.652 -0.0936  0.8391 -0.4617
14942TIP3    H166241   4.318   0.816  14.568  0.3207 -0.6093 -0.5874
14942TIP3    H266242   4.299   0.796  14.717  0.3712 -0.5943 -0.5790
14943TIP3   OH266243   4.177   5.491   6.093  0.0384 -0.3917  0.3789
14943TIP3    H166244   4.137   5.491   6.180 -1.3282  1.5918 -0.1814
14943TIP3    H266245   4.106   5.467   6.034  0.6331 -0.4712 -0.3181
14944TIP3   OH266246   0.746   5.953  11.411  0.0712  1.0888  0.4367
14944TIP3    H166247   0.796   5.994  11.482 -0.3192 -0.6147  1.7489
14944TIP3    H266248   0.699   5.881  11.452  0.3960 -0.4469 -1.6752
14945TIP3   OH266249   4.124   3.415   4.415  0.1117 -0.5477  0.3982
14945TIP3    H166250   4.140   3.404   4.321  1.7233  0.1370  0.5504
14945TIP3    H266251   4.136   3.327   4.451  0.5747 -0.6220  0.0831
14946TIP3   OH266252   2.930   0.508  15.429 -0.0350 -0.1356 -0.7300
14946TIP3    H166253   2.849   0.457  15.418 -0.5860  0.7569 -0.9570
14946TIP3    H266254   3.000   0.445  15.413 -0.7025 -0.5981 -1.9635
14947TIP3   OH266255   0.983   6.209  13.003  0.2248  0.0207  0.1657
14947TIP3    H166256   0.997   6.197  12.909  0.2259 -0.3725  0.2155
14947TIP3    H266257   0.893   6.241  13.010 -0.2169 -1.1692  0.1190
14948TIP3   OH266258   1.194   4.000  12.812  0.4151  0.3295  0.0706
14948TIP3    H166259   1.209   4.095  12.812 -0.9000  0.5542  0.3641
14948TIP3    H266260   1.101   3.990  12.833  0.0095 -0.9559 -2.0609
14949TIP3   OH266261   3.361   3.142   0.933 -0.8983  0.0783  0.2600
14949TIP3    H166262   3.395   3.189   0.857  0.0555  0.1588  0.7274
14949TIP3    H266263   3.289   3.198   0.965 -2.0733 -0.5069 -1.2207
14950TIP3   OH266264   3.975   6.692   3.526  0.2830  0.4882 -0.1300
14950TIP3    H166265   4.049   6.678   3.466 -0.0251 -1.3716 -0.1220
14950TIP3    H266266   3.918   6.616   3.512  0.1986 -0.0117  2.5356
14951TIP3   OH266267   2.009   3.334  14.450 -0.4603  0.2469  0.0824
14951TIP3    H166268   1.950   3.399  14.413  1.5607  1.8650 -0.5110
14951TIP3    H266269   2.056   3.380  14.519 -1.0399 -1.4754  1.7228
14952TIP3   OH266270   5.269   1.079  15.238  0.3178  0.2718  0.1428
14952TIP3    H166271   5.268   1.146  15.306 -0.3031  0.2021  0.2089
14952TIP3    H266272   5.329   1.012  15.272  1.4513  1.0660 -0.2128
14953TIP3   OH266273   2.380   6.755  15.049  0.2222 -0.0997  0.4670
14953TIP3    H166274   2.376   6.688  14.982 -1.0093  1.0840 -0.7228
14953TIP3    H266275   2.306   6.735  15.107  0.5831 -0.4584  0.8031
14954TIP3   OH266276   2.302   5.282   0.351 -0.0868 -0.6497 -0.0683
14954TIP3    H166277   2.270   5.195   0.374  0.5596 -0.6448  0.9365
14954TIP3    H266278   2.284   5.335   0.429 -0.5931  0.1479 -0.7200
14955TIP3   OH266279   0.198   6.196   1.544  0.0475 -0.0179 -0.0307
14955TIP3    H166280   0.289   6.168   1.539 -0.3591 -1.3588 -0.5305
14955TIP3    H266281   0.185   6.221   1.635  0.8354 -0.0757  0.1034
14956TIP3   OH266282   3.996   4.607  13.765  0.1992 -0.0758  0.0590
14956TIP3    H166283   3.952   4.658  13.832 -0.4151  1.4859 -1.4522
14956TIP3    H266284   4.084   4.593  13.799 -0.6147 -1.0039  1.9867
14957TIP3   OH266285   0.927   3.411   2.823 -0.2839  0.1121 -0.2653
14957TIP3    H166286   0.926   3.424   2.728 -0.1884  2.4529  0.0011
14957TIP3    H266287   0.838   3.428   2.850 -0.3718 -0.8216  0.0637
14958TIP3   OH266288   1.914   3.732   4.954 -0.3282  0.0912  0.0771
14958TIP3    H166289   1.993   3.684   4.979 -0.2601  0.0581 -0.2016
14958TIP3    H266290   1.887   3.693   4.871 -0.0777  0.7625 -0.3286
14959TIP3   OH266291   0.054   2.567   4.062 -0.8175 -0.5180  0.3725
14959TIP3    H166292   0.024   2.543   4.150 -0.5929  2.7068  1.4776
14959TIP3    H266293  -0.023   2.558   4.007 -1.9711  0.7487  1.6836
14960TIP3   OH266294   6.454   2.480   0.551 -0.6387  0.1470 -0.0506
14960TIP3    H166295   6.459   2.460   0.457 -0.1915  1.4690 -0.3247
14960TIP3    H266296   6.380   2.428   0.582  0.0317 -1.3439 -0.8479
14961TIP3   OH266297   2.089   2.038   3.262 -0.3758 -0.6479 -0.3130
14961TIP3    H166298   2.029   2.034   3.337 -2.0063  0.0441 -1.5319
14961TIP3    H266299   2.118   2.129   3.258 -0.4394 -0.6396 -0.6348
14962TIP3   OH266300   0.019   3.423  17.323 -0.3022 -0.4382 -0.9237
14962TIP3    H166301   0.014   3.351  17.260  4.3490 -0.4924 -1.5635
14962TIP3    H266302   0.047   3.498  17.271  2.0946 -0.0861  0.6873
14963TIP3   OH266303   0.312   4.798   1.204 -0.3251 -0.2074 -0.3804
14963TIP3    H166304   0.275   4.820   1.289  0.6256  0.0242 -0.0105
14963TIP3    H266305   0.370   4.724   1.221  0.6682  0.4854 -0.6132
14964TIP3   OH266306   5.063   1.746  16.411  0.0251 -0.5021 -0.0337
14964TIP3    H166307   5.127   1.802  16.367  1.2689 -0.9918  1.0861
14964TIP3    H266308   5.015   1.806  16.469 -1.4693  0.1017 -1.8070
14965TIP3   OH266309   4.393   5.093   1.088 -0.1872  0.9440 -0.2574
14965TIP3    H166310   4.361   5.013   1.048  0.3595  0.4005  0.3637
14965TIP3    H266311   4.365   5.088   1.179  1.4158  0.5571  0.2547
14966TIP3   OH266312   6.337   4.735   6.126 -0.2589  0.3993  0.2972
14966TIP3    H166313   6.304   4.734   6.216  0.9339 -2.7954  0.8465
14966TIP3    H266314   6.270   4.689   6.075  0.4816 -0.6693  0.2448
14967TIP3   OH266315   6.494   5.044  13.458  0.7293 -0.9317 -0.4255
14967TIP3    H166316   6.537   4.971  13.503  0.3096 -0.7694  0.2580
14967TIP3    H266317   6.559   5.115  13.460  1.0035 -1.1711 -0.7730
14968TIP3   OH266318   2.816   1.685  11.511  0.2047  0.4081  0.1161
14968TIP3    H166319   2.761   1.647  11.442  0.1834 -1.3536  1.0297
14968TIP3    H266320   2.755   1.734  11.566 -0.1906 -0.1152  0.1622
14969TIP3   OH266321   5.766   4.107   3.509 -0.5182 -0.5418  0.2698
14969TIP3    H166322   5.758   4.189   3.460 -2.4073  0.5706  2.2399
14969TIP3    H266323   5.695   4.052   3.476 -1.8290  0.2302  1.6562
14970TIP3   OH266324   0.191   5.843   2.362 -0.0956 -0.3583 -0.4775
14970TIP3    H166325   0.221   5.864   2.274  1.1489  0.1064  0.0371
14970TIP3    H266326   0.257   5.784   2.397 -0.2515 -0.0539  0.3598
14971TIP3   OH266327   0.270   6.613   5.309 -0.4728  0.3747 -0.0129
14971TIP3    H166328   0.360   6.642   5.323 -0.2238  0.7532 -2.0538
14971TIP3    H266329   0.221   6.694   5.297 -0.2455  0.1788 -3.1679
14972TIP3   OH266330   0.022   4.559  12.462 -0.1721 -0.3783  0.3559
14972TIP3    H166331   0.072   4.582  12.540 -0.0376 -0.4239  0.2842
14972TIP3    H266332  -0.047   4.624  12.457  0.2976  0.1120  0.0691
14973TIP3   OH266333   2.789   1.539  16.000 -0.4947  0.4979 -0.1883
14973TIP3    H166334   2.774   1.630  16.024  2.3475  0.9506  0.2100
14973TIP3    H266335   2.867   1.513  16.049 -1.4521 -2.3242  0.0556
14974TIP3   OH266336   4.232   5.746   2.545 -0.6635 -0.5439 -0.8438
14974TIP3    H166337   4.322   5.770   2.525 -0.6057  1.6257  1.4675
14974TIP3    H266338   4.179   5.806   2.491 -0.5518  1.8313  1.4555
14975TIP3   OH266339   1.344   0.455   5.507 -0.0703  0.1800 -0.1084
14975TIP3    H166340   1.361   0.440   5.600 -0.6663  1.1822  0.1740
14975TIP3    H266341   1.252   0.430   5.495 -0.2808  0.9584 -0.2074
14976TIP3   OH266342   5.420   0.499  13.793 -0.1566 -0.4311 -0.1600
14976TIP3    H166343   5.377   0.515  13.877 -0.7974  2.2529 -0.8880
14976TIP3    H266344   5.370   0.552  13.731  2.1361  0.0840 -1.6664
14977TIP3   OH266345   3.861   3.943  16.187 -0.3020 -0.5485  0.0484
14977TIP3    H166346   3.774   3.948  16.226 -0.4165 -2.9760  0.2132
14977TIP3    H266347   3.845   3.941  16.092 -0.3797 -0.4774  0.0612
14978TIP3   OH266348   4.664   5.927   4.597  0.4595  0.2620 -0.2719
14978TIP3    H166349   4.722   5.938   4.672 -2.5872  0.9786  2.1852
14978TIP3    H266350   4.675   5.836   4.571  1.4515 -0.0717  1.1889
14979TIP3   OH266351   2.016   2.047  15.207  0.0683 -0.6581 -0.1654
14979TIP3    H166352   2.028   2.094  15.124 -0.5110  0.8147  0.5498
14979TIP3    H266353   1.924   2.020  15.205 -0.6149  1.3570  0.9194
14980TIP3   OH266354   3.612   5.916   0.280  0.6249 -0.8050  0.0896
14980TIP3    H166355   3.530   5.873   0.256  0.4960 -1.1841  1.1428
14980TIP3    H266356   3.621   5.899   0.374  0.0709  2.2881  0.8173
14981TIP3   OH266357   5.847   6.377  15.458  0.3464  0.2809  0.1712
14981TIP3    H166358   5.890   6.462  15.461  1.9799 -0.4694 -0.9838
14981TIP3    H266359   5.801   6.376  15.374 -0.6775  0.4490  0.7025
14982TIP3   OH266360   1.333   2.795   2.443  0.6151 -0.0203  0.0997
14982TIP3    H166361   1.342   2.710   2.487 -0.9294 -0.4092 -0.2780
14982TIP3    H266362   1.315   2.773   2.352  1.8715  0.7634 -0.3688
14983TIP3   OH266363   6.254   3.625  12.309  0.2632  0.5236  0.2587
14983TIP3    H166364   6.279   3.638  12.217  0.5195  1.4039  0.4495
14983TIP3    H266365   6.158   3.632  12.308  0.1239 -0.9699 -0.1642
14984TIP3   OH266366   5.226   4.199  14.232 -0.3757 -0.0802 -0.0872
14984TIP3    H166367   5.302   4.142  14.237 -0.3699 -0.0086  0.7272
14984TIP3    H266368   5.209   4.225  14.322 -1.8252 -0.6999 -0.1613
14985TIP3   OH266369   0.522   6.706   4.088 -0.0246  0.1428 -0.0812
14985TIP3    H166370   0.468   6.718   4.167 -1.8839 -0.0918 -1.2553
14985TIP3    H266371   0.600   6.660   4.119 -0.4312  0.5841  1.7095
14986TIP3   OH266372   0.435   0.497   2.182 -0.5829 -0.7046 -0.4023
14986TIP3    H166373   0.469   0.582   2.208 -1.8117 -0.3244 -0.0073
14986TIP3    H266374   0.498   0.466   2.116 -1.5219  1.6917 -2.5710
14987TIP3   OH266375   0.632   4.095   5.675  0.5776 -0.7122  0.1820
14987TIP3    H166376   0.638   4.011   5.631 -1.0123 -0.2910 -0.9499
14987TIP3    H266377   0.577   4.078   5.751  0.7714 -0.8190  0.2987
14988TIP3   OH266378   0.777   0.765  12.523  0.0672 -0.2535  0.2698
14988TIP3    H166379   0.689   0.792  12.497  0.1003 -1.5379 -1.3688
14988TIP3    H266380   0.829   0.845  12.518 -0.5194  0.0630 -1.1293
14989TIP3   OH266381   5.766   0.118   5.754 -0.0954 -0.1183 -0.2240
14989TIP3    H166382   5.749   0.208   5.725 -1.9723 -0.7458 -1.2918
14989TIP3    H266383   5.833   0.085   5.694 -2.5905 -0.7815 -2.8797
14990TIP3   OH266384   2.914   1.916   1.153  0.2714  0.2663 -0.3026
14990TIP3    H166385   2.883   1.860   1.224 -0.1330  0.6240 -0.1956
14990TIP3    H266386   2.896   1.867   1.074  0.4106  0.0122 -0.1777
14991TIP3   OH266387   5.465   1.220  14.587 -0.3050  0.8174 -0.3120
14991TIP3    H166388   5.472   1.237  14.681  0.4138 -0.3345 -0.1338
14991TIP3    H266389   5.374   1.190  14.575 -0.4084  1.0050  0.0111
14992TIP3   OH266390   4.446   2.203   6.047  0.5803  0.2157  0.4952
14992TIP3    H166391   4.410   2.115   6.060  0.8490  0.0335  0.0258
14992TIP3    H266392   4.435   2.220   5.954  2.9033 -0.3930  0.0499
14993TIP3   OH266393   5.121   5.213  15.784  0.1016 -0.2613  0.7072
14993TIP3    H166394   5.146   5.248  15.870 -1.7058 -0.1728  1.2361
14993TIP3    H266395   5.040   5.259  15.762 -0.0504 -1.0749 -0.5489
14994TIP3   OH266396   5.276   1.156  12.444 -0.0756  0.7713  0.0756
14994TIP3    H166397   5.181   1.143  12.444  0.0336 -0.1162  0.3262
14994TIP3    H266398   5.296   1.189  12.532  0.2043 -2.1934  1.2415
14995TIP3   OH266399   0.328   3.577  12.324  0.0140  0.1077  0.4103
14995TIP3    H166400   0.310   3.523  12.401  0.0032  1.6865  1.5614
14995TIP3    H266401   0.421   3.599  12.331  0.1708 -0.2619 -0.3907
14996TIP3   OH266402   2.383   0.654  16.230 -0.0959 -0.1801  0.1914
14996TIP3    H166403   2.445   0.583  16.245  0.9106  0.6004 -0.1190
14996TIP3    H266404   2.401   0.717  16.300  0.3726  0.6481 -0.6413
14997TIP3   OH266405   2.385   2.662  13.344 -0.2551  0.4393  0.0094
14997TIP3    H166406   2.412   2.658  13.253 -2.5975 -1.9839 -0.6924
14997TIP3    H266407   2.317   2.730  13.347 -2.0520 -1.2169 -0.7280
14998TIP3   OH266408   0.402   4.393   0.798 -0.2770  0.4611 -0.0992
14998TIP3    H166409   0.337   4.384   0.867 -0.3366 -2.4803 -0.3904
14998TIP3    H266410   0.378   4.326   0.733  1.6005  0.9627 -1.4157
14999TIP3   OH266411   5.328   3.749   2.094 -0.3212  0.2229  0.0514
14999TIP3    H166412   5.323   3.654   2.104 -1.0794  0.0268 -1.8121
14999TIP3    H266413   5.394   3.776   2.158  1.1724 -1.7503 -0.5402
15000TIP3   OH266414   3.646   4.617  11.779 -0.4953 -0.1651  0.3082
15000TIP3    H166415   3.669   4.554  11.711  1.4433  0.9947 -0.1741
15000TIP3    H266416   3.651   4.567  11.861 -0.3289 -0.9575 -0.1779
15001TIP3   OH266417   4.757   0.698   5.106  0.0365  0.5598 -0.8363
15001TIP3    H166418   4.820   0.734   5.045 -0.0514 -0.1064 -1.3330
15001TIP3    H266419   4.752   0.762   5.177 -0.9797  2.0719 -2.2278
15002TIP3   OH266420   0.481   0.310  11.287 -0.0181 -0.0724 -0.7248
15002TIP3    H166421   0.420   0.357  11.229 -1.1431  1.5981  1.6497
15002TIP3    H266422   0.566   0.350  11.270 -0.4028  0.6649 -0.9661
15003TIP3   OH266423   4.224   2.880   1.462  0.4174 -0.0673 -0.2518
15003TIP3    H166424   4.225   2.790   1.494 -0.5000 -1.2397 -3.1715
15003TIP3    H266425   4.313   2.896   1.432  0.6648  0.1457  0.5737
15004TIP3   OH266426   4.979   2.435  14.855 -0.4573  0.0456 -0.0874
15004TIP3    H166427   5.052   2.421  14.794 -1.3571  0.8032 -1.3939
15004TIP3    H266428   4.924   2.501  14.812 -0.9985  0.8126  1.6852
15005TIP3   OH266429   3.195   0.305   1.490 -0.0054  0.3501 -0.1367
15005TIP3    H166430   3.111   0.345   1.509  0.7605  0.5275  3.6700
15005TIP3    H266431   3.179   0.211   1.496 -0.0905  0.3493 -0.3546
15006TIP3   OH266432   4.273   5.470  14.536 -0.2202 -0.2619 -0.5043
15006TIP3    H166433   4.361   5.454  14.570  0.4165  2.5743 -0.5982
15006TIP3    H266434   4.285   5.486  14.443 -1.3225 -3.0020 -1.2076
15007TIP3   OH266435   5.875   5.825  11.184  0.0502  0.4244  0.2430
15007TIP3    H166436   5.813   5.888  11.146 -0.1007  0.7152  0.9472
15007TIP3    H266437   5.875   5.751  11.124 -0.6178  0.6327 -0.0210
15008TIP3   OH266438   3.428   5.530  14.477  0.1418 -0.1200  0.2549
15008TIP3    H166439   3.428   5.435  14.475 -1.1432 -0.2353 -3.7610
15008TIP3    H266440   3.519   5.555  14.462  0.1591 -0.7972 -0.8130
15009TIP3   OH266441   6.460   2.378   0.946 -0.4590 -0.3162  0.0981
15009TIP3    H166442   6.485   2.470   0.941 -1.5057  0.0164  0.6614
15009TIP3    H266443   6.445   2.362   1.039  1.5023 -1.5728  0.2360
15010TIP3   OH266444   5.577   1.670   5.006  0.2942 -0.3971 -0.1693
15010TIP3    H166445   5.505   1.609   5.019 -1.4685  1.3609 -1.1532
15010TIP3    H266446   5.585   1.717   5.089  0.7851 -1.0279  0.1536
15011TIP3   OH266447   5.987   3.879  15.394  0.3549 -0.2467  0.4887
15011TIP3    H166448   5.953   3.790  15.386  0.0930 -0.3235  2.0991
15011TIP3    H266449   5.909   3.934  15.398  0.4980 -0.0335  0.3080
15012TIP3   OH266450   5.668   4.542   1.963 -0.7596 -0.2622 -0.1883
15012TIP3    H166451   5.656   4.630   1.999 -0.8020  0.7139 -2.3578
15012TIP3    H266452   5.667   4.484   2.038  3.0232  1.8854  1.8531
15013TIP3   OH266453   1.091   3.216   2.161 -0.1538  0.0654  0.3851
15013TIP3    H166454   1.161   3.219   2.095 -1.1365  1.0869 -0.6655
15013TIP3    H266455   1.026   3.156   2.124 -1.1538  1.3918 -0.0640
15014TIP3   OH266456   5.433   2.775   1.294  0.1863  0.4309 -0.5981
15014TIP3    H166457   5.502   2.807   1.352 -0.9905 -0.0818  1.1522
15014TIP3    H266458   5.386   2.854   1.266 -0.6313  0.5661  1.0136
15015TIP3   OH266459   6.093   5.283   0.120 -0.4953 -0.2027  0.1232
15015TIP3    H166460   6.051   5.368   0.124 -0.0734  0.0706 -0.9636
15015TIP3    H266461   6.186   5.301   0.139 -0.4064 -0.4155 -0.0979
15016TIP3   OH266462   5.135   2.731   0.209 -0.2760  0.3379  0.3724
15016TIP3    H166463   5.150   2.787   0.134 -1.6691 -0.1510 -0.3167
15016TIP3    H266464   5.210   2.672   0.211  0.3198  1.0768  0.0391
15017TIP3   OH266465   0.495   0.761  14.618 -0.4626 -0.4280  0.1154
15017TIP3    H166466   0.543   0.716  14.548 -0.5584  2.9722 -2.4044
15017TIP3    H266467   0.423   0.703  14.639  1.3250 -2.9773 -0.3011
15018TIP3   OH266468   2.288   1.413  14.251  0.1748  0.3499 -0.1045
15018TIP3    H166469   2.314   1.454  14.169  1.5803  0.3600  0.3056
15018TIP3    H266470   2.342   1.457  14.317  0.3141 -0.8110  0.5869
15019TIP3   OH266471   5.955   0.564  12.108  0.3245 -0.1714 -0.3339
15019TIP3    H166472   5.980   0.503  12.178 -0.6205 -0.4418 -0.2173
15019TIP3    H266473   5.907   0.634  12.153  0.6693  0.2204 -0.5756
15020TIP3   OH266474   0.499   4.362  15.852 -0.4062 -0.0900 -0.6448
15020TIP3    H166475   0.579   4.386  15.805 -0.3359 -1.4723 -1.3012
15020TIP3    H266476   0.445   4.441  15.849  0.4054  0.4651 -1.3272
15021TIP3   OH266477   4.846   0.255   1.445 -0.3479  0.0733  0.3242
15021TIP3    H166478   4.801   0.177   1.412 -0.7404  1.1247 -1.8107
15021TIP3    H266479   4.870   0.233   1.535  1.0255 -3.1211 -0.7024
15022TIP3   OH266480   3.310   3.072   3.127 -0.0649 -0.1162 -0.2297
15022TIP3    H166481   3.267   3.129   3.191  1.6295  0.9665  0.0149
15022TIP3    H266482   3.308   2.985   3.167  0.4874  0.4441  1.0671
15023TIP3   OH266483   1.656   3.026   3.310  0.0447 -0.1776  0.7039
15023TIP3    H166484   1.579   3.081   3.306 -0.7834 -1.2597  1.2364
15023TIP3    H266485   1.730   3.087   3.307 -0.8403  0.9772  1.7231
15024TIP3   OH266486   0.754   3.014  16.877  0.3901 -0.0356  0.1303
15024TIP3    H166487   0.832   3.019  16.822  0.7972  0.0247  0.7161
15024TIP3    H266488   0.784   3.039  16.964  0.1780 -2.0367  0.8209
15025TIP3   OH266489   5.372   4.296   1.865  0.2521  0.1310 -0.4997
15025TIP3    H166490   5.326   4.356   1.924  0.1847 -1.3969  1.0928
15025TIP3    H266491   5.316   4.293   1.787 -1.4083 -0.2258  0.6357
15026TIP3   OH266492   4.671   0.895   5.378  0.2042  0.4897 -0.1813
15026TIP3    H166493   4.682   0.978   5.423  0.5510  1.0690 -1.2931
15026TIP3    H266494   4.598   0.910   5.318  0.1150 -0.0855 -0.2217
15027TIP3   OH266495   3.333   2.841   5.023 -0.2021 -0.0926 -0.3889
15027TIP3    H166496   3.364   2.752   5.040 -1.6474 -0.5734 -0.1406
15027TIP3    H266497   3.413   2.893   5.015  0.7075 -1.5583 -1.4486
15028TIP3   OH266498   2.774   3.134  17.074  0.0774 -0.4885 -0.0757
15028TIP3    H166499   2.714   3.204  17.100 -2.1072 -1.2788 -2.5259
15028TIP3    H266500   2.761   3.066  17.139  1.5283  0.9331  1.7987
15029TIP3   OH266501   3.021   5.596  14.188  0.3151  0.1972  0.2087
15029TIP3    H166502   2.961   5.630  14.255  0.7459  0.5167  0.4411
15029TIP3    H266503   3.081   5.539  14.237  0.4058  0.1412  0.0321
15030TIP3   OH266504   5.141   4.510   6.732 -0.3705  0.1466  0.0660
15030TIP3    H166505   5.088   4.518   6.652  0.2263 -0.6514 -0.4255
15030TIP3    H266506   5.131   4.418   6.758  0.8784 -0.0611 -0.1217
15031TIP3   OH266507   3.601   2.927  10.944  0.2224 -0.4424  0.7391
15031TIP3    H166508   3.582   2.845  10.898  0.4314 -1.2410  2.0137
15031TIP3    H266509   3.579   2.909  11.035  0.0783  1.0029  1.0142
15032TIP3   OH266510   6.293   2.172   2.367  0.2277 -0.3508  0.2608
15032TIP3    H166511   6.358   2.146   2.433  0.0872 -0.1182  0.4895
15032TIP3    H266512   6.322   2.258   2.338  1.0296 -0.9942 -0.9278
15033TIP3   OH266513   1.559   0.388  16.703 -0.3467 -0.3912 -0.8946
15033TIP3    H166514   1.641   0.415  16.745  0.4449 -0.9182 -2.0585
15033TIP3    H266515   1.501   0.365  16.776 -0.5190  2.7678  0.1174
15034TIP3   OH266516   5.113   3.962   6.137 -0.4236  0.3567 -0.7205
15034TIP3    H166517   5.088   3.889   6.194 -1.4343  2.0881  1.1944
15034TIP3    H266518   5.135   4.033   6.198  2.2916  1.1652 -2.4560
15035TIP3   OH266519   1.484   3.465   3.237 -0.3680 -0.1787  0.0488
15035TIP3    H166520   1.466   3.384   3.191 -0.7807  0.2808 -0.6201
15035TIP3    H266521   1.508   3.528   3.169  0.1620  0.2064  0.5754
15036TIP3   OH266522   3.755   5.264  14.061  0.1867 -0.3199 -0.4010
15036TIP3    H166523   3.763   5.280  14.155 -2.9244 -0.6716  0.0143
15036TIP3    H266524   3.717   5.176  14.056  0.0003 -0.1604 -1.9985
15037TIP3   OH266525   0.453   0.092   5.923 -1.0974  0.2814 -0.0062
15037TIP3    H166526   0.480   0.023   5.984 -1.9120 -0.2119 -0.1841
15037TIP3    H266527   0.516   0.163   5.937  0.6306 -1.0120 -0.7901
15038TIP3   OH266528   0.704   6.431  16.023  0.4129 -0.5765 -0.1743
15038TIP3    H166529   0.760   6.466  15.954  0.5603 -1.0230 -0.2863
15038TIP3    H266530   0.616   6.460  16.000  0.1810 -2.1995 -1.5588
15039TIP3   OH266531   6.129   1.167   1.808 -0.0459 -0.5316 -0.2016
15039TIP3    H166532   6.111   1.082   1.849  0.6883 -0.5029  0.2106
15039TIP3    H266533   6.081   1.230   1.861  2.0780 -0.3199  1.6009
15040TIP3   OH266534   2.907   5.651  13.185  0.5645 -0.3202 -0.6844
15040TIP3    H166535   2.827   5.680  13.228  1.9609 -0.3488  2.2257
15040TIP3    H266536   2.880   5.576  13.132 -1.2288 -0.8260  0.8246
15041TIP3   OH266537   3.940   5.640   5.634 -0.1077 -0.9873  0.6433
15041TIP3    H166538   3.860   5.635   5.686 -0.9101 -0.6597 -0.5322
15041TIP3    H266539   3.924   5.584   5.558  1.6806 -2.8049  1.4968
15042TIP3   OH266540   5.913   6.262   2.428  0.1210 -0.2278  0.1450
15042TIP3    H166541   5.879   6.327   2.490  2.9770  1.0332  0.5921
15042TIP3    H266542   5.926   6.183   2.480 -1.7647 -0.6863 -0.0020
15043TIP3   OH266543   4.021   2.411   5.412  0.0732  0.5270 -0.3728
15043TIP3    H166544   3.953   2.400   5.479 -0.5471  1.1335 -0.8885
15043TIP3    H266545   3.973   2.416   5.329  0.7157  1.2419 -0.7219
15044TIP3   OH266546   1.521   0.021  13.563 -0.2792 -0.2221 -0.3603
15044TIP3    H166547   1.595  -0.039  13.568 -0.1304 -0.3279 -2.6120
15044TIP3    H266548   1.471  -0.010  13.488 -1.5530  1.0063 -0.0544
15045TIP3   OH266549   2.686   3.803   5.093 -0.2278 -0.1654  0.1790
15045TIP3    H166550   2.652   3.887   5.062  0.6785  0.1121 -0.0864
15045TIP3    H266551   2.721   3.822   5.180  0.1248 -0.2305  0.0528
15046TIP3   OH266552   2.827   2.079  15.643 -0.5255 -0.3358 -0.1827
15046TIP3    H166553   2.843   2.052  15.553 -1.4678  0.5353 -0.6272
15046TIP3    H266554   2.779   2.006  15.682 -1.3512 -0.1226 -0.7973
15047TIP3   OH266555   3.247   1.232  14.490  0.1749 -0.2875  0.1307
15047TIP3    H166556   3.209   1.258  14.574 -1.8391  1.5540 -1.2433
15047TIP3    H266557   3.197   1.155  14.464 -0.2234  0.0267 -0.0448
15048TIP3   OH266558   1.958   5.714  12.356  0.4151  0.0579  0.0363
15048TIP3    H166559   1.961   5.742  12.264  0.9341 -0.0042  0.0299
15048TIP3    H266560   1.903   5.635  12.355  1.3497 -0.6139 -0.4131
15049TIP3   OH266561   4.298   2.510  17.336  0.0494  0.1222  0.3067
15049TIP3    H166562   4.324   2.418  17.331  0.0058  0.1633 -1.1687
15049TIP3    H266563   4.349   2.554  17.268  1.0352  1.4705  1.8339
15050TIP3   OH266564   0.795   3.003   5.653 -0.1983  0.1795 -0.3161
15050TIP3    H166565   0.792   3.073   5.588 -2.0129  1.6705  1.2489
15050TIP3    H266566   0.858   3.033   5.718  0.7810 -0.7771 -0.8093
15051TIP3   OH266567   3.059   4.760  10.895  0.0621 -0.5670  0.2613
15051TIP3    H166568   3.027   4.822  10.830 -2.9841  0.4100  2.4553
15051TIP3    H266569   3.133   4.805  10.937  0.0650  0.0903 -0.4281
15052TIP3   OH266570   4.969   0.812   3.421  0.0338  0.2941 -0.0094
15052TIP3    H166571   4.894   0.757   3.401  0.0091  0.3066  0.0470
15052TIP3    H266572   4.934   0.878   3.481 -0.2731  1.2347 -1.1782
15053TIP3   OH266573   1.577   0.181  13.278 -0.3013  0.1756  0.1208
15053TIP3    H166574   1.617   0.132  13.206  0.3126  2.9258 -1.5568
15053TIP3    H266575   1.640   0.175  13.349  1.4418  1.2854 -1.2272
15054TIP3   OH266576   4.613   0.127  15.366  0.1130 -0.0517  0.4002
15054TIP3    H166577   4.695   0.162  15.333  0.2674 -0.8611 -0.1163
15054TIP3    H266578   4.631   0.033  15.378 -0.1364  0.0834  2.1485
15055TIP3   OH266579   4.957   1.092  14.975 -0.2040  0.0717 -0.4005
15055TIP3    H166580   4.915   1.099  14.889  2.0235 -0.7205 -1.6207
15055TIP3    H266581   5.011   1.171  14.982 -1.6102  0.9696  1.0558
15056TIP3   OH266582   1.273   4.264   3.846  0.0701  0.5197 -0.2781
15056TIP3    H166583   1.178   4.272   3.837  0.0080  0.0077 -0.1291
15056TIP3    H266584   1.286   4.177   3.885  0.5347  1.0406  0.7710
15057TIP3   OH266585   1.665   2.137  14.554  0.2414  0.3753  0.7032
15057TIP3    H166586   1.735   2.201  14.545  1.1417 -0.7921 -1.0116
15057TIP3    H266587   1.691   2.083  14.629  0.8337  0.3465  0.4750
15058TIP3   OH266588   5.320   2.882   5.086 -0.6044 -0.2646  0.3695
15058TIP3    H166589   5.371   2.824   5.143 -1.5192 -1.2920  0.1804
15058TIP3    H266590   5.231   2.877   5.120 -0.6181  1.4786  0.6714
15059TIP3   OH266591   4.390   4.662   5.192  0.5271  0.2907 -0.1001
15059TIP3    H166592   4.396   4.596   5.123 -0.2557  1.8516 -1.7370
15059TIP3    H266593   4.469   4.716   5.180  0.1049  0.9080 -0.1703
15060TIP3   OH266594   0.491   4.478   2.412  0.1732  0.1987  0.5751
15060TIP3    H166595   0.444   4.400   2.384  0.2390  0.5156 -0.4874
15060TIP3    H266596   0.429   4.525   2.467  0.3825 -0.9297  1.7993
15061TIP3   OH266597   0.873   1.620   2.254  0.0209 -0.0008 -0.1873
15061TIP3    H166598   0.920   1.556   2.201 -1.9638 -1.3952 -0.3590
15061TIP3    H266599   0.785   1.583   2.266 -0.6665  1.8748  1.1978
15062TIP3   OH266600   4.772   1.178   4.185  0.0416  0.6126 -0.0343
15062TIP3    H166601   4.826   1.194   4.262 -1.3416 -1.0136  1.3615
15062TIP3    H266602   4.775   1.261   4.136 -0.3124  2.3120  2.5910
15063TIP3   OH266603   0.207   5.013   6.480  0.3467 -0.6201  0.2745
15063TIP3    H166604   0.221   5.095   6.527  3.4361  0.4643 -2.1632
15063TIP3    H266605   0.187   4.949   6.548  2.3253  1.2326  2.8016
15064TIP3   OH266606   3.134   0.048   1.572 -0.2552  0.5103  0.0924
15064TIP3    H166607   3.041   0.027   1.561 -0.7757  2.0050  1.2530
15064TIP3    H266608   3.159   0.002   1.652 -0.2178  0.7545  0.2217
15065TIP3   OH266609   6.330   3.529  11.698  0.2569  0.1665  0.2905
15065TIP3    H166610   6.406   3.502  11.750  0.0920 -1.7532 -0.3887
15065TIP3    H266611   6.263   3.549  11.763  0.4560 -0.9450  0.8552
15066TIP3   OH266612   0.248   3.994   3.849  0.0229 -0.2486 -0.6995
15066TIP3    H166613   0.189   4.007   3.774 -2.6979 -1.3654  1.0907
15066TIP3    H266614   0.196   4.017   3.925  2.1810 -0.6548  1.0023
15067TIP3   OH266615   4.205   2.192   1.685 -0.2166 -0.1830 -0.2498
15067TIP3    H166616   4.152   2.114   1.672  3.4207 -2.9822  0.0109
15067TIP3    H266617   4.267   2.191   1.612  1.4388  1.1079  1.0550
15068TIP3   OH266618   2.079   2.061  13.675  0.0206  0.3071 -0.1545
15068TIP3    H166619   2.003   2.047  13.730 -0.3503 -0.0171 -0.7446
15068TIP3    H266620   2.147   2.005  13.713 -0.0629  0.5009  0.2931
15069TIP3   OH266621   3.003   3.356  16.180  0.0909 -0.0459  0.0320
15069TIP3    H166622   3.006   3.298  16.104  0.7594  0.6519 -0.4928
15069TIP3    H266623   2.911   3.383  16.186  0.2270  0.8223 -1.2714
15070TIP3   OH266624   5.085   5.213  16.767  0.0511 -0.1593  0.3052
15070TIP3    H166625   5.047   5.147  16.824  1.9260 -0.3013  1.4683
15070TIP3    H266626   5.117   5.281  16.827  0.7913  0.3698 -0.6604
15071TIP3   OH266627   0.718   5.015   5.830 -0.2266 -0.3446 -0.2626
15071TIP3    H166628   0.727   5.088   5.769  1.2709 -0.4382 -0.1887
15071TIP3    H266629   0.792   4.959   5.812 -0.6105 -1.1658  0.6106
15072TIP3   OH266630   4.585   0.354  10.918  0.0532  0.1556  0.1057
15072TIP3    H166631   4.553   0.321  11.002  2.5154 -0.2046  0.9790
15072TIP3    H266632   4.655   0.415  10.941  0.8061  0.0306 -1.6904
15073TIP3   OH266633   2.763   0.063   3.323  0.3220  0.7856 -0.4571
15073TIP3    H166634   2.810  -0.007   3.368  0.2540  0.9948 -0.0473
15073TIP3    H266635   2.720   0.111   3.394 -1.4665 -0.1000 -0.8856
15074TIP3   OH266636   3.413   4.151   4.778 -0.1427 -0.1502 -0.3478
15074TIP3    H166637   3.339   4.199   4.816 -0.9283 -0.0848 -1.8768
15074TIP3    H266638   3.374   4.069   4.747  1.0019 -1.4446  1.4134
15075TIP3   OH266639   1.823   1.619   0.531  0.3059 -0.0856 -0.1126
15075TIP3    H166640   1.739   1.608   0.486  0.5606 -1.3404 -0.3213
15075TIP3    H266641   1.875   1.674   0.472  0.2653 -0.8474 -0.8767
15076TIP3   OH266642   5.380   2.925   2.924  0.4857  0.7642 -0.3203
15076TIP3    H166643   5.320   2.950   2.995  0.9782  1.9663 -0.2996
15076TIP3    H266644   5.420   3.007   2.896 -0.1243  0.4106 -2.4115
15077TIP3   OH266645   5.927   6.490  11.083  0.0632 -0.2319 -0.3680
15077TIP3    H166646   5.877   6.571  11.083  0.9026  0.2969 -0.9155
15077TIP3    H266647   5.918   6.456  10.994  0.0837 -0.4999 -0.2686
15078TIP3   OH266648   6.556   3.873  15.964 -0.1434 -0.2440  0.0517
15078TIP3    H166649   6.529   3.963  15.985  0.1599  0.0515 -0.8190
15078TIP3    H266650   6.474   3.829  15.942 -0.4130 -0.4324  1.3102
15079TIP3   OH266651   2.369   3.298   1.431 -0.2617  0.1135 -0.3074
15079TIP3    H166652   2.385   3.331   1.343 -1.0754  0.3033 -0.3894
15079TIP3    H266653   2.440   3.336   1.484  0.0582  0.2353 -0.8164
15080TIP3   OH266654   5.764   1.512   2.393 -0.0176 -0.4958  0.0098
15080TIP3    H166655   5.802   1.541   2.310  0.9714 -0.1744  0.5667
15080TIP3    H266656   5.831   1.458   2.434  0.1068  0.5947  1.2954
15081TIP3   OH266657   6.147   4.252  12.497  0.3170 -0.3378  0.2590
15081TIP3    H166658   6.219   4.207  12.452  0.5624  0.3179 -0.0204
15081TIP3    H266659   6.068   4.216  12.458  0.5238  0.2423 -0.7477
15082TIP3   OH266660   2.774   2.598  14.634 -0.5923  0.1724 -0.2805
15082TIP3    H166661   2.755   2.534  14.703 -0.1327 -0.3333 -0.6163
15082TIP3    H266662   2.712   2.577  14.564  0.9609 -1.3364 -1.2845
15083TIP3   OH266663   4.260   5.752  17.063  0.0610  0.2161  0.0626
15083TIP3    H166664   4.177   5.787  17.032  0.3007 -0.4090 -1.3648
15083TIP3    H266665   4.319   5.758  16.988  0.5291 -1.7904  0.2045
15084TIP3   OH266666   3.770   0.020   4.595  0.1111  0.3398  0.5834
15084TIP3    H166667   3.732   0.101   4.562 -0.8302  0.5452  2.0906
15084TIP3    H266668   3.755   0.023   4.689 -0.2871 -1.7416  0.6392
15085TIP3   OH266669   5.542   6.096  11.289 -0.2884  0.0995 -0.3794
15085TIP3    H166670   5.587   6.027  11.239 -0.3825 -0.8850  0.8430
15085TIP3    H266671   5.557   6.176  11.238  1.2015 -0.5392 -0.9977
15086TIP3   OH266672   4.132   1.120  11.579  0.2154 -0.2028  0.7847
15086TIP3    H166673   4.156   1.029  11.561  3.6889  0.5413  0.9940
15086TIP3    H266674   4.047   1.113  11.623  0.5879 -3.3835  1.3037
15087TIP3   OH266675   6.095   1.101  15.768  0.1297 -0.2192  0.0562
15087TIP3    H166676   6.001   1.086  15.758  0.1275 -1.2900  1.3937
15087TIP3    H266677   6.132   1.013  15.780  0.7819  0.3851  3.3442
15088TIP3   OH266678   3.979   4.258  13.379  0.1955 -0.0268 -0.3050
15088TIP3    H166679   4.056   4.213  13.343 -0.1406 -0.3449 -0.6383
15088TIP3    H266680   4.001   4.351  13.374  0.2899 -0.0798 -1.0435
15089TIP3   OH266681   4.998   5.713   0.743 -0.1848  0.3022 -0.0902
15089TIP3    H166682   5.064   5.773   0.707 -0.1107  0.8548  0.9351
15089TIP3    H266683   4.916   5.762   0.740 -0.2912  0.1295 -0.0511
15090TIP3   OH266684   1.873   0.548  14.772  0.7156 -0.2288 -0.4727
15090TIP3    H166685   1.793   0.496  14.766  1.4262 -1.9392  2.9092
15090TIP3    H266686   1.918   0.531  14.690 -0.8788 -1.8409 -1.0891
15091TIP3   OH266687   4.470   4.438  14.443  0.0828 -0.3188 -0.5125
15091TIP3    H166688   4.501   4.389  14.366  0.5903 -0.7868 -0.0256
15091TIP3    H266689   4.375   4.441  14.434  0.1132 -0.6815 -0.9731
15092TIP3   OH266690   1.005   0.635   1.694 -0.1591  0.2598 -0.1954
15092TIP3    H166691   1.012   0.701   1.625  1.0976 -0.0965 -0.4348
15092TIP3    H266692   0.977   0.685   1.771  2.5265  1.4697  0.1044
15093TIP3   OH266693   5.406   2.609  11.291  0.0206 -0.2830 -0.3078
15093TIP3    H166694   5.425   2.647  11.376 -0.3689 -0.5316 -0.1047
15093TIP3    H266695   5.417   2.681  11.229 -0.3509  0.0672  0.0261
15094TIP3   OH266696   0.827   6.519   2.874 -0.0933 -0.0967  0.5034
15094TIP3    H166697   0.876   6.482   2.801  0.8182  0.4172  0.8398
15094TIP3    H266698   0.870   6.483   2.952 -0.3301  0.2552  0.7996
15095TIP3   OH266699   3.401   0.868  12.465 -0.4750 -0.3938  0.4918
15095TIP3    H166700   3.441   0.947  12.502 -0.0994 -0.3346 -0.0342
15095TIP3    H266701   3.390   0.888  12.372 -0.4205 -0.9490  0.3649
15096TIP3   OH266702   3.309   1.313  13.674  0.1257  0.4111  0.0661
15096TIP3    H166703   3.232   1.274  13.632  0.9278  0.6730 -1.6895
15096TIP3    H266704   3.275   1.391  13.719 -0.9626 -0.5957  1.0840
15097TIP3   OH266705   0.294   1.068  15.748 -0.3347 -0.0771  0.0473
15097TIP3    H166706   0.334   1.094  15.665  0.3016 -0.4839  0.2207
15097TIP3    H266707   0.230   1.001  15.724  0.7268 -1.1051  0.0001
15098TIP3   OH266708   1.051   5.283  13.105 -0.0592  0.5500  0.3655
15098TIP3    H166709   1.084   5.207  13.154  2.0485  0.7863 -0.6198
15098TIP3    H266710   1.111   5.354  13.127 -0.2113  1.1506 -1.0860
15099TIP3   OH266711   2.365   3.609   2.413  0.4225  0.4453 -0.3633
15099TIP3    H166712   2.326   3.530   2.450 -0.6641  0.5033 -1.3065
15099TIP3    H266713   2.310   3.681   2.445  1.8006  0.9295  1.0367
15100TIP3   OH266714   6.690   3.834   5.898  0.3309  0.4097  0.3899
15100TIP3    H166715   6.765   3.856   5.953  0.1246  0.7660  0.5347
15100TIP3    H266716   6.640   3.770   5.949 -0.4480  1.5527  1.1254
15101TIP3   OH266717   0.311   5.375   4.603  0.0571  0.3342  0.3849
15101TIP3    H166718   0.373   5.312   4.566  0.4682  1.7130 -1.4062
15101TIP3    H266719   0.226   5.347   4.570 -0.0458 -0.3814  1.2023
15102TIP3   OH266720   4.711   0.684  16.049 -0.1503 -0.0418  0.5811
15102TIP3    H166721   4.752   0.638  15.975  0.2005 -0.4551  1.0275
15102TIP3    H266722   4.771   0.670  16.122 -0.2292  0.8267  0.8149
15103TIP3   OH266723   4.858   5.505   6.423  0.6454 -0.3376  0.2019
15103TIP3    H166724   4.876   5.549   6.506  0.9502 -0.6342  0.2938
15103TIP3    H266725   4.905   5.421   6.429  0.4659 -0.4680 -0.1663
15104TIP3   OH266726   1.755   2.066   1.473  0.1875 -0.5127 -0.0313
15104TIP3    H166727   1.752   1.988   1.418 -0.4824 -1.1110  0.8172
15104TIP3    H266728   1.762   2.139   1.412  0.3060 -1.2037 -0.8589
15105TIP3   OH266729   4.099   6.413   3.757  0.9262 -0.5326  0.0218
15105TIP3    H166730   4.135   6.476   3.695 -0.5207  1.1510  0.8142
15105TIP3    H266731   4.118   6.328   3.718  0.5102  0.4467 -2.5096
15106TIP3   OH266732   1.893   0.943  15.990  0.5627 -0.3270  0.5821
15106TIP3    H166733   1.834   1.010  15.957  0.7702 -0.0609  0.7460
15106TIP3    H266734   1.862   0.862  15.950  2.3315  0.2916 -2.4085
15107TIP3   OH266735   2.782   5.536   4.831 -0.4516 -0.3444 -0.3103
15107TIP3    H166736   2.837   5.484   4.772  0.1327  1.8814 -1.8393
15107TIP3    H266737   2.793   5.626   4.801  0.0526  0.9803  3.4232
15108TIP3   OH266738   4.497   5.095  14.591 -0.3742  0.3638  0.3417
15108TIP3    H166739   4.457   5.104  14.678  0.4622 -0.2346  0.8015
15108TIP3    H266740   4.491   5.183  14.553  0.6219  1.0360  1.6262
15109TIP3   OH266741   2.020   3.285   1.116  0.0391  0.2199 -0.0531
15109TIP3    H166742   2.088   3.328   1.064  0.0039 -0.4954 -0.6917
15109TIP3    H266743   1.942   3.290   1.062 -0.1904  0.1793  0.2747
15110TIP3   OH266744   2.664   1.827  13.443  0.6733  0.3228  0.3381
15110TIP3    H166745   2.715   1.876  13.379 -0.0472  0.9407  0.2204
15110TIP3    H266746   2.674   1.876  13.525  0.4486  0.3250  0.3654
15111TIP3   OH266747   4.215   3.507  10.552  0.2559 -0.9086  0.6810
15111TIP3    H166748   4.176   3.505  10.639 -0.6551  1.3819  0.3960
15111TIP3    H266749   4.141   3.508  10.492  0.8442 -1.2174 -0.0653
15112TIP3   OH266750   1.590   5.066   4.648 -0.1176  0.1287  0.1330
15112TIP3    H166751   1.604   4.973   4.663 -0.7046  0.0029 -0.0484
15112TIP3    H266752   1.552   5.071   4.560 -2.2263  0.3211  0.9975
15113TIP3   OH266753   2.819   2.957  14.120  0.1698 -0.2995 -0.0773
15113TIP3    H166754   2.735   2.989  14.153  0.3713 -0.6593  0.8026
15113TIP3    H266755   2.884   3.018  14.155  0.2095  0.5932 -1.5957
15114TIP3   OH266756   2.087   2.609  12.916  0.4617  0.0911 -0.7130
15114TIP3    H166757   2.025   2.545  12.884 -0.6708  0.7623  0.0692
15114TIP3    H266758   2.129   2.644  12.837 -0.8749  0.3397 -1.3334
15115TIP3   OH266759   6.196   2.136   0.964  0.1161 -0.2079 -0.0905
15115TIP3    H166760   6.228   2.222   0.936  0.7426 -1.1107 -2.4342
15115TIP3    H266761   6.101   2.140   0.947  0.0141  0.2697  0.5638
15116TIP3   OH266762   0.866   0.803   2.949  0.1315  0.2206  0.1734
15116TIP3    H166763   0.912   0.808   3.033  0.1029 -0.4395  0.2374
15116TIP3    H266764   0.933   0.777   2.886  0.1192  0.5615  0.0162
15117TIP3   OH266765   1.888   2.554  17.102 -0.1743 -0.7746  0.4897
15117TIP3    H166766   1.876   2.580  17.193  1.0601  0.2979  0.3849
15117TIP3    H266767   1.819   2.600  17.054  2.1956  2.9762  0.2448
15118TIP3   OH266768   1.065   2.185   5.985  0.2543 -0.5034 -0.3501
15118TIP3    H166769   1.032   2.099   6.009 -0.7310  0.3731  1.7277
15118TIP3    H266770   1.157   2.184   6.013 -0.4934  0.0034  2.4024
15119TIP3   OH266771   2.659   1.259   2.268 -0.4624 -0.4785 -0.0094
15119TIP3    H166772   2.652   1.256   2.172  1.0278 -0.7165 -0.1383
15119TIP3    H266773   2.583   1.309   2.296 -0.4791  0.3263 -1.3877
15120TIP3   OH266774   1.683   2.688  16.336 -0.4949  0.1006 -0.7133
15120TIP3    H166775   1.638   2.758  16.288 -3.6307 -0.6658  0.8460
15120TIP3    H266776   1.665   2.609  16.285  1.7268  0.1161 -1.6350
15121TIP3   OH266777   2.427   2.520   3.323  0.5345  0.1389 -0.5760
15121TIP3    H166778   2.387   2.602   3.295 -0.6160 -0.7725 -1.7270
15121TIP3    H266779   2.490   2.500   3.254  1.5684  0.5401  0.2198
15122TIP3   OH266780   0.860   3.978   5.022 -0.0747  0.8778 -0.2915
15122TIP3    H166781   0.783   3.951   4.973 -0.4984  1.2648  0.1516
15122TIP3    H266782   0.856   3.927   5.103  1.5667 -1.0906 -1.3513
15123TIP3   OH266783   1.796   3.757  12.201 -0.0648 -0.0149 -0.5553
15123TIP3    H166784   1.714   3.797  12.174 -0.4195 -0.5836 -0.3395
15123TIP3    H266785   1.853   3.830  12.223 -0.4543  0.3866 -0.8703
15124TIP3   OH266786   6.723   3.864  14.069  0.9277 -0.0301 -0.5000
15124TIP3    H166787   6.722   3.813  13.987  0.2605 -0.2507 -0.3615
15124TIP3    H266788   6.776   3.941  14.048  1.3799 -0.4383 -0.9205
15125TIP3   OH266789   1.833   6.226  15.123 -0.2119  0.5454 -0.7749
15125TIP3    H166790   1.894   6.153  15.110  1.3147  1.5052  0.5243
15125TIP3    H266791   1.865   6.294  15.064  0.4203  1.2769  0.3679
15126TIP3   OH266792   5.036   0.280  15.904 -0.1719 -0.1035  0.0738
15126TIP3    H166793   5.091   0.232  15.843 -0.2089  0.8041 -0.6997
15126TIP3    H266794   5.091   0.352  15.935 -0.2514 -0.3815  0.8996
15127TIP3   OH266795   4.110   0.146  13.537  0.6043  0.3538  0.2454
15127TIP3    H166796   4.074   0.066  13.499 -0.1992  1.5584 -1.7132
15127TIP3    H266797   4.194   0.158  13.493  0.4066  0.9436  0.0235
15128TIP3   OH266798   1.545   4.625  16.578 -0.0403 -0.0875  0.6035
15128TIP3    H166799   1.554   4.707  16.529 -0.8276  0.0677  0.6930
15128TIP3    H266800   1.457   4.594  16.555  0.5464 -1.3244 -0.0495
15129TIP3   OH266801   4.375   4.631   1.298  0.3064 -0.6860  0.2367
15129TIP3    H166802   4.436   4.614   1.370 -0.2412 -0.9042  0.6568
15129TIP3    H266803   4.301   4.676   1.340 -0.5776 -1.9040  0.0503
15130TIP3   OH266804   1.118   5.737  16.608  0.1407 -0.8834 -0.0962
15130TIP3    H166805   1.190   5.773  16.556  0.3204 -2.4979 -1.0596
15130TIP3    H266806   1.059   5.810  16.622  2.0644  0.5746  0.9653
15131TIP3   OH266807   5.321   2.277  17.053  0.2545  0.4261 -0.2766
15131TIP3    H166808   5.286   2.299  16.967 -2.1969 -3.8243 -0.6471
15131TIP3    H266809   5.403   2.231  17.033  0.2115  0.3478 -0.2729
15132TIP3   OH266810   2.404   1.690   1.744 -0.5564 -0.2249 -0.5876
15132TIP3    H166811   2.486   1.645   1.767  0.3501  1.1373 -1.0721
15132TIP3    H266812   2.373   1.725   1.827 -0.2046 -0.0206 -0.5414
15133TIP3   OH266813   4.945   4.589  11.560 -0.2642 -0.8988  0.0069
15133TIP3    H166814   4.940   4.542  11.477  0.1066 -2.1469  0.6567
15133TIP3    H266815   4.854   4.597  11.589 -0.4386  0.0119 -0.7526
15134TIP3   OH266816   0.041   1.025  12.744  0.0005 -0.3780 -0.1957
15134TIP3    H166817   0.023   1.038  12.837  1.3625 -0.6032  0.1189
15134TIP3    H266818   0.065   0.933  12.737 -0.0115 -0.3431 -0.7650
15135TIP3   OH266819   2.834   6.375   5.443  0.1347 -0.0754 -0.4732
15135TIP3    H166820   2.878   6.432   5.505 -2.0758  0.8776  0.3073
15135TIP3    H266821   2.826   6.291   5.488  1.0106 -0.2323 -0.5907
15136TIP3   OH266822   2.194   5.639  12.788 -0.1179 -0.5099  0.0722
15136TIP3    H166823   2.241   5.607  12.711  0.6727  4.6235 -1.9963
15136TIP3    H266824   2.263   5.659  12.852 -0.0340  1.0714 -0.4649
15137TIP3   OH266825   2.634   4.127   4.083  0.6402  0.1412 -0.0586
15137TIP3    H166826   2.598   4.164   4.163  3.4340 -0.7515  1.7379
15137TIP3    H266827   2.672   4.043   4.110  2.3526  0.1704 -2.1500
15138TIP3   OH266828   5.595   5.544  16.778  0.6708  0.2208  0.2166
15138TIP3    H166829   5.672   5.601  16.769  1.1925 -0.1527  1.9300
15138TIP3    H266830   5.527   5.602  16.812  0.3786  0.4082 -0.6747
15139TIP3   OH266831   2.432   1.995   3.174  0.1018 -0.0604 -0.0669
15139TIP3    H166832   2.519   2.022   3.205  0.1032  1.3673 -1.2585
15139TIP3    H266833   2.387   1.965   3.253  1.4812 -0.3255  0.6556
15140TIP3   OH266834   4.609   0.893   6.062 -0.1498 -0.8657 -0.6883
15140TIP3    H166835   4.587   0.800   6.071 -0.8927 -0.9575 -2.9004
15140TIP3    H266836   4.589   0.930   6.148 -0.6696 -2.5787 -0.0183
15141TIP3   OH266837   0.576   1.245  10.839  0.0100  0.7102  0.3937
15141TIP3    H166838   0.653   1.222  10.890 -0.6875  0.1621  1.2282
15141TIP3    H266839   0.559   1.337  10.861 -0.4787  0.3888  1.4425
15142TIP3   OH266840   3.713   6.165  13.723  0.4898  0.6912  0.0373
15142TIP3    H166841   3.640   6.197  13.670  0.7610  1.7436  0.2748
15142TIP3    H266842   3.675   6.145  13.808  0.3279  0.4269 -0.0956
15143TIP3   OH266843   6.352   1.279  12.716 -0.3051  0.5033  0.1371
15143TIP3    H166844   6.394   1.364  12.728  2.9797 -0.7874 -1.0782
15143TIP3    H266845   6.323   1.278  12.625  0.6137 -0.0438 -0.1551
15144TIP3   OH266846   1.760   6.148   1.393 -0.1588 -0.6910  0.0712
15144TIP3    H166847   1.826   6.210   1.423 -0.4198 -1.5318  2.5542
15144TIP3    H266848   1.751   6.167   1.299  1.7927  1.0832  0.1654
15145TIP3   OH266849   5.193   5.974  16.821  0.0822 -0.0340  0.3456
15145TIP3    H166850   5.154   5.890  16.796  0.8068 -0.5436  0.9199
15145TIP3    H266851   5.241   5.956  16.902  0.1926  0.9475  0.5090
15146TIP3   OH266852   4.809   2.712  11.981 -0.1082 -0.0916  0.4845
15146TIP3    H166853   4.819   2.790  12.036 -1.0646  0.4147 -0.0355
15146TIP3    H266854   4.898   2.679  11.969  0.3136  0.9649  0.6503
15147TIP3   OH266855   0.310   0.036   3.791  0.2983  0.0447 -0.0355
15147TIP3    H166856   0.234   0.064   3.740  0.4642 -0.1866 -0.4125
15147TIP3    H266857   0.273   0.011   3.876  0.0509  0.6526  0.0432
15148TIP3   OH266858   2.296   6.728  16.448  0.7526 -0.2587  0.4785
15148TIP3    H166859   2.268   6.789  16.517 -1.2101 -1.4633  0.8164
15148TIP3    H266860   2.343   6.783  16.385  0.2574  1.3482  1.4461
15149TIP3   OH266861   0.190   4.649  16.178 -0.1290  0.4002  0.2651
15149TIP3    H166862   0.240   4.729  16.189  1.5271  0.1574 -3.6856
15149TIP3    H266863   0.244   4.581  16.217  0.2832  0.7540  0.3173
15150TIP3   OH266864   5.017   3.387   4.739 -0.3033  0.2003 -0.6298
15150TIP3    H166865   5.081   3.455   4.717  0.8778 -0.5557  0.3429
15150TIP3    H266866   4.934   3.420   4.704  0.6063  1.2020 -1.9514
15151TIP3   OH266867   4.007   0.530  13.354 -0.5873 -0.0529  0.3807
15151TIP3    H166868   4.099   0.548  13.337 -0.4996  0.8375  1.6229
15151TIP3    H266869   3.959   0.592  13.299 -0.4089  0.4118  0.7494
15152TIP3   OH266870   3.794   1.183   4.293  0.1959  0.5485 -0.8448
15152TIP3    H166871   3.717   1.224   4.332  0.3085 -0.9926  1.1627
15152TIP3    H266872   3.828   1.249   4.233 -3.3575  0.8525 -2.8010
15153TIP3   OH266873   2.975   5.744   2.472  0.4004 -0.0422 -0.0292
15153TIP3    H166874   2.945   5.740   2.382  1.7979 -0.1418 -0.5165
15153TIP3    H266875   2.953   5.658   2.509 -1.7869  0.5941  0.3115
15154TIP3   OH266876   4.940   2.415   4.468 -0.2830 -0.0920  0.2628
15154TIP3    H166877   4.984   2.488   4.512  0.6624  0.4137 -1.4159
15154TIP3    H266878   5.011   2.362   4.432 -0.9843  0.0891 -1.4936
15155TIP3   OH266879   0.604   3.334  12.323  0.4492 -0.2489  0.8068
15155TIP3    H166880   0.675   3.397  12.326  0.7804 -0.5157 -0.6803
15155TIP3    H266881   0.610   3.295  12.236 -0.7866 -1.1257  1.0862
15156TIP3   OH266882   1.861   3.572   0.439  0.3582 -0.3074 -0.2288
15156TIP3    H166883   1.803   3.497   0.452 -0.3605  0.3681  0.5567
15156TIP3    H266884   1.891   3.563   0.349 -2.1607  0.1296 -1.2037
15157TIP3   OH266885   4.907   1.388  11.428  0.2769 -0.0548 -0.2190
15157TIP3    H166886   4.992   1.370  11.387 -0.1036 -0.0142 -1.0411
15157TIP3    H266887   4.910   1.481  11.450  0.7845 -0.2522  0.5649
15158TIP3   OH266888   6.381   6.212   1.657  0.3871  0.7867  0.2301
15158TIP3    H166889   6.358   6.185   1.746 -0.7190  0.7820 -0.0437
15158TIP3    H266890   6.306   6.263   1.627 -0.4333 -1.3250 -1.6156
15159TIP3   OH266891   3.188   5.902   4.474  0.2888 -0.0419  0.4334
15159TIP3    H166892   3.124   5.845   4.432 -0.9514 -0.3245  2.5474
15159TIP3    H266893   3.200   5.974   4.412 -0.7977 -0.8322 -0.7504
15160TIP3   OH266894   0.202   3.797   3.141  0.2895 -0.0520  1.1124
15160TIP3    H166895   0.229   3.711   3.109  0.6600 -0.1292  1.6196
15160TIP3    H266896   0.114   3.782   3.176  0.4682 -0.2941  1.4663
15161TIP3   OH266897   1.942   4.158  15.550 -0.0822 -0.3392  0.9118
15161TIP3    H166898   1.993   4.216  15.606 -0.0791 -0.5738  1.1545
15161TIP3    H266899   1.859   4.204  15.537  0.6759  0.6853 -0.6149
15162TIP3   OH266900   1.043   6.536  11.015 -0.1024 -0.1495 -0.0664
15162TIP3    H166901   1.124   6.557  11.062  0.4904 -1.2292 -0.5557
15162TIP3    H266902   0.983   6.506  11.084 -0.0284  0.4823  0.2795
15163TIP3   OH266903   2.483   3.650  17.132  0.1875  0.1535  0.6400
15163TIP3    H166904   2.443   3.590  17.195 -0.1513  1.1012  1.3512
15163TIP3    H266905   2.576   3.627  17.132  0.0971 -0.2178  1.0595
15164TIP3   OH266906   1.855   2.324  14.287 -0.3745  0.1017 -1.1009
15164TIP3    H166907   1.796   2.280  14.225 -0.7454  1.0664 -1.4404
15164TIP3    H266908   1.798   2.384  14.335  0.0142 -0.2385 -0.1863
15165TIP3   OH266909   2.782   2.315  12.678  0.5834 -0.2472  0.3991
15165TIP3    H166910   2.718   2.287  12.743  2.4714 -2.7968  1.3604
15165TIP3    H266911   2.748   2.283  12.595 -0.5506  0.6764  0.4772
15166TIP3   OH266912   0.317   1.065   5.595 -0.3046  0.7284 -0.0321
15166TIP3    H166913   0.292   1.145   5.641 -0.9858  0.7633 -0.4466
15166TIP3    H266914   0.238   1.039   5.547 -0.7598 -1.3683  1.7229
15167TIP3   OH266915   0.074   5.145   1.058 -0.0853 -0.1229  0.5380
15167TIP3    H166916   0.133   5.178   0.990 -0.5985 -1.1278 -0.4287
15167TIP3    H266917   0.067   5.051   1.041 -1.6229 -0.1105  0.8790
15168TIP3   OH266918   5.513   3.235   0.743  0.4114  0.3287  0.4394
15168TIP3    H166919   5.555   3.212   0.660  1.3737  0.1366  0.9522
15168TIP3    H266920   5.455   3.308   0.723  1.9466  1.4501 -0.0948
15169TIP3   OH266921   5.658   0.128  12.213  0.1750 -0.0329 -0.1342
15169TIP3    H166922   5.734   0.141  12.269 -1.9364  0.1416  2.8889
15169TIP3    H266923   5.634   0.036  12.224 -1.3988  0.4572  0.8867
15170TIP3   OH266924   6.513   0.461  17.229  0.0069  0.1121  0.1951
15170TIP3    H166925   6.437   0.518  17.219  0.0256  0.1730  0.4002
15170TIP3    H266926   6.586   0.522  17.242 -0.0796  0.0270  1.1594
15171TIP3   OH266927   5.417   0.849  11.574 -0.2802  0.2169  0.0185
15171TIP3    H166928   5.488   0.898  11.533 -1.7616  1.8057 -0.7870
15171TIP3    H266929   5.388   0.905  11.646 -0.6785 -0.4160  0.3563
15172TIP3   OH266930   3.079   5.680   4.287  0.4834 -1.0230  0.3522
15172TIP3    H166931   3.166   5.678   4.247  0.5765 -1.5427  0.5704
15172TIP3    H266932   3.021   5.706   4.216  0.7478 -1.1965  0.0674
15173TIP3   OH266933   0.601   1.040   0.298 -0.4751  0.2916 -0.0912
15173TIP3    H166934   0.560   1.014   0.216  1.8520 -0.3773 -1.1389
15173TIP3    H266935   0.543   1.007   0.366 -1.7220 -0.4531 -1.4643
15174TIP3   OH266936   2.914   6.427  17.294 -0.1328 -0.1660  0.2554
15174TIP3    H166937   2.871   6.512  17.305  1.4060  0.7516 -0.4284
15174TIP3    H266938   2.879   6.373  17.365 -1.2134  1.0035  0.6541
15175TIP3   OH266939   2.325   6.470   1.445 -0.7309 -0.6307  0.5377
15175TIP3    H166940   2.270   6.515   1.509 -0.1543 -1.0223  1.3223
15175TIP3    H266941   2.282   6.486   1.361 -2.0187 -0.8892  1.1243
15176TIP3   OH266942   0.825   4.219  12.761  0.0382 -0.0034  0.0307
15176TIP3    H166943   0.917   4.203  12.740 -0.4702 -1.0568 -1.6168
15176TIP3    H266944   0.813   4.181  12.848  1.1969  0.3245  0.3450
15177TIP3   OH266945   1.894   0.650   3.333  0.0301  0.1431 -0.6784
15177TIP3    H166946   1.856   0.562   3.343  1.1775 -0.2681  0.3067
15177TIP3    H266947   1.847   0.704   3.395 -0.6460  0.2332 -1.2515
15178TIP3   OH266948   6.198   3.309  13.086  0.3940  0.1682  0.5610
15178TIP3    H166949   6.281   3.334  13.044 -0.2216  1.3558  0.0135
15178TIP3    H266950   6.196   3.213  13.080  1.0168  0.2228 -0.7827
15179TIP3   OH266951   5.815   2.442   2.342  0.1390 -0.1112 -0.3364
15179TIP3    H166952   5.740   2.502   2.345  0.7215  0.6409 -0.4810
15179TIP3    H266953   5.892   2.499   2.342  0.7176 -0.8693 -0.2253
15180TIP3   OH266954   5.876   1.542   5.187 -0.2729 -0.1391  0.2629
15180TIP3    H166955   5.858   1.448   5.185  1.2403 -0.4751  0.9461
15180TIP3    H266956   5.818   1.576   5.255 -0.5591 -0.6428  0.2776
15181TIP3   OH266957   5.351   0.160   0.918  0.2813  0.1977  0.5060
15181TIP3    H166958   5.278   0.221   0.930  0.2449  0.3559 -0.4922
15181TIP3    H266959   5.364   0.121   1.005 -0.6548  0.5416  0.8105
15182TIP3   OH266960   3.839   0.182   6.063  0.4443  0.1614  0.5827
15182TIP3    H166961   3.823   0.167   6.156  0.4583 -0.1245  0.5409
15182TIP3    H266962   3.932   0.201   6.057  0.1279  1.9052  0.8382
15183TIP3   OH266963   2.256   3.904  15.844 -0.2188  0.0888 -0.0024
15183TIP3    H166964   2.330   3.856  15.880 -0.6229  0.7309  1.7959
15183TIP3    H266965   2.192   3.836  15.820  0.5775 -0.4164 -0.7254
15184TIP3   OH266966   1.635   4.511  13.871 -0.0207  0.1425 -0.1454
15184TIP3    H166967   1.593   4.562  13.802  1.4151  0.8726 -0.5060
15184TIP3    H266968   1.593   4.542  13.952  0.1193  1.1862 -0.4525
15185TIP3   OH266969   2.232   2.935   5.797 -0.0027 -0.2704  0.3505
15185TIP3    H166970   2.261   2.989   5.870 -0.4911 -0.3146  0.5837
15185TIP3    H266971   2.137   2.947   5.795 -0.0365 -0.5810 -0.0273
15186TIP3   OH266972   0.650   6.401  11.059  0.5846 -0.0384 -0.0007
15186TIP3    H166973   0.621   6.475  11.007  0.5817 -1.1852 -1.6913
15186TIP3    H266974   0.721   6.436  11.113 -1.1603  1.8170  1.2370
15187TIP3   OH266975   2.108   0.830  16.898 -0.0165 -0.4442  0.4311
15187TIP3    H166976   2.162   0.909  16.909 -2.2973  1.4797 -1.1953
15187TIP3    H266977   2.025   0.852  16.941 -0.9523 -1.6687 -0.6795
15188TIP3   OH266978   3.514   1.855   1.942 -0.4106  0.1244 -0.2300
15188TIP3    H166979   3.435   1.895   1.978  0.4555  1.2042  0.5350
15188TIP3    H266980   3.565   1.829   2.018  0.6586  0.8274 -0.6814
15189TIP3   OH266981   4.554   4.550  15.698 -0.5914  0.5960  0.0716
15189TIP3    H166982   4.468   4.508  15.689 -0.5022  0.6146 -0.9197
15189TIP3    H266983   4.579   4.572  15.609  0.4590  0.5749  0.3543
15190TIP3   OH266984   4.036   4.987   1.748 -0.7235 -0.2660  0.3011
15190TIP3    H166985   4.114   4.973   1.802 -0.6530 -1.1937 -0.0362
15190TIP3    H266986   4.041   5.080   1.723  1.4512 -0.7800 -1.5168
15191TIP3   OH266987   0.688   3.296   4.842 -0.5474 -0.7750  0.4308
15191TIP3    H166988   0.780   3.312   4.822 -0.8571 -1.1487 -1.5522
15191TIP3    H266989   0.644   3.305   4.757 -2.3232 -0.7280  1.3178
15192TIP3   OH266990   4.991   5.122   3.896  0.2040 -0.1136 -0.7217
15192TIP3    H166991   4.903   5.097   3.868 -0.4722 -1.2678  2.0165
15192TIP3    H266992   5.037   5.038   3.907  1.1335  0.3969 -0.6167
15193TIP3   OH266993   5.585   6.626   3.162  0.4500  0.4499 -0.9448
15193TIP3    H166994   5.523   6.681   3.209  1.1221  1.5771 -1.3296
15193TIP3    H266995   5.533   6.581   3.096 -0.1693  0.3428 -0.3953
15194TIP3   OH266996   4.076   1.139   4.268  0.0652  0.3530 -0.2428
15194TIP3    H166997   4.007   1.189   4.311 -1.0935 -2.5674  1.5922
15194TIP3    H266998   4.031   1.093   4.196  0.5180 -0.0467 -0.2758
15195TIP3   OH266999   2.451   5.827   2.075  0.4730 -0.4304  0.2374
15195TIP3    H167000   2.491   5.780   2.148 -1.2001 -1.1535  0.7253
15195TIP3    H267001   2.357   5.825   2.093  0.2137  1.7530 -0.5441
15196TIP3   OH267002   3.368   1.878  13.365  0.2056  0.1757  0.3709
15196TIP3    H167003   3.276   1.906  13.356  0.1373 -0.4544 -1.0639
15196TIP3    H267004   3.363   1.796  13.414 -0.1471 -0.6749 -1.0539
15197TIP3   OH267005   3.769   6.693  13.612 -0.7109  0.5321  0.2500
15197TIP3    H167006   3.855   6.652  13.607 -0.8908  0.2674 -1.2342
15197TIP3    H267007   3.716   6.633  13.663 -1.2202 -1.6918 -2.6269
15198TIP3   OH267008   5.323   1.574   5.329 -0.6298  0.5101  0.1474
15198TIP3    H167009   5.379   1.585   5.252  0.0080  2.0920  0.7920
15198TIP3    H267010   5.360   1.499   5.375 -0.8634 -0.2979 -0.9401
15199TIP3   OH267011   1.524   3.195  13.671 -0.3218 -0.1365  0.7030
15199TIP3    H167012   1.527   3.157  13.584  0.3269 -0.5025  0.8778
15199TIP3    H267013   1.612   3.180  13.707  0.4745  2.8293  0.2402
15200TIP3   OH267014   1.964   3.293   5.868 -0.5424 -0.7072  0.5342
15200TIP3    H167015   1.956   3.199   5.883 -1.2056 -0.8153 -0.3919
15200TIP3    H267016   1.875   3.326   5.877 -0.1948 -0.0315  1.6459
15201TIP3   OH267017   6.602   5.369   3.097 -0.0041  1.0534  0.0889
15201TIP3    H167018   6.545   5.297   3.074  0.0141  1.3628 -0.9491
15201TIP3    H267019   6.563   5.406   3.177  0.3896 -0.5239  1.0476
15202TIP3   OH267020   2.727   3.919   6.518 -0.4076 -0.4293  0.2149
15202TIP3    H167021   2.676   3.997   6.495 -0.0799  0.2473  1.6966
15202TIP3    H267022   2.668   3.846   6.501 -0.2991 -0.0050 -2.4252
15203TIP3   OH267023   6.100   4.607  13.919 -0.1699 -0.0937  0.0500
15203TIP3    H167024   6.160   4.662  13.869  1.7262 -1.7790  0.3663
15203TIP3    H267025   6.019   4.659  13.925  1.1952  2.2112 -0.4578
15204TIP3   OH267026   4.777   5.984  13.806 -0.2178 -0.7882  0.5446
15204TIP3    H167027   4.682   5.995  13.813 -0.1691 -0.6759  1.0319
15204TIP3    H267028   4.813   6.070  13.825 -0.0558 -0.5470 -0.7537
15205TIP3   OH267029   2.228   5.611  13.635  0.1362 -0.1064 -0.1912
15205TIP3    H167030   2.241   5.668  13.560  1.2799 -1.2642 -0.9090
15205TIP3    H267031   2.216   5.672  13.709 -0.3273  1.0441 -1.1807
15206TIP3   OH267032   4.558   1.135   5.559  0.2939  0.4518  0.1871
15206TIP3    H167033   4.609   1.173   5.629  4.3235 -4.0015  0.1485
15206TIP3    H267034   4.500   1.072   5.602 -0.5044  0.8698 -0.2435
15207TIP3   OH267035   0.549   3.886   4.576  0.7351 -0.1459  0.4278
15207TIP3    H167036   0.467   3.857   4.534 -0.4494 -0.7781  2.9748
15207TIP3    H267037   0.568   3.970   4.535  0.3570 -1.2464 -2.1838
15208TIP3   OH267038   0.698   5.699  13.566 -0.1969 -0.5733  1.0154
15208TIP3    H167039   0.605   5.701  13.588 -0.3000  0.2153  0.5770
15208TIP3    H267040   0.735   5.775  13.610 -0.1360  0.2002 -0.3094
15209TIP3   OH267041   5.504   4.633  12.228  0.1488 -0.3226 -0.4008
15209TIP3    H167042   5.429   4.644  12.287  0.1550  1.2696 -0.6559
15209TIP3    H267043   5.564   4.576  12.277 -0.0105  0.6504  1.0071
15210TIP3   OH267044   0.569   0.317   6.018 -0.0015 -0.1662  0.3546
15210TIP3    H167045   0.583   0.410   6.040 -0.3902  0.2833 -1.1796
15210TIP3    H267046   0.593   0.270   6.098  1.4042  1.1698  0.7769
15211TIP3   OH267047   4.470   3.123   5.637  1.0034  0.1750 -0.0940
15211TIP3    H167048   4.541   3.149   5.579  0.7828  1.2754  0.1180
15211TIP3    H267049   4.394   3.174   5.608 -0.2119 -2.2056 -1.4191
15212TIP3   OH267050   1.872   0.324  11.908  0.0839  0.1282 -0.2406
15212TIP3    H167051   1.913   0.388  11.967 -1.0768  0.5005  0.1934
15212TIP3    H267052   1.945   0.286  11.859  0.8869  1.1419  0.1327
15213TIP3   OH267053   2.270   5.820  17.045 -0.2182 -0.4834 -0.1254
15213TIP3    H167054   2.285   5.826  16.951  1.0538 -1.0693  0.0238
15213TIP3    H267055   2.304   5.902  17.080 -0.0938 -0.5413 -0.1101
15214TIP3   OH267056   0.211   3.651   6.032 -0.1578 -0.0227  0.6769
15214TIP3    H167057   0.212   3.674   5.939  0.8890 -0.5363  0.5482
15214TIP3    H267058   0.198   3.557   6.034  2.2382 -0.4293  0.9073
15215TIP3   OH267059   5.216   0.391   1.009  0.1274  0.1615 -0.6828
15215TIP3    H167060   5.188   0.432   1.091 -1.0316  0.1649 -1.0671
15215TIP3    H267061   5.159   0.430   0.943  0.6637 -0.2785 -1.4109
15216TIP3   OH267062   2.790   5.317   2.354  0.3122  0.2389  0.2645
15216TIP3    H167063   2.787   5.228   2.389  0.5118  0.3054  0.4570
15216TIP3    H267064   2.859   5.314   2.288  1.4236  0.6167  1.3527
15217TIP3   OH267065   4.382   5.764   6.888 -0.5776 -0.2852  0.4567
15217TIP3    H167066   4.384   5.694   6.823  0.9979 -0.7554  0.9613
15217TIP3    H267067   4.323   5.830   6.852 -2.0083 -1.8083 -0.0845
15218TIP3   OH267068   4.946   4.235  14.346  0.5042  0.4753 -0.5183
15218TIP3    H167069   5.022   4.279  14.384 -0.5131  0.2508  1.9707
15218TIP3    H267070   4.891   4.306  14.312  0.6235  0.8487  0.0546
15219TIP3   OH267071   2.694   2.291  12.975  0.3823  0.2919  0.0229
15219TIP3    H167072   2.611   2.338  12.981  0.6043  0.9019 -1.3365
15219TIP3    H267073   2.671   2.199  12.988 -0.2499  0.6299  1.3597
15220TIP3   OH267074   5.514   1.584   4.671  0.6313  0.4408  0.0560
15220TIP3    H167075   5.603   1.580   4.635  0.6509  0.2995  0.1206
15220TIP3    H267076   5.525   1.606   4.763  0.5502  1.4594 -0.1622
15221TIP3   OH267077   6.393   5.916  14.608  0.1121  0.3082  0.0256
15221TIP3    H167078   6.464   5.876  14.658 -0.4950 -0.5427  0.2210
15221TIP3    H267079   6.350   5.842  14.564 -0.3030  0.8763 -0.5439
15222TIP3   OH267080   6.012   4.046   0.289  0.3672 -0.2205 -0.2139
15222TIP3    H167081   6.066   4.116   0.251 -0.8822  0.1015 -1.4790
15222TIP3    H267082   6.048   3.965   0.251  1.1973 -0.2101  0.5067
15223TIP3   OH267083   2.113   5.156   5.282 -0.1076 -0.8547  0.4263
15223TIP3    H167084   2.065   5.228   5.241  1.3211 -1.3088 -2.2557
15223TIP3    H267085   2.165   5.198   5.351 -0.1711  0.5147 -0.3216
15224TIP3   OH267086   3.115   6.058  12.558  0.0267 -0.7983  0.2090
15224TIP3    H167087   3.157   6.080  12.474  0.0158  0.1225  0.4306
15224TIP3    H267088   3.051   6.128  12.571 -0.6314 -1.4532  0.5356
15225TIP3   OH267089   1.222   6.437  17.200  0.1107  0.3890  0.4917
15225TIP3    H167090   1.137   6.404  17.227 -0.5844  2.2279  0.6748
15225TIP3    H267091   1.284   6.371  17.231 -1.0670  0.0001  2.1684
15226TIP3   OH267092   0.299   6.333   3.054 -0.9520 -0.5830 -0.1626
15226TIP3    H167093   0.378   6.385   3.037 -2.6009  2.0871 -0.1884
15226TIP3    H267094   0.332   6.244   3.071  2.0213  0.3987 -0.2342
15227TIP3   OH267095   2.718   2.017  12.751  0.2500 -0.0012 -0.3510
15227TIP3    H167096   2.784   2.066  12.703  0.0625  0.0655 -0.5470
15227TIP3    H267097   2.643   2.015  12.692  0.5410 -1.2561 -0.6991
15228TIP3   OH267098   5.963   3.601  15.495  0.0653  0.1796  0.2903
15228TIP3    H167099   5.966   3.538  15.567  1.1768  0.0462  0.1360
15228TIP3    H267100   5.982   3.549  15.417  0.3209  0.5853  0.0815
15229TIP3   OH267101   0.774   0.021   3.404  0.3751  0.5825  0.0293
15229TIP3    H167102   0.866   0.046   3.401  0.7999 -0.2510  2.9468
15229TIP3    H267103   0.727   0.099   3.375  1.9537  1.2956 -0.7205
15230TIP3   OH267104   6.406   4.657   3.794 -0.2273 -0.1893  0.4206
15230TIP3    H167105   6.421   4.587   3.858 -1.0634  0.6688  1.6200
15230TIP3    H267106   6.367   4.613   3.719 -0.6798 -1.0402  1.1264
15231TIP3   OH267107   0.103   6.540  15.123  0.6524 -0.2148 -0.3054
15231TIP3    H167108   0.026   6.488  15.142  0.9433 -2.6311 -4.4412
15231TIP3    H267109   0.176   6.490  15.159  0.5652  0.8780  1.5268
15232TIP3   OH267110   2.860   1.507  15.189  0.2377 -0.1712  0.1468
15232TIP3    H167111   2.932   1.536  15.245 -0.3931 -1.3254  1.5897
15232TIP3    H267112   2.800   1.463  15.247 -0.1999 -1.8973 -1.5233
15233TIP3   OH267113   4.722   3.381   6.405 -0.4012 -0.4705 -0.0296
15233TIP3    H167114   4.639   3.365   6.450 -1.4849 -0.9656 -2.0735
15233TIP3    H267115   4.723   3.475   6.389  0.1295 -0.2400  1.1890
15234TIP3   OH267116   3.679   4.318   5.585  0.2133 -0.1206 -0.0019
15234TIP3    H167117   3.760   4.283   5.623  1.1890  2.2210  0.2133
15234TIP3    H267118   3.673   4.277   5.499 -0.5040 -3.3121  1.4237
15235TIP3   OH267119   2.890   6.703   5.895 -0.3852  0.2061 -0.5526
15235TIP3    H167120   2.983   6.701   5.919 -0.0434  0.1620 -1.8267
15235TIP3    H267121   2.881   6.783   5.842 -1.2887  0.7328  0.3660
15236TIP3   OH267122   4.765   4.971   4.349  0.0032  0.0448  0.2175
15236TIP3    H167123   4.787   5.052   4.395  0.1802 -1.1836  2.4292
15236TIP3    H267124   4.840   4.956   4.291  0.8780  0.5050  1.1754
15237TIP3   OH267125   5.398   0.028   3.324 -0.6987  0.3801  0.6121
15237TIP3    H167126   5.350  -0.011   3.396 -0.8435  0.6597  0.6696
15237TIP3    H267127   5.344   0.101   3.295 -1.0857 -0.2908 -0.3965
15238TIP3   OH267128   4.724   5.005   3.332 -0.2153  0.9725  0.0332
15238TIP3    H167129   4.632   5.027   3.348 -1.2301 -2.4554 -0.2737
15238TIP3    H267130   4.724   4.963   3.245  1.3433 -0.3914  0.6332
15239TIP3   OH267131   2.516   4.426   1.193  0.4465 -0.2910 -0.0234
15239TIP3    H167132   2.585   4.463   1.248  0.7852 -0.6106 -0.2349
15239TIP3    H267133   2.558   4.355   1.145  0.4705  0.7320 -1.5934
15240TIP3   OH267134   5.477   2.364  14.682  0.0969 -0.4185 -0.2832
15240TIP3    H167135   5.495   2.357  14.588  1.2918 -0.8011 -0.0481
15240TIP3    H267136   5.460   2.274  14.709 -1.3908 -0.1666 -0.3299
15241TIP3   OH267137   3.496   1.516  11.758  0.5073  0.0662 -0.0193
15241TIP3    H167138   3.472   1.454  11.827  0.1936 -0.0103 -0.1969
15241TIP3    H267139   3.430   1.585  11.764 -0.5769 -0.8099 -1.3870
15242TIP3   OH267140   0.679   1.259  13.806  0.2380 -0.0506  0.2477
15242TIP3    H167141   0.681   1.353  13.787 -2.0670  0.2334  1.0964
15242TIP3    H267142   0.739   1.247  13.880  0.6521  0.7089  0.0429
15243TIP3   OH267143   2.820   0.894  11.976  0.2942 -0.3241 -0.0214
15243TIP3    H167144   2.763   0.969  11.993 -0.5918 -0.7897 -0.8257
15243TIP3    H267145   2.878   0.890  12.052 -0.7053  0.2050  0.7933
15244TIP3   OH267146   6.590   2.563   3.254  0.0050  0.1059  0.0533
15244TIP3    H167147   6.532   2.630   3.291  0.4798 -0.7672  2.5811
15244TIP3    H267148   6.678   2.592   3.277  0.3208 -0.5133 -0.3699
15245TIP3   OH267149   1.621   4.081   3.231 -0.0773  0.3715  0.8953
15245TIP3    H167150   1.604   4.159   3.177  0.1038  0.1371  0.4976
15245TIP3    H267151   1.535   4.041   3.244 -0.0023 -0.1351 -0.0831
15246TIP3   OH267152   2.413   1.686   5.399  0.6834  0.0511  0.1865
15246TIP3    H167153   2.338   1.720   5.350 -0.5606  2.4352  3.3697
15246TIP3    H267154   2.375   1.640   5.474  2.3640  0.2869  1.2539
15247TIP3   OH267155   3.893   0.359  10.602 -0.2567 -0.3962  0.5055
15247TIP3    H167156   3.988   0.355  10.611  0.1171  3.8511  0.3891
15247TIP3    H267157   3.859   0.338  10.689  0.6878 -2.3196  0.4537
15248TIP3   OH267158   4.950   6.743   1.428 -0.1490  0.2340  1.0164
15248TIP3    H167159   4.907   6.759   1.344  1.2233 -2.1301 -0.2576
15248TIP3    H267160   5.043   6.758   1.411  0.0075  1.1737  2.5575
15249TIP3   OH267161   0.004   5.040   1.318  0.4185 -0.1159 -0.5848
15249TIP3    H167162  -0.081   5.057   1.359 -1.2402 -5.0614 -1.2706
15249TIP3    H267163   0.006   5.097   1.242 -2.8724 -0.5033 -1.1065
15250TIP3   OH267164   4.420   2.618   0.232  0.3409  0.4275  0.6513
15250TIP3    H167165   4.496   2.566   0.204  0.0087  0.8616 -1.1462
15250TIP3    H267166   4.355   2.606   0.163 -0.7546  1.0894  1.5340
15251TIP3   OH267167   1.096   4.817  12.398  0.4029 -0.5175  0.6083
15251TIP3    H167168   1.171   4.824  12.339  0.7147  0.1874  1.0706
15251TIP3    H267169   1.116   4.743  12.455  1.0184  0.0059  1.0865
15252TIP3   OH267170   4.546   3.282   5.891 -0.0536 -0.2413 -0.2392
15252TIP3    H167171   4.532   3.187   5.900  0.4460 -0.2134  1.2264
15252TIP3    H267172   4.470   3.313   5.842 -0.7390 -1.2686  0.1287
15253TIP3   OH267173   2.992   6.125  16.931 -0.1752 -0.1505  0.0840
15253TIP3    H167174   3.013   6.078  17.011 -0.8322 -0.3987  0.1155
15253TIP3    H267175   3.072   6.120  16.879  0.3761  0.3220  0.8652
15254TIP3   OH267176   3.174   6.630   6.157  0.3636 -0.6282  0.1637
15254TIP3    H167177   3.221   6.620   6.239  0.0991  0.2417  0.4280
15254TIP3    H267178   3.082   6.642   6.183  0.4257  0.7797 -0.1883
15255TIP3   OH267179   4.428   3.011  11.856 -0.2841 -0.2686 -0.2577
15255TIP3    H167180   4.447   3.014  11.762 -0.1613 -1.0034 -0.2668
15255TIP3    H267181   4.482   3.080  11.894 -0.0421 -0.2196 -0.6840
15256TIP3   OH267182   3.379   0.583  13.261 -0.3538  0.3627 -0.2888
15256TIP3    H167183   3.464   0.543  13.239 -0.5272  0.1790 -0.6342
15256TIP3    H267184   3.401   0.659  13.315 -0.0126 -0.1930  0.3721
15257TIP3   OH267185   0.986   0.863   3.209  0.2800 -0.6889  0.0786
15257TIP3    H167186   1.069   0.911   3.201 -0.9353  1.4287 -0.4995
15257TIP3    H267187   0.956   0.882   3.297  0.0825 -0.9188  0.0612
15258TIP3   OH267188   6.454   5.078  16.542 -0.4196  0.3041 -0.2470
15258TIP3    H167189   6.417   5.106  16.459 -1.8358  0.9833  0.5762
15258TIP3    H267190   6.411   4.995  16.561 -0.1009  0.1508 -0.1817
15259TIP3   OH267191   1.996   2.295  16.030  0.1713 -0.6652  0.5266
15259TIP3    H167192   2.055   2.266  15.960  0.4601  1.7115 -0.3107
15259TIP3    H267193   1.921   2.332  15.984  0.5636  1.3490  1.3965
15260TIP3   OH267194   2.457   0.336   5.425  0.2453  0.4874  0.2962
15260TIP3    H167195   2.382   0.396   5.424  1.2456  1.7799  0.2077
15260TIP3    H267196   2.533   0.393   5.414  1.1633 -0.9282 -1.1879
15261TIP3   OH267197   1.372   4.236  17.268 -0.3110 -0.5754 -0.4021
15261TIP3    H167198   1.287   4.276  17.286  1.4795  1.9233  4.3977
15261TIP3    H267199   1.364   4.147  17.302 -0.8434 -0.0522  0.9167
15262TIP3   OH267200   1.514   2.340   0.305  0.2501 -0.0670 -1.0312
15262TIP3    H167201   1.514   2.434   0.285  0.0105 -0.1953 -1.6678
15262TIP3    H267202   1.422   2.318   0.319  0.4784  0.2293  1.3718
15263TIP3   OH267203   1.957   5.858  16.039 -0.4273  0.1361  0.4442
15263TIP3    H167204   1.937   5.777  16.087  0.2421  0.5172  1.3940
15263TIP3    H267205   1.928   5.840  15.949 -1.5177 -0.6643  0.9376
15264TIP3   OH267206   5.268   4.101   1.200  0.2817 -0.1407 -0.6826
15264TIP3    H167207   5.314   4.114   1.283  2.3934  0.0726 -1.8142
15264TIP3    H267208   5.225   4.185   1.183 -0.2475 -0.2180  0.2207
15265TIP3   OH267209   3.811   3.893  11.301  0.4335 -0.0722 -0.2616
15265TIP3    H167210   3.725   3.931  11.316 -0.0062 -1.0043 -0.3165
15265TIP3    H267211   3.849   3.945  11.230  0.0372  0.5246 -0.0412
15266TIP3   OH267212   0.570   5.800  10.959 -0.2404  0.3223 -0.5835
15266TIP3    H167213   0.484   5.834  10.934 -0.4966 -0.3715 -0.6699
15266TIP3    H267214   0.559   5.768  11.048  0.1960  1.1301 -0.2283
15267TIP3   OH267215   2.427   2.393   5.900  0.3067  0.3273 -0.4927
15267TIP3    H167216   2.347   2.444   5.916 -0.2379 -0.2700 -1.2606
15267TIP3    H267217   2.478   2.404   5.980 -1.8859 -1.7644  1.3514
15268TIP3   OH267218   2.573   6.322   6.546 -0.1691 -0.4369  0.4165
15268TIP3    H167219   2.528   6.277   6.617 -0.0189  0.1293  0.8808
15268TIP3    H267220   2.512   6.321   6.473 -2.1372  2.7042  1.8162
15269TIP3   OH267221   1.717   0.376   1.308 -0.4963  0.5690  0.5159
15269TIP3    H167222   1.709   0.316   1.233 -0.2504 -0.5100  1.3313
15269TIP3    H267223   1.651   0.443   1.291 -0.2082  0.5490 -0.8480
15270TIP3   OH267224   1.345   2.307  14.857  0.2439  0.1964  0.0027
15270TIP3    H167225   1.301   2.333  14.938 -0.0007  0.0858 -0.0924
15270TIP3    H267226   1.274   2.281  14.799  0.4493 -0.2147 -0.0710
15271TIP3   OH267227   2.733   4.360  10.406 -0.1637 -0.3189  0.4050
15271TIP3    H167228   2.670   4.404  10.463 -1.8475 -0.1690 -1.4570
15271TIP3    H267229   2.683   4.339  10.327  1.9737 -0.7916 -0.9011
15272TIP3   OH267230   0.646   3.357  10.702 -0.3425 -0.4283 -0.7669
15272TIP3    H167231   0.551   3.365  10.700 -0.3081  0.1981 -0.3048
15272TIP3    H267232   0.676   3.411  10.628 -0.2455  1.6014  0.6587
15273TIP3   OH267233   2.346   4.273  14.285 -0.5488 -0.8516  0.1019
15273TIP3    H167234   2.421   4.228  14.244 -0.8599 -1.7704  0.4983
15273TIP3    H267235   2.310   4.328  14.216  0.4503 -0.4504 -0.1154
15274TIP3   OH267236   4.556   2.429   4.310  0.0602 -0.2765  0.3726
15274TIP3    H167237   4.517   2.460   4.228 -0.1417  0.2364  0.6589
15274TIP3    H267238   4.520   2.341   4.322 -0.7528  0.0647  0.4643
15275TIP3   OH267239   4.949   6.342   4.268 -0.3704  0.2665  0.4722
15275TIP3    H167240   4.889   6.282   4.224 -0.3966  0.2809  0.4889
15275TIP3    H267241   4.952   6.419   4.212  0.3183 -0.0814  0.0073
15276TIP3   OH267242   0.362   1.774  11.634 -0.3468 -0.3888 -0.0289
15276TIP3    H167243   0.306   1.783  11.557 -0.2078  0.7060 -0.0214
15276TIP3    H267244   0.375   1.679  11.644 -2.5293 -0.7196  0.2189
15277TIP3   OH267245   4.913   5.362   1.405  0.2326 -0.3270  0.1002
15277TIP3    H167246   4.917   5.388   1.313  0.1133 -1.8093 -0.3509
15277TIP3    H267247   4.853   5.424   1.445 -2.8090 -1.9013 -1.6753
15278TIP3   OH267248   1.279   5.687  11.198  0.3123 -0.3416  0.6547
15278TIP3    H167249   1.243   5.767  11.237  2.9523 -0.0169  2.6713
15278TIP3    H267250   1.364   5.713  11.164  0.8204 -2.1026  0.5158
15279TIP3   OH267251   1.997   1.999   1.167  0.0817  0.3115 -0.0824
15279TIP3    H167252   1.974   2.077   1.117  1.0775  1.0810  0.6067
15279TIP3    H267253   1.913   1.964   1.196 -0.4210  3.5161  3.0943
15280TIP3   OH267254   5.586   6.128  12.837 -0.4793 -0.1112 -0.1184
15280TIP3    H167255   5.612   6.049  12.790  1.6545  0.4729 -0.0421
15280TIP3    H267256   5.653   6.139  12.904 -0.2983  2.1220 -0.5783
15281TIP3   OH267257   5.850   4.828   3.573  0.4685 -0.0938 -0.1733
15281TIP3    H167258   5.943   4.853   3.572  0.6975 -0.8855 -1.6036
15281TIP3    H267259   5.836   4.791   3.660  0.9032  2.0451  0.8673
15282TIP3   OH267260   1.084   6.618   6.843  0.4941 -0.2822 -0.3461
15282TIP3    H167261   1.110   6.625   6.751 -1.5238 -4.4174 -1.4758
15282TIP3    H267262   1.145   6.555   6.881  0.4073  0.2853  0.7731
15283TIP3   OH267263   6.478   4.613  12.905 -0.6697 -0.1857 -0.5660
15283TIP3    H167264   6.480   4.653  12.818 -0.8264  1.2265  0.0396
15283TIP3    H267265   6.466   4.520  12.889  1.7046 -0.2937 -2.1316
15284TIP3   OH267266   4.671   6.456  15.671 -0.5643 -0.3250  0.2904
15284TIP3    H167267   4.747   6.437  15.616 -0.9043  0.3942 -0.4565
15284TIP3    H267268   4.641   6.370  15.701 -0.9527 -0.8644 -1.4820
15285TIP3   OH267269   3.146   3.319   5.599  0.0055  0.2897  0.1113
15285TIP3    H167270   3.067   3.354   5.559  0.7558  3.1954  0.8777
15285TIP3    H267271   3.200   3.290   5.525 -1.1898 -0.4340 -0.4980
15286TIP3   OH267272   0.810   5.503  16.580  0.3142 -0.5802 -0.3141
15286TIP3    H167273   0.734   5.509  16.639  1.2109 -1.9332  1.0596
15286TIP3    H267274   0.861   5.429  16.614  2.8638  0.9777 -0.4532
15287TIP3   OH267275   4.657   5.219  14.067  0.2820  0.3938  0.0683
15287TIP3    H167276   4.657   5.313  14.048  0.4362  0.4078  0.1324
15287TIP3    H267277   4.734   5.206  14.122 -0.0434  0.3225  0.5141
15288TIP3   OH267278   3.860   1.359  12.102  0.2426  0.3289  0.0254
15288TIP3    H167279   3.935   1.317  12.144 -0.4097 -0.5733  0.3380
15288TIP3    H267280   3.894   1.442  12.069  0.9660  0.7079  1.6256
15289TIP3   OH267281   4.712   0.359  14.143  0.0965  0.2105  0.5052
15289TIP3    H167282   4.638   0.348  14.085  0.9954 -1.2611 -0.4182
15289TIP3    H267283   4.749   0.444  14.119 -0.1981  0.1192 -0.2914
15290TIP3   OH267284   3.576   5.231  12.643 -0.8372 -0.2028  0.5966
15290TIP3    H167285   3.574   5.263  12.553 -0.4451  0.6072  0.8683
15290TIP3    H267286   3.530   5.147  12.640 -0.8341 -0.1743 -0.3533
15291TIP3   OH267287   6.248   0.548  13.745  0.2396  0.0558 -0.3369
15291TIP3    H167288   6.285   0.589  13.666  1.6507  1.6480  1.0616
15291TIP3    H267289   6.233   0.621  13.805  1.7178 -1.3184  1.8336
15292TIP3   OH267290   4.454   5.298   2.621 -0.2985  0.6835  0.1365
15292TIP3    H167291   4.388   5.250   2.672 -0.0878  1.1792  0.9002
15292TIP3    H267292   4.422   5.295   2.531 -0.8182  0.0104  0.3407
15293TIP3   OH267293   5.204   1.446   2.797  0.2470  0.1552 -1.0315
15293TIP3    H167294   5.286   1.407   2.767 -0.3463  0.0504 -2.6498
15293TIP3    H267295   5.138   1.380   2.777 -0.3265  0.5509 -0.4679
15294TIP3   OH267296   3.922   3.602   3.750 -0.2018 -0.0497 -0.5449
15294TIP3    H167297   3.942   3.695   3.738  2.1949 -0.4008  0.1233
15294TIP3    H267298   3.993   3.556   3.704  0.3487 -1.4968  1.5780
15295TIP3   OH267299   3.213   3.222   4.442 -0.0860  0.4152 -0.6948
15295TIP3    H167300   3.134   3.213   4.388 -0.3989  0.5141 -0.2678
15295TIP3    H267301   3.184   3.277   4.516  0.4020  0.5045 -0.5696
15296TIP3   OH267302   0.349   2.194  11.726  0.1075  0.1408  0.2485
15296TIP3    H167303   0.423   2.136  11.741 -0.3897 -0.2113  1.4618
15296TIP3    H267304   0.378   2.253  11.657  0.3385 -2.0609 -1.6597
15297TIP3   OH267305   2.648   6.472  13.285  0.2358 -0.3684 -0.3308
15297TIP3    H167306   2.589   6.415  13.334  0.0447 -0.7824 -1.0260
15297TIP3    H267307   2.635   6.446  13.193  1.1408 -0.1322 -0.5304
15298TIP3   OH267308   5.941   4.866   1.967 -0.3972  0.0897  0.1068
15298TIP3    H167309   5.883   4.842   1.894 -0.4367  1.0076 -0.1783
15298TIP3    H267310   5.940   4.962   1.968  0.0759  0.0982  0.9436
15299TIP3   OH267311   0.678   2.185   0.326  0.4553  0.6243  0.3465
15299TIP3    H167312   0.603   2.129   0.346  1.4075 -0.1337  2.0080
15299TIP3    H267313   0.754   2.129   0.341  1.4165  2.0288  0.8924
15300TIP3   OH267314   3.974   1.413  15.054 -0.2106 -0.2811 -0.0621
15300TIP3    H167315   3.924   1.494  15.066 -0.2109 -0.4365  1.1674
15300TIP3    H267316   4.054   1.441  15.010 -1.2357  0.0061 -1.8743
15301TIP3   OH267317   6.071   1.459  17.056 -0.2650  0.3637  0.4167
15301TIP3    H167318   5.999   1.409  17.018  0.2531  0.1010 -0.2644
15301TIP3    H267319   6.033   1.505  17.131 -1.0126 -0.1614  0.3670
15302TIP3   OH267320   4.820   6.504   1.948  0.0278  0.3381 -0.4718
15302TIP3    H167321   4.848   6.585   1.906  0.3737  0.6874  0.4001
15302TIP3    H267322   4.789   6.531   2.035  0.5848 -0.5046  0.0103
15303TIP3   OH267323   4.815   2.177  15.465  0.1339  0.5417  0.4323
15303TIP3    H167324   4.767   2.221  15.395  0.6723 -1.2606 -1.1763
15303TIP3    H267325   4.758   2.104  15.490  0.4801  0.4722  1.0237
15304TIP3   OH267326   4.251   5.669   5.535  0.0936 -0.1637  0.2060
15304TIP3    H167327   4.329   5.722   5.520  0.4163 -0.8554 -0.6587
15304TIP3    H267328   4.262   5.633   5.623 -0.0193  0.9860  0.7132
15305TIP3   OH267329   3.191   2.541   0.636 -0.3058  0.0478  0.1694
15305TIP3    H167330   3.287   2.546   0.639 -0.1156  0.0657 -3.0185
15305TIP3    H267331   3.162   2.627   0.666  0.7335  0.5470 -0.2130
15306TIP3   OH267332   0.826   4.790   5.735 -0.3822  0.2204  0.0716
15306TIP3    H167333   0.760   4.720   5.737 -0.2863  0.0869 -0.8268
15306TIP3    H267334   0.807   4.837   5.654  0.6756  0.1262 -0.2415
15307TIP3   OH267335   2.977   6.606  16.311  0.5229  0.0455 -0.9465
15307TIP3    H167336   3.047   6.544  16.327 -1.6827 -1.8481  2.6114
15307TIP3    H267337   2.910   6.556  16.264 -1.6571 -0.9061  2.7242
15308TIP3   OH267338   5.685   4.122  12.019 -0.0768  0.5743  0.0022
15308TIP3    H167339   5.683   4.167  11.934  0.2197  0.0225 -0.3051
15308TIP3    H267340   5.731   4.183  12.077  0.2804  0.6862 -0.3942
15309TIP3   OH267341   6.341   4.688   0.084  0.0119  0.2605 -0.4803
15309TIP3    H167342   6.427   4.661   0.051 -0.3230  1.0434 -2.1086
15309TIP3    H267343   6.281   4.621   0.053 -0.1323  0.3113 -0.3132
15310TIP3   OH267344   4.637   3.897   3.807 -0.1617 -0.4793 -0.3520
15310TIP3    H167345   4.594   3.892   3.893 -0.9826  0.0243 -0.7202
15310TIP3    H267346   4.634   3.990   3.784  0.4059 -0.5557 -0.7569
15311TIP3   OH267347   4.505   2.270  16.963  0.1393  0.2660  0.6411
15311TIP3    H167348   4.588   2.225  16.974 -0.7944 -2.0670 -1.0014
15311TIP3    H267349   4.456   2.250  17.043 -0.3271 -1.9519 -0.1326
15312TIP3   OH267350   0.834   6.415  15.650  0.2721 -0.2173  0.1343
15312TIP3    H167351   0.790   6.333  15.670  0.8479 -0.6917 -0.4920
15312TIP3    H267352   0.927   6.393  15.650  0.4022  0.2880 -0.6392
15313TIP3   OH267353   3.663   1.929   3.807  0.0548  0.1568  0.0046
15313TIP3    H167354   3.739   1.984   3.790  0.2041 -0.1528 -0.3517
15313TIP3    H267355   3.587   1.982   3.781  0.2871 -0.4382 -2.0927
15314TIP3   OH267356   6.226   3.998   6.582 -0.0120  0.3965 -0.0687
15314TIP3    H167357   6.193   3.919   6.541  1.8820  0.7024 -2.3548
15314TIP3    H267358   6.156   4.062   6.570 -0.5674 -0.2616 -0.3980
15315TIP3   OH267359   0.702   4.662  15.945  0.1220 -0.4172 -0.0917
15315TIP3    H167360   0.633   4.727  15.957  0.7813  0.1911  0.6211
15315TIP3    H267361   0.776   4.712  15.911  0.7849 -0.6877  0.8821
15316TIP3   OH267362   4.788   1.209  11.984  0.0636  0.3353 -0.0930
15316TIP3    H167363   4.711   1.262  11.961  0.0422  0.4572  0.2523
15316TIP3    H267364   4.816   1.170  11.902 -1.8799 -1.7250  0.1091
15317TIP3   OH267365   4.593   6.156   0.347  0.6210  0.8729 -0.1968
15317TIP3    H167366   4.672   6.123   0.391 -0.3576 -1.5440 -0.1248
15317TIP3    H267367   4.617   6.160   0.254  1.4548  2.2043  0.0503
15318TIP3   OH267368   0.004   4.461  17.074  0.7241  0.3619  0.4174
15318TIP3    H167369  -0.085   4.444  17.042  0.1398  1.8947  1.1454
15318TIP3    H267370   0.061   4.436  17.001 -0.3334  0.1100 -0.3525
15319TIP3   OH267371   4.539   0.075  13.647  0.0311  0.1839  0.2693
15319TIP3    H167372   4.496   0.050  13.729  0.5551  1.6331  1.0209
15319TIP3    H267373   4.621   0.025  13.646  0.5361  0.9551  1.1954
15320TIP3   OH267374   0.583   0.788   5.819  0.1139  0.1115  0.8566
15320TIP3    H167375   0.643   0.842   5.870  1.2064 -0.3616  0.1148
15320TIP3    H267376   0.630   0.771   5.737 -1.3963  0.4716 -0.1347
15321TIP3   OH267377   6.504   0.900  15.586  0.2288 -0.2446  0.6184
15321TIP3    H167378   6.530   0.940  15.503  1.3404 -1.7143  0.2135
15321TIP3    H267379   6.408   0.896  15.581  0.0399  2.3494  0.7364
15322TIP3   OH267380   0.135   2.133  15.726  1.1639 -0.3701 -1.1132
15322TIP3    H167381   0.156   2.215  15.771 -0.4364  0.5924 -2.0373
15322TIP3    H267382   0.160   2.064  15.789  1.7074  0.8321  0.0339
15323TIP3   OH267383   2.211   0.999  14.889  0.1917  0.5432  0.6056
15323TIP3    H167384   2.163   0.980  14.808  1.4513  0.1821 -0.0764
15323TIP3    H267385   2.300   1.016  14.861  0.6604  0.4085  1.9364
15324TIP3   OH267386   3.882   1.894  12.524  0.2168  0.1230  0.5207
15324TIP3    H167387   3.812   1.951  12.492  0.6333 -0.4409 -1.4918
15324TIP3    H267388   3.846   1.806  12.518  1.0500 -0.1637 -0.4307
15325TIP3   OH267389   4.919   5.797   3.877 -0.2236 -0.6530 -0.0945
15325TIP3    H167390   5.011   5.824   3.881 -0.0837 -1.1035 -0.1738
15325TIP3    H267391   4.890   5.795   3.968 -0.5718  0.8602 -0.1416
15326TIP3   OH267392   4.101   5.319  12.659 -0.1313 -0.1429  0.1824
15326TIP3    H167393   4.154   5.369  12.596 -0.5373  0.0054 -0.0394
15326TIP3    H267394   4.011   5.328  12.629 -0.2946 -0.3529  0.5921
15327TIP3   OH267395   0.175   6.034  11.932  0.1193 -0.3191  0.0220
15327TIP3    H167396   0.140   6.099  11.872 -0.7934 -0.4636  0.3915
15327TIP3    H267397   0.254   6.074  11.967 -1.3166  1.3309  1.5457
15328TIP3   OH267398   5.031   4.341  16.948 -0.3290 -0.0665  0.1614
15328TIP3    H167399   5.107   4.398  16.935  1.0700 -1.8793  0.0197
15328TIP3    H267400   5.067   4.264  16.992 -2.0372 -1.1192 -0.2299
15329TIP3   OH267401   3.655   0.840  15.634 -0.1378  0.3114  0.3227
15329TIP3    H167402   3.747   0.824  15.613 -0.1857  0.2693  0.1422
15329TIP3    H267403   3.607   0.771  15.587 -0.4532  1.6799 -1.4682
15330TIP3   OH267404   1.462   5.778  15.262 -0.5319  0.3642  0.1628
15330TIP3    H167405   1.533   5.724  15.298 -2.2290 -1.2652  1.2798
15330TIP3    H267406   1.386   5.756  15.316 -2.4111  0.4705 -2.2633
15331TIP3   OH267407   1.624   6.042   2.668 -0.2620 -0.2789  0.1959
15331TIP3    H167408   1.636   6.125   2.714 -1.3941  0.8604 -1.4377
15331TIP3    H267409   1.529   6.038   2.651 -0.0326 -1.1692 -1.0133
15332TIP3   OH267410   4.606   0.630   5.435 -0.3535 -0.2289 -0.0818
15332TIP3    H167411   4.540   0.648   5.503 -1.9734 -0.9838 -1.3905
15332TIP3    H267412   4.655   0.711   5.428 -0.8709  0.2321  1.2168
15333TIP3   OH267413   2.975   2.501  15.335  0.4339 -0.0481 -0.5317
15333TIP3    H167414   2.977   2.588  15.377 -0.9076  0.0792 -0.6740
15333TIP3    H267415   2.962   2.520  15.242 -0.8032 -0.3889 -0.4512
15334TIP3   OH267416   3.725   5.790  14.043 -0.0356  0.2205  0.2289
15334TIP3    H167417   3.760   5.827  13.962  1.2301 -2.3748 -0.5490
15334TIP3    H267418   3.641   5.752  14.017 -1.0111  1.8700  0.8612
15335TIP3   OH267419   0.207   5.164  16.125  0.2589 -0.1584 -0.0019
15335TIP3    H167420   0.176   5.228  16.189  1.0692  0.5124 -0.2646
15335TIP3    H267421   0.129   5.115  16.100 -0.2187  0.1562  0.8468
15336TIP3   OH267422   1.847   4.448   4.912 -0.4590 -0.5646 -0.3354
15336TIP3    H167423   1.794   4.528   4.915 -1.2997 -1.0678 -1.2375
15336TIP3    H267424   1.784   4.378   4.890  0.0248 -1.6873  1.5644
15337TIP3   OH267425   2.673   6.582   4.066 -0.5148  0.3280  0.1290
15337TIP3    H167426   2.667   6.487   4.076 -2.1996  0.4256  0.3202
15337TIP3    H267427   2.732   6.594   3.992 -3.0194 -1.0519 -2.3240
15338TIP3   OH267428   5.698   3.950  12.243  0.1473  0.1564 -0.2246
15338TIP3    H167429   5.731   3.983  12.160 -0.2957  0.5976 -0.2310
15338TIP3    H267430   5.642   4.021  12.276  1.2754  0.4959  1.0369
15339TIP3   OH267431   4.704   5.829   6.077 -0.1395 -0.0301 -0.0937
15339TIP3    H167432   4.768   5.867   6.018 -0.6083  0.6504 -0.1821
15339TIP3    H267433   4.624   5.880   6.062 -0.9057 -1.2831 -0.4693
15340TIP3   OH267434   3.781   0.138   1.078 -0.2351 -0.7793 -0.3550
15340TIP3    H167435   3.740   0.069   1.026 -2.4849 -0.3337  0.7056
15340TIP3    H267436   3.781   0.103   1.167 -0.7466  0.2738  0.0754
15341TIP3   OH267437   3.104   2.659   4.681  0.4404  0.0980 -0.4928
15341TIP3    H167438   3.103   2.754   4.674 -0.3953  0.0155 -1.7823
15341TIP3    H267439   3.018   2.636   4.715 -0.2632 -0.3088 -2.4244
15342TIP3   OH267440   1.779   3.416  14.324  0.2765 -0.2160  0.7659
15342TIP3    H167441   1.730   3.374  14.395  1.2215 -0.1026  1.5126
15342TIP3    H267442   1.741   3.380  14.244 -2.0919  1.0522  1.2244
15343TIP3   OH267443   6.178   5.459  13.024  0.3172 -0.6653  0.1717
15343TIP3    H167444   6.262   5.414  13.015 -0.0820 -1.3228 -0.4225
15343TIP3    H267445   6.127   5.403  13.083 -0.2522 -1.1288 -0.7329
15344TIP3   OH267446   5.549   5.118  13.822 -0.0113  0.0483 -0.2616
15344TIP3    H167447   5.510   5.039  13.861 -0.4613  0.1494 -0.4992
15344TIP3    H267448   5.508   5.191  13.869  0.8239  0.1404  0.3526
15345TIP3   OH267449   6.708   0.528   3.413 -0.4934 -0.1470  0.0864
15345TIP3    H167450   6.744   0.465   3.476  0.8394  0.6660  0.1789
15345TIP3    H267451   6.646   0.477   3.360  0.2076 -1.4181  0.4564
15346TIP3   OH267452   1.159   5.655  13.639  0.3935 -0.1819 -0.0386
15346TIP3    H167453   1.232   5.717  13.638  1.9590 -1.8645  1.8458
15346TIP3    H267454   1.103   5.683  13.566  1.9686  2.2607 -0.4289
15347TIP3   OH267455   1.962   5.640   6.724  0.7249 -0.0208 -0.3404
15347TIP3    H167456   2.054   5.631   6.698  0.7413 -1.0698  0.0583
15347TIP3    H267457   1.961   5.720   6.778  0.9087  1.5055 -2.4504
15348TIP3   OH267458   6.326   0.027  14.733 -0.0185 -0.3602 -0.2443
15348TIP3    H167459   6.275  -0.001  14.657 -0.2807  2.5640 -1.2617
15348TIP3    H267460   6.260   0.055  14.797  0.2429 -1.2383  0.4232
15349TIP3   OH267461   1.608   1.197  16.187  0.3152  0.3090 -0.3548
15349TIP3    H167462   1.639   1.241  16.108  2.6424  0.5703  0.6380
15349TIP3    H267463   1.514   1.215  16.189  0.6697  2.6195 -1.5935
15350TIP3   OH267464   6.590   1.557  14.883  0.1454 -0.7275  0.0679
15350TIP3    H167465   6.526   1.490  14.860  1.7428 -2.2729 -0.0653
15350TIP3    H267466   6.664   1.542  14.825  1.5558 -0.4531  1.7009
15351TIP3   OH267467   3.949   3.191  11.515 -0.4025 -0.2083  0.1566
15351TIP3    H167468   3.898   3.183  11.434 -0.1320  1.4148 -0.1919
15351TIP3    H267469   4.035   3.221  11.487 -0.4586  0.8877  1.0768
15352TIP3   OH267470   2.749   0.591   2.310 -0.1112  0.4373 -0.0960
15352TIP3    H167471   2.819   0.590   2.374  0.7119 -0.4985 -0.9723
15352TIP3    H267472   2.760   0.510   2.260 -0.9040  0.9845 -1.2247
15353TIP3   OH267473   6.716   2.761   6.042  0.0088 -0.5859 -0.0034
15353TIP3    H167474   6.623   2.779   6.055 -0.0589  1.1420 -2.3680
15353TIP3    H267475   6.758   2.801   6.118 -0.9951  0.6487 -0.0685
15354TIP3   OH267476   4.476   0.289   1.597 -0.6334 -0.3451  0.2150
15354TIP3    H167477   4.502   0.374   1.633  2.3211 -0.5534 -1.1146
15354TIP3    H267478   4.456   0.235   1.673  2.0461  0.2201  1.4246
15355TIP3   OH267479   1.803   5.100   4.803  0.0674 -0.2208  0.3053
15355TIP3    H167480   1.759   5.062   4.878 -0.1748 -1.1782 -0.3158
15355TIP3    H267481   1.747   5.080   4.728  2.5574 -3.5205 -0.9035
15356TIP3   OH267482   6.379   0.041   1.754 -0.2817 -0.0084  0.1775
15356TIP3    H167483   6.361  -0.053   1.749 -0.8065  0.0119  1.3631
15356TIP3    H267484   6.305   0.083   1.712  0.2726 -0.1295 -0.9555
15357TIP3   OH267485   0.360   3.405   0.100  0.6845 -0.9477  0.1296
15357TIP3    H167486   0.277   3.402   0.147  0.1034  2.4602 -0.3748
15357TIP3    H267487   0.360   3.327   0.045 -1.9153 -1.3350  0.5747
15358TIP3   OH267488   1.470   2.878   4.226 -0.2065 -0.4877 -0.9987
15358TIP3    H167489   1.455   2.964   4.186 -0.1672 -0.6462 -1.3583
15358TIP3    H267490   1.563   2.877   4.246 -0.6318  0.5824  1.4312
15359TIP3   OH267491   3.489   5.231   3.198  0.0334  0.0503 -0.4484
15359TIP3    H167492   3.536   5.205   3.277 -0.1135 -2.0737 -0.9906
15359TIP3    H267493   3.489   5.152   3.143 -2.2837  0.6058 -1.3816
15360TIP3   OH267494   2.420   2.969   2.387  0.1806  0.6230 -0.3113
15360TIP3    H167495   2.389   2.880   2.404  0.6815  0.0371 -2.1414
15360TIP3    H267496   2.400   3.017   2.467 -0.5507 -1.0073  0.5523
15361TIP3   OH267497   0.779   5.129  16.806 -0.3134 -0.3666  0.4109
15361TIP3    H167498   0.786   5.132  16.711  1.4568  0.1188  0.5096
15361TIP3    H267499   0.718   5.199  16.828  0.3949  0.5087 -0.3128
15362TIP3   OH267500   2.389   2.034   4.106  0.4062 -0.1947  0.2519
15362TIP3    H167501   2.471   2.032   4.155  1.3708 -2.1201 -1.2831
15362TIP3    H267502   2.333   1.971   4.150  0.0837  0.3860  0.6980
15363TIP3   OH267503   5.485   4.333   3.318 -0.2799  0.0299 -0.2100
15363TIP3    H167504   5.469   4.394   3.390  0.3384  0.6668 -0.6103
15363TIP3    H267505   5.398   4.315   3.282 -0.3203  2.0571 -1.2183
15364TIP3   OH267506   5.887   4.404  17.170 -0.0258  0.2515 -0.2864
15364TIP3    H167507   5.809   4.456  17.152  0.4854  2.1526  2.4848
15364TIP3    H267508   5.957   4.446  17.120 -0.3763 -0.3562 -1.3248
15365TIP3   OH267509   3.588   6.255   1.090 -0.5596  0.1590 -0.5421
15365TIP3    H167510   3.682   6.243   1.102 -0.2016  2.2886 -0.7987
15365TIP3    H267511   3.559   6.176   1.044  0.8856 -1.0043  0.4406
15366TIP3   OH267512   3.921   6.360   4.651 -0.1128 -0.0621 -0.5395
15366TIP3    H167513   3.905   6.326   4.563 -0.5432  1.7631 -1.2196
15366TIP3    H267514   4.012   6.392   4.648 -0.1449  0.0479 -0.3330
15367TIP3   OH267515   0.178   4.000  12.196  0.2938  0.3121 -0.3860
15367TIP3    H167516   0.192   3.906  12.187 -0.1248  0.3463 -1.5308
15367TIP3    H267517   0.218   4.038  12.118 -0.0009  1.0431 -0.1941
15368TIP3   OH267518   0.318   4.604   3.073  0.2022 -0.2740  0.0769
15368TIP3    H167519   0.260   4.679   3.062  0.6553  0.0217 -0.3504
15368TIP3    H267520   0.275   4.550   3.139 -0.9455 -0.4427 -0.7653
15369TIP3   OH267521   1.646   1.950   2.944 -0.2517 -0.6278 -0.2194
15369TIP3    H167522   1.714   1.884   2.933 -0.9519 -1.3408 -0.3895
15369TIP3    H267523   1.621   1.974   2.854  0.7252  0.6523 -0.1689
15370TIP3   OH267524   5.601   5.684  12.824  0.2989  0.0144 -0.3244
15370TIP3    H167525   5.535   5.754  12.822  0.7935  0.5505  0.9143
15370TIP3    H267526   5.655   5.700  12.747  0.2255  0.8471 -0.2144
15371TIP3   OH267527   4.270   3.366   0.950 -0.1932  0.7594  0.1509
15371TIP3    H167528   4.284   3.276   0.919  0.8161  1.1086 -0.4646
15371TIP3    H267529   4.186   3.391   0.912 -0.9018 -0.2043  1.0269
15372TIP3   OH267530   5.619   6.144   4.153  0.6730 -0.0944  0.0751
15372TIP3    H167531   5.595   6.060   4.113  2.6162 -1.0634  0.8436
15372TIP3    H267532   5.701   6.169   4.110  0.4444  1.1132  0.3004
15373TIP3   OH267533   1.737   2.371  15.412  0.4815 -0.5441  0.0175
15373TIP3    H167534   1.764   2.461  15.427 -0.7230 -0.1952  0.1782
15373TIP3    H267535   1.808   2.318  15.448  1.4511  0.3296 -0.5616
15374TIP3   OH267536   4.374   6.737   1.493  0.2530  0.1286  1.1999
15374TIP3    H167537   4.286   6.775   1.501 -0.1817 -0.9624  1.8363
15374TIP3    H267538   4.395   6.706   1.581  0.7518 -0.7375  0.7886
15375TIP3   OH267539   5.321   0.738  14.534  0.0591  1.0348  0.0653
15375TIP3    H167540   5.242   0.792  14.531  0.2100  1.2497 -0.0567
15375TIP3    H267541   5.384   0.784  14.478  0.1156  0.6165 -0.2185
15376TIP3   OH267542   4.214   6.232  13.927  0.2477  0.2075  0.2935
15376TIP3    H167543   4.250   6.192  14.006  2.2911 -1.6469 -1.4487
15376TIP3    H267544   4.126   6.195  13.919 -0.0679  0.5566  1.7144
15377TIP3   OH267545   0.447   4.047   5.215  0.6780 -0.5169 -0.0915
15377TIP3    H167546   0.404   4.008   5.140 -0.0795  1.8804 -0.9854
15377TIP3    H267547   0.407   4.004   5.291  0.8234 -2.3307 -0.9886
15378TIP3   OH267548   4.071   4.008  14.874  0.2510  0.1030 -0.2105
15378TIP3    H167549   4.103   3.990  14.963  1.5034  0.4584 -0.5668
15378TIP3    H267550   4.150   4.028  14.824 -0.2980 -1.1911 -1.6858
15379TIP3   OH267551   1.588   2.253  15.792 -0.0549 -0.1075  0.4764
15379TIP3    H167552   1.594   2.172  15.741 -0.4683 -0.0778  0.3731
15379TIP3    H267553   1.678   2.274  15.815  0.1187 -0.2348 -0.0673
15380TIP3   OH267554   1.679   5.294   6.151 -0.3502  0.4204 -0.0844
15380TIP3    H167555   1.599   5.324   6.194  0.0680 -0.1970  1.1541
15380TIP3    H267556   1.748   5.350   6.187  0.0733 -0.4139  0.4206
15381TIP3   OH267557   5.764   1.471  11.224 -0.3590 -0.4827  0.0592
15381TIP3    H167558   5.725   1.540  11.170  0.9602  0.7044  0.5410
15381TIP3    H267559   5.800   1.409  11.161 -3.1869 -1.8036 -0.4038
15382TIP3   OH267560   2.210   1.730  16.973  0.5646  0.0109 -0.7032
15382TIP3    H167561   2.210   1.824  16.993  1.9824 -0.1642  0.2696
15382TIP3    H267562   2.251   1.724  16.887  1.3824  0.2383 -0.3459
15383TIP3   OH267563   4.735   5.273  17.153  0.0527 -0.1286 -0.1872
15383TIP3    H167564   4.760   5.324  17.076  0.3345  0.7864  0.4815
15383TIP3    H267565   4.668   5.212  17.121  1.0095 -0.5856 -1.3828
15384TIP3   OH267566   1.140   1.607  13.199  0.2530  0.5745  0.2739
15384TIP3    H167567   1.224   1.650  13.215  1.0415 -0.7155 -0.2639
15384TIP3    H267568   1.076   1.665  13.240  1.4933  1.0890  1.5842
15385TIP3   OH267569   5.978   3.698   0.553  0.1419 -0.1473 -0.9523
15385TIP3    H167570   5.969   3.669   0.463  0.0810  1.8851 -1.6598
15385TIP3    H267571   5.889   3.701   0.587 -0.0124  0.6522 -1.3900
15386TIP3   OH267572   3.375   4.679   5.431  0.1431  0.1020  0.1189
15386TIP3    H167573   3.363   4.774   5.419  0.5089 -0.1311 -2.8132
15386TIP3    H267574   3.431   4.672   5.508  1.0781  2.3626 -0.2788
15387TIP3   OH267575   6.698   3.678   4.467 -0.2025  0.1083  0.6722
15387TIP3    H167576   6.782   3.668   4.510 -0.5764 -0.0017  1.3883
15387TIP3    H267577   6.719   3.715   4.381  0.6333 -0.6420  0.5410
15388TIP3   OH267578   0.062   5.260   4.501 -0.0293 -0.2820  0.2892
15388TIP3    H167579   0.043   5.181   4.449  0.2540  0.8904 -1.7067
15388TIP3    H267580  -0.024   5.292   4.528 -0.2448 -0.5159 -0.0958
15389TIP3   OH267581   4.850   5.842  15.243 -0.4600 -0.5262 -0.1037
15389TIP3    H167582   4.779   5.788  15.278 -1.9909  1.0836 -0.5994
15389TIP3    H267583   4.846   5.923  15.293  2.9557 -1.3859  1.8816
15390TIP3   OH267584   3.819   0.072   6.689 -0.3092 -0.5410  0.5142
15390TIP3    H167585   3.892   0.047   6.632  0.0234  0.4255  0.4886
15390TIP3    H267586   3.830   0.166   6.701 -1.6535 -0.3484  0.3735
15391TIP3   OH267587   1.140   5.213  12.823 -0.0178  0.0026  0.1990
15391TIP3    H167588   1.162   5.295  12.868  2.0740 -1.7755  2.6760
15391TIP3    H267589   1.225   5.174  12.802 -0.8942 -2.4708  0.9826
15392TIP3   OH267590   3.358   4.196   4.265  0.5194  0.3735 -0.1530
15392TIP3    H167591   3.330   4.247   4.341  0.7565 -0.5692  0.5865
15392TIP3    H267592   3.295   4.123   4.261  0.6847  0.2551 -0.6802
15393TIP3   OH267593   2.727   3.161  16.792 -0.5732  0.1819 -0.1990
15393TIP3    H167594   2.745   3.147  16.885  1.5893 -0.8679 -0.7087
15393TIP3    H267595   2.768   3.245  16.772 -1.3259  0.5705 -0.1671
15394TIP3   OH267596   3.111   1.486  13.166  0.2082  0.0272 -0.3995
15394TIP3    H167597   3.062   1.561  13.200  1.2832  1.5347 -2.0430
15394TIP3    H267598   3.202   1.507  13.184  0.4605 -1.4477  0.1323
15395TIP3   OH267599   4.384   2.698  13.399  0.4138 -0.5089  0.2457
15395TIP3    H167600   4.430   2.622  13.364  0.4371 -0.3728 -0.0242
15395TIP3    H267601   4.395   2.766  13.332 -0.4995 -0.5878  0.0040
15396TIP3   OH267602   3.044   0.347   4.779 -0.5256 -0.2138  0.6462
15396TIP3    H167603   3.100   0.272   4.800  0.3510  0.0354 -0.6465
15396TIP3    H267604   2.990   0.317   4.707 -1.5451 -0.1974  1.3855
15397TIP3   OH267605   0.640   3.339  15.549 -0.4223 -0.1806  0.1058
15397TIP3    H167606   0.648   3.263  15.492 -0.6115  0.5798 -0.9830
15397TIP3    H267607   0.588   3.308  15.623  0.6922 -1.4595  0.3923
15398TIP3   OH267608   4.390   3.663  13.563  0.0715  0.2860  0.2830
15398TIP3    H167609   4.350   3.580  13.538 -0.3505  0.4731  0.3242
15398TIP3    H267610   4.321   3.710  13.609 -0.2871  1.3934 -1.2876
15399TIP3   OH267611   2.331   5.728  13.907 -0.6181 -0.0277  0.2089
15399TIP3    H167612   2.243   5.692  13.915 -0.9487  0.7561  0.1840
15399TIP3    H267613   2.325   5.815  13.945  0.4828 -0.4612  1.4694
15400TIP3   OH267614   6.579   0.609   1.498 -0.1079 -0.3473 -0.3751
15400TIP3    H167615   6.582   0.551   1.422  0.3828  0.7499 -1.2140
15400TIP3    H267616   6.625   0.688   1.470  2.6272 -0.9662  1.9995
15401TIP3   OH267617   2.017   3.003   3.261 -0.4420 -0.3020 -0.1904
15401TIP3    H167618   1.975   3.039   3.339 -2.5850 -0.6377 -1.1113
15401TIP3    H267619   1.947   3.000   3.195  1.2792 -0.0621 -2.1245
15402TIP3   OH267620   1.597   3.594  13.290  0.2764 -0.3341 -0.3317
15402TIP3    H167621   1.532   3.576  13.223 -0.8857  1.4768  0.2189
15402TIP3    H267622   1.562   3.554  13.370 -0.1227  0.4996 -0.0721
15403TIP3   OH267623   3.452   1.454   5.461  0.2311  0.2502 -0.8892
15403TIP3    H167624   3.436   1.377   5.515 -0.2544  1.5211  0.8756
15403TIP3    H267625   3.367   1.475   5.423 -0.0018  0.8621 -0.0406
15404TIP3   OH267626   0.247   5.439   4.873  0.0372  0.3759  0.4645
15404TIP3    H167627   0.248   5.519   4.926 -2.0893  0.1640  0.9213
15404TIP3    H267628   0.236   5.470   4.783 -0.0498  0.6248  0.5603
15405TIP3   OH267629   3.734   0.037  12.631 -0.4210 -0.1169 -0.3115
15405TIP3    H167630   3.692   0.123  12.631  0.4205  0.3138 -1.3390
15405TIP3    H267631   3.699  -0.007  12.554  2.2695  0.9378 -2.2803
15406TIP3   OH267632   1.112   5.298  11.472 -0.3742 -0.2287  0.0433
15406TIP3    H167633   1.062   5.216  11.470  1.0104 -1.1047 -1.3191
15406TIP3    H267634   1.121   5.319  11.565 -1.6118 -1.0686  0.3760
15407TIP3   OH267635   2.372   1.591   0.763  0.5066  0.2267 -0.2434
15407TIP3    H167636   2.386   1.661   0.827 -0.1249  0.9318 -0.8551
15407TIP3    H267637   2.434   1.609   0.693  2.1320 -1.2983  0.7200
15408TIP3   OH267638   5.104   2.819   5.229 -0.0040  0.4719  0.2938
15408TIP3    H167639   5.017   2.779   5.236  0.5709 -0.7287  0.7894
15408TIP3    H267640   5.134   2.829   5.319  0.6997  0.1278  0.1061
15409TIP3   OH267641   6.607   3.950  16.836 -0.1423  0.1645  0.2188
15409TIP3    H167642   6.556   4.015  16.886 -1.2476  0.3909 -1.1564
15409TIP3    H267643   6.698   3.976  16.850 -0.4926  1.0302  1.0180
15410TIP3   OH267644   2.772   2.723  14.351  0.2767 -0.0558  0.2523
15410TIP3    H167645   2.731   2.776  14.420 -0.1362  0.0779 -0.0941
15410TIP3    H267646   2.709   2.654  14.333  1.0615 -1.0377  1.1194
15411TIP3   OH267647   4.877   6.374  11.023 -0.5774 -0.2181 -0.5367
15411TIP3    H167648   4.898   6.466  11.037 -0.2965 -0.2238 -0.8909
15411TIP3    H267649   4.948   6.326  11.065 -0.0993 -0.2453 -1.3447
15412TIP3   OH267650   4.020   2.412  12.436  0.2209  0.2474  0.2449
15412TIP3    H167651   4.105   2.415  12.392 -0.0482  2.9311 -0.2660
15412TIP3    H267652   4.037   2.445  12.524  0.1223 -1.7951  1.0916
15413TIP3   OH267653   5.513   5.174   6.563 -0.4483  0.1015 -0.5434
15413TIP3    H167654   5.456   5.160   6.639 -1.2651 -1.1034 -1.3369
15413TIP3    H267655   5.540   5.265   6.569 -0.8402  0.1402  0.9585
15414TIP3   OH267656   3.925   2.473  11.409 -0.7222 -0.0705 -0.6750
15414TIP3    H167657   3.846   2.426  11.381 -1.8681  0.4441  1.4686
15414TIP3    H267658   3.894   2.561  11.431  0.0141 -0.4357  2.1489
15415TIP3   OH267659   4.979   3.693   0.774 -0.8190 -0.1882  0.6364
15415TIP3    H167660   4.911   3.653   0.828 -0.0753  0.0894  1.7995
15415TIP3    H267661   4.978   3.785   0.799  0.1929 -0.2359  0.8985
15416TIP3   OH267662   4.415   0.865   1.501 -0.4952  0.4814  0.3936
15416TIP3    H167663   4.510   0.865   1.488 -0.5190  0.9464  0.1874
15416TIP3    H267664   4.388   0.955   1.482 -0.7822  0.7560  1.9594
15417TIP3   OH267665   4.397   3.259  11.084  0.9816  0.4897 -0.2795
15417TIP3    H167666   4.429   3.347  11.066  0.4852  0.7464  0.0692
15417TIP3    H267667   4.303   3.269  11.097  0.9308 -0.0784 -0.1547
15418TIP3   OH267668   4.394   5.257   0.861  0.1013 -0.4640 -0.3985
15418TIP3    H167669   4.299   5.246   0.860 -0.0348  0.5270  0.3764
15418TIP3    H267670   4.422   5.221   0.945  0.4582 -1.0543 -0.7635
15419TIP3   OH267671   5.636   2.678   4.004  0.0343  0.2038 -0.5257
15419TIP3    H167672   5.638   2.592   4.047  1.5680 -0.7575 -2.3613
15419TIP3    H267673   5.720   2.717   4.026 -0.2926  0.8589 -0.4351
15420TIP3   OH267674   0.073   2.528  12.239 -0.5893  0.2189  0.2270
15420TIP3    H167675   0.125   2.604  12.265 -1.9178  1.2513  0.0332
15420TIP3    H267676  -0.017   2.562  12.234 -1.0381 -1.0639 -1.1161
15421TIP3   OH267677   2.896   6.656  14.039 -0.2244 -0.1594 -0.1705
15421TIP3    H167678   2.973   6.601  14.024  0.0299 -0.2382  1.2801
15421TIP3    H267679   2.835   6.599  14.085 -0.8376  0.1470 -0.5936
15422TIP3   OH267680   4.992   4.942   4.191 -0.1705  0.1978 -0.3214
15422TIP3    H167681   5.039   5.009   4.240  1.5894 -1.1210 -0.0979
15422TIP3    H267682   5.043   4.930   4.111 -1.1546 -0.0144 -0.9374
15423TIP3   OH267683   6.281   6.338   3.971 -0.1506 -0.4653 -0.2006
15423TIP3    H167684   6.315   6.381   4.049  1.2932 -0.5078 -0.7637
15423TIP3    H267685   6.239   6.258   4.003  0.4450 -0.4912  0.5327
15424TIP3   OH267686   2.694   4.490  16.947 -0.4204 -0.0476  0.2498
15424TIP3    H167687   2.667   4.488  16.855  2.3270  1.1356 -0.6944
15424TIP3    H267688   2.654   4.569  16.982  1.5258  1.6243 -1.0785
15425TIP3   OH267689   5.062   0.740  14.269  0.6856  0.4576 -0.5797
15425TIP3    H167690   5.064   0.824  14.314  0.6438  0.1664 -0.0214
15425TIP3    H267691   5.151   0.705  14.280  0.2605 -0.3028  0.6300
15426TIP3   OH267692   3.901   6.176  12.978 -0.3066  0.2594 -0.1541
15426TIP3    H167693   3.814   6.209  12.957 -0.1702  0.2745 -0.7187
15426TIP3    H267694   3.912   6.195  13.072 -2.3685 -3.0860  0.9249
15427TIP3   OH267695   3.913   1.775  12.966 -0.4038  0.4729 -0.7780
15427TIP3    H167696   3.897   1.857  13.014  1.8284  1.3258 -1.3798
15427TIP3    H267697   3.946   1.804  12.880  2.2129 -1.0003 -0.3701
15428TIP3   OH267698   6.554   1.231   4.556 -0.3382 -0.5063  1.1248
15428TIP3    H167699   6.538   1.137   4.551 -2.3516 -0.1898  0.8771
15428TIP3    H267700   6.490   1.264   4.618 -1.4958  1.0394 -0.7753
15429TIP3   OH267701   0.816   1.062   2.884 -0.0834  0.1745 -0.6591
15429TIP3    H167702   0.824   0.970   2.909 -0.4606  0.2840 -0.1187
15429TIP3    H267703   0.890   1.106   2.928 -0.0853  0.1790 -0.6604
15430TIP3   OH267704   6.705   4.299  16.529 -0.3936 -0.4575 -0.0454
15430TIP3    H167705   6.678   4.281  16.619  0.0162 -0.5452  0.0663
15430TIP3    H267706   6.647   4.245  16.476  0.0512 -1.2416  0.2283
15431TIP3   OH267707   2.556   3.262   4.561  0.3320  0.3483  0.0115
15431TIP3    H167708   2.549   3.189   4.622  0.3840 -0.2107 -0.6414
15431TIP3    H267709   2.555   3.340   4.617 -1.2959 -0.0721  0.6201
15432TIP3   OH267710   3.976   3.301  15.230  0.5746  0.8506 -0.0289
15432TIP3    H167711   3.943   3.259  15.310  1.2725  0.5965  0.1378
15432TIP3    H267712   3.977   3.231  15.165  2.7837  0.2650  0.5413
15433TIP3   OH267713   1.755   3.372  11.577  1.1012 -0.3636  0.0772
15433TIP3    H167714   1.686   3.370  11.510  2.0490 -1.9634 -0.9213
15433TIP3    H267715   1.785   3.281  11.583  1.8932 -0.0240  1.8083
15434TIP3   OH267716   5.794   1.088   0.951 -0.0315  0.1917 -0.4602
15434TIP3    H167717   5.868   1.142   0.924  0.4301  0.3206  1.0102
15434TIP3    H267718   5.747   1.141   1.016 -1.8356  0.4022 -1.8451
15435TIP3   OH267719   6.071   1.665   3.604 -0.1436  0.2714  0.3264
15435TIP3    H167720   6.157   1.621   3.605 -0.1063  0.3551  1.1559
15435TIP3    H267721   6.009   1.595   3.584  0.0007 -0.0117  0.8502
15436TIP3   OH267722   6.216   6.178  13.398  0.0511  0.4990  0.4252
15436TIP3    H167723   6.309   6.188  13.418  0.4760 -0.9370 -0.6975
15436TIP3    H267724   6.187   6.266  13.377  0.7750  1.2261  2.2696
15437TIP3   OH267725   2.660   0.706   4.149 -0.3685  0.2860 -0.1616
15437TIP3    H167726   2.752   0.701   4.176 -0.3072  2.8180  0.4087
15437TIP3    H267727   2.663   0.744   4.061 -0.8575  1.4107  0.2824
15438TIP3   OH267728   0.935   0.251   4.681 -0.2490  0.4730  0.8096
15438TIP3    H167729   0.918   0.181   4.618  2.5671 -0.9979  1.5554
15438TIP3    H267730   0.866   0.315   4.663 -0.9988 -0.9577 -2.1354
15439TIP3   OH267731   2.266   2.587   0.812  0.3732 -0.5133  0.2717
15439TIP3    H167732   2.205   2.535   0.864 -0.9876  2.8031  2.3329
15439TIP3    H267733   2.346   2.589   0.864  0.2409 -0.1190  0.4609
15440TIP3   OH267734   2.307   0.134   3.382 -0.6995 -0.5593 -0.0462
15440TIP3    H167735   2.254   0.203   3.422  1.4482  2.1171 -1.5393
15440TIP3    H267736   2.301   0.061   3.445  0.0010  2.2737  3.6651
15441TIP3   OH267737   2.173   6.070  15.213 -0.1500 -0.4709  0.7310
15441TIP3    H167738   2.216   5.997  15.169 -1.7229 -1.5916  0.9575
15441TIP3    H267739   2.208   6.068  15.302  0.8467 -0.0464  0.3618
15442TIP3   OH267740   2.556   5.327   4.001  0.2019 -0.1553 -0.1846
15442TIP3    H167741   2.620   5.255   3.998 -0.2381 -0.5220 -0.9056
15442TIP3    H267742   2.496   5.309   3.929 -0.1392  0.7369 -0.1345
15443TIP3   OH267743   1.103   3.761   5.018  0.2545  0.0899  0.1514
15443TIP3    H167744   1.096   3.807   4.935  2.0441 -1.1752 -0.7895
15443TIP3    H267745   1.022   3.711   5.026  0.0633  0.2340 -0.8487
15444TIP3   OH267746   4.945   3.180   4.446 -0.1416  0.4148  0.3129
15444TIP3    H167747   4.938   3.273   4.468  1.3431  1.0188 -1.5178
15444TIP3    H267748   4.912   3.173   4.357  1.2147 -0.4902 -0.1586
15445TIP3   OH267749   2.246   6.010   6.854  0.1772 -1.2648  0.1210
15445TIP3    H167750   2.293   5.937   6.813  2.7980  0.0885  0.4572
15445TIP3    H267751   2.274   6.008   6.945 -1.3244 -1.0150  0.6120
15446TIP3   OH267752   3.166   6.267   2.039 -0.0038  0.2268  0.2062
15446TIP3    H167753   3.257   6.271   2.069 -0.3334 -0.7465  1.3828
15446TIP3    H267754   3.172   6.228   1.952  0.5077 -2.7283  1.4640
15447TIP3   OH267755   4.188   0.230  11.470  0.9601 -0.1393  0.0674
15447TIP3    H167756   4.152   0.230  11.559  1.4493  0.7355  0.2912
15447TIP3    H267757   4.137   0.165  11.422 -3.0374  3.0169 -0.4901
15448TIP3   OH267758   1.259   2.618   1.124 -0.0520  0.2557 -0.2910
15448TIP3    H167759   1.289   2.540   1.077 -0.4727  0.2340 -0.5275
15448TIP3    H267760   1.232   2.585   1.210  0.1618  0.2053 -0.2424
15449TIP3   OH267761   0.095   1.485   4.151  0.3707 -0.1203  0.1075
15449TIP3    H167762   0.075   1.571   4.187 -4.6757 -1.1627  0.4749
15449TIP3    H267763   0.106   1.429   4.228  0.3754 -0.3731 -0.0766
15450TIP3   OH267764   0.784   3.135  16.444 -0.5480  0.1489 -0.2583
15450TIP3    H167765   0.801   3.109  16.353  3.2146  1.2130 -0.0053
15450TIP3    H267766   0.806   3.228  16.447  0.1863 -0.0383  1.8930
15451TIP3   OH267767   6.503   5.012  16.164 -0.1573  0.1409  0.1050
15451TIP3    H167768   6.572   4.945  16.168 -1.0509 -1.1082 -2.8746
15451TIP3    H267769   6.424   4.963  16.143 -0.9623  2.0377 -1.5972
15452TIP3   OH267770   3.120   2.130   0.558 -0.3976 -0.1147  0.5276
15452TIP3    H167771   3.036   2.114   0.602 -0.8713  0.0052 -0.3010
15452TIP3    H267772   3.106   2.211   0.509  0.4200  0.2572  0.8872
15453TIP3   OH267773   3.002   5.894  11.725 -0.4500  0.4562 -0.2091
15453TIP3    H167774   2.995   5.926  11.635 -1.8293  0.9326  0.0446
15453TIP3    H267775   3.074   5.944  11.763  1.4709 -1.1066 -1.5625
15454TIP3   OH267776   2.902   1.254   5.643  0.3012 -0.0428  1.1762
15454TIP3    H167777   2.933   1.256   5.553 -0.8960  1.7945  0.7650
15454TIP3    H267778   2.978   1.280   5.695  0.7633 -0.2954  0.6362
15455TIP3   OH267779   5.876   4.876   5.342  0.4571 -0.0382  0.3133
15455TIP3    H167780   5.811   4.810   5.365 -0.8148  1.3982  1.0743
15455TIP3    H267781   5.944   4.867   5.409 -0.2532  0.1152  1.0792
15456TIP3   OH267782   0.428   1.368   5.758 -0.1824 -0.6064  0.0655
15456TIP3    H167783   0.400   1.378   5.667 -2.1961 -3.2940  0.2402
15456TIP3    H267784   0.487   1.293   5.757  1.1167  0.3674  0.7993
15457TIP3   OH267785   6.567   6.204   2.698 -0.0496 -0.3600  0.4671
15457TIP3    H167786   6.584   6.294   2.670 -2.2733 -0.3212 -0.9501
15457TIP3    H267787   6.587   6.204   2.792  0.5087  1.4418  0.3856
15458TIP3   OH267788   5.051   5.231   4.732  0.0610  0.2558  0.3313
15458TIP3    H167789   5.004   5.229   4.816 -0.4603 -0.7273  0.0260
15458TIP3    H267790   5.132   5.182   4.749 -0.3082 -0.4321  0.1053
15459TIP3   OH267791   4.469   1.785  12.347  0.0881  0.0721 -0.3879
15459TIP3    H167792   4.385   1.805  12.306  0.8176 -1.6333 -2.9533
15459TIP3    H267793   4.472   1.689  12.349  1.6200  0.1060  0.4475
15460TIP3   OH267794   3.056   5.481   1.178 -0.2806 -0.6242  0.6385
15460TIP3    H167795   2.986   5.450   1.121 -0.2983 -0.4099  0.5444
15460TIP3    H267796   3.069   5.573   1.153 -1.7355  0.1350  2.3878
15461TIP3   OH267797   1.232   0.110   1.590 -0.0241 -0.5043  0.0815
15461TIP3    H167798   1.241   0.201   1.562  0.2327 -0.8653 -1.0507
15461TIP3    H267799   1.293   0.061   1.535 -1.0311 -1.5175 -0.1795
15462TIP3   OH267800   1.315   2.701  11.434  0.3734  0.2495  0.0590
15462TIP3    H167801   1.332   2.607  11.441 -1.9176 -0.1230  1.5200
15462TIP3    H267802   1.319   2.719  11.340  2.1945 -0.9876 -0.1594
15463TIP3   OH267803   6.342   2.766  11.041  0.0423  0.3673 -0.1747
15463TIP3    H167804   6.398   2.711  11.095  0.6371  1.3781  0.2783
15463TIP3    H267805   6.313   2.709  10.970  1.5097 -0.2336 -0.3315
15464TIP3   OH267806   4.127   6.570   5.878 -0.0305 -0.3267  0.7585
15464TIP3    H167807   4.045   6.619   5.890 -0.6006 -1.3636  1.1946
15464TIP3    H267808   4.151   6.541   5.966  0.2415 -0.9274  0.4898
15465TIP3   OH267809   2.266   0.263  14.054  0.5435 -0.5200  0.6047
15465TIP3    H167810   2.218   0.216  13.985 -0.4364  0.6151  0.4731
15465TIP3    H267811   2.292   0.346  14.012  3.2153 -1.3343  0.4766
15466TIP3   OH267812   6.231   5.206  17.174 -0.5021 -0.3086  0.2240
15466TIP3    H167813   6.228   5.155  17.256 -2.3660  0.0907  0.4409
15466TIP3    H267814   6.160   5.170  17.121  0.9412 -0.8406 -1.4439
15467TIP3   OH267815   3.035   4.488   3.072  0.5663 -0.5791  0.6064
15467TIP3    H167816   3.060   4.469   3.162  0.7874  2.3286  1.2571
15467TIP3    H267817   3.101   4.549   3.041 -3.3099  4.5164  1.1685
15468TIP3   OH267818   0.073   0.481   5.956 -0.1715  0.1330 -0.3849
15468TIP3    H167819  -0.022   0.497   5.951 -0.3951 -1.0720 -0.4387
15468TIP3    H267820   0.106   0.550   6.013 -1.5948 -1.2307  2.3087
15469TIP3   OH267821   0.114   4.805  15.702  0.1835  0.3886  0.3596
15469TIP3    H167822   0.113   4.711  15.685  1.1590 -0.1769  2.9373
15469TIP3    H267823   0.200   4.821  15.743 -0.0648  2.3452  0.2205
15470TIP3   OH267824   0.615   4.695  14.795  0.3823 -0.0750  0.1187
15470TIP3    H167825   0.553   4.768  14.794  1.5278  0.9326  0.0096
15470TIP3    H267826   0.658   4.699  14.710  1.2903 -0.1222  0.5598
15471TIP3   OH267827   6.332   0.382   4.649  0.0887  0.5175  0.2104
15471TIP3    H167828   6.284   0.318   4.597  0.3076  0.7037 -0.2248
15471TIP3    H267829   6.420   0.381   4.612  0.1913  0.8046  0.4445
15472TIP3   OH267830   3.434   0.886   1.997  0.2250 -0.4844 -0.0340
15472TIP3    H167831   3.505   0.930   1.950 -0.6931  1.5880  0.4052
15472TIP3    H267832   3.382   0.845   1.928  0.3573  0.2894 -0.6128
15473TIP3   OH267833   0.448   4.436  17.059  0.1862 -0.6275 -0.0689
15473TIP3    H167834   0.419   4.479  17.139  1.1244  0.3374 -0.2411
15473TIP3    H267835   0.396   4.477  16.990  2.4026  1.7398 -0.4948
15474TIP3   OH267836   1.378   1.296   1.428 -0.3595 -0.0667 -0.5596
15474TIP3    H167837   1.307   1.232   1.423 -1.1024  0.5690  1.2102
15474TIP3    H267838   1.439   1.261   1.493 -0.0289  0.3302 -0.6444
15475TIP3   OH267839   6.733   4.770  13.156 -0.1170  0.0369  0.1122
15475TIP3    H167840   6.761   4.812  13.237 -1.4621  1.1396  0.0391
15475TIP3    H267841   6.638   4.778  13.156 -0.2809 -1.4096 -0.8009
15476TIP3   OH267842   1.260   5.095  11.762 -0.2595 -0.1295  0.3377
15476TIP3    H167843   1.294   5.090  11.673  0.3991 -1.8959  0.6491
15476TIP3    H267844   1.310   5.167  11.802 -0.1917  0.3353 -0.5442
15477TIP3   OH267845   4.272   0.487   1.827  0.2006  0.4041 -0.7307
15477TIP3    H167846   4.359   0.500   1.788  1.1109  0.4347  1.1732
15477TIP3    H267847   4.225   0.433   1.764  1.9335 -0.4222 -1.3812
15478TIP3   OH267848   6.478   1.899  14.295  0.2865 -0.4180  0.2935
15478TIP3    H167849   6.569   1.905  14.268  0.6585 -2.0774  1.0128
15478TIP3    H267850   6.428   1.923  14.217  1.3192  0.3677 -0.1534
15479TIP3   OH267851   1.882   1.651   3.738  0.3093  0.4605  0.1467
15479TIP3    H167852   1.859   1.594   3.665  0.6448 -1.1181  1.2131
15479TIP3    H267853   1.944   1.600   3.790  1.7929  2.3739  0.4039
15480TIP3   OH267854   5.070   5.149   1.749  0.7842 -0.3282 -0.1638
15480TIP3    H167855   4.982   5.185   1.742  1.1215  0.5748  0.0824
15480TIP3    H267856   5.071   5.105   1.834  0.6820 -0.0279 -0.0067
15481TIP3   OH267857   2.701   5.390   6.638 -0.4257  0.6795 -0.4967
15481TIP3    H167858   2.630   5.441   6.676 -0.6933 -0.7554  1.0319
15481TIP3    H267859   2.780   5.435   6.667 -0.6549  0.3083  0.7500
15482TIP3   OH267860   3.169   2.034   1.748 -0.8061  0.6053  0.0882
15482TIP3    H167861   3.155   1.944   1.778 -0.6382  1.0498  1.5594
15482TIP3    H267862   3.179   2.085   1.828  1.5988  1.5534 -0.7105
15483TIP3   OH267863   3.834   0.485  12.214  0.4587  0.1799 -0.2319
15483TIP3    H167864   3.865   0.414  12.158 -1.0321 -0.3354 -0.4537
15483TIP3    H267865   3.888   0.478  12.293 -0.2247 -1.8017  0.1373
15484TIP3   OH267866   1.883   1.640   2.063  0.1524  0.2475  0.0714
15484TIP3    H167867   1.931   1.617   2.142 -0.8249  0.9499  0.8844
15484TIP3    H267868   1.932   1.598   1.992 -0.2943 -2.4692  1.2472
15485TIP3   OH267869   3.060   3.967  14.262  0.0541  0.2082 -0.5461
15485TIP3    H167870   3.148   3.973  14.298 -0.0605 -1.3665  0.0700
15485TIP3    H267871   3.062   3.891  14.204 -0.9497  0.0349 -0.3752
15486TIP3   OH267872   4.457   1.335   1.843  0.0136 -0.0698  0.1663
15486TIP3    H167873   4.449   1.417   1.893 -0.7462 -0.5056  0.7848
15486TIP3    H267874   4.403   1.349   1.765  1.7810  0.8838 -0.9381
15487TIP3   OH267875   3.973   0.309   1.916  0.5287 -0.1683 -0.0014
15487TIP3    H167876   3.888   0.270   1.934  0.3202  0.0436 -0.5307
15487TIP3    H267877   4.033   0.234   1.909  0.5578 -0.2805  1.2276
15488TIP3   OH267878   4.911   4.622  16.497 -0.5600 -0.1094  0.0561
15488TIP3    H167879   4.951   4.617  16.410 -1.4754  1.5863 -0.5153
15488TIP3    H267880   4.817   4.615  16.481 -0.6654 -1.9931  1.1756
15489TIP3   OH267881   2.002   1.894   4.382 -0.2576  0.3141  0.1197
15489TIP3    H167882   2.038   1.982   4.368  1.4698 -0.6242 -2.0083
15489TIP3    H267883   2.079   1.840   4.401 -0.4945 -1.5299 -3.2432
15490TIP3   OH267884   0.617   4.024  17.332  0.2235  0.0173 -0.1004
15490TIP3    H167885   0.660   4.077  17.264 -1.1861  2.4663  0.7931
15490TIP3    H267886   0.524   4.025  17.307  0.0220 -1.1951  0.5337
15491TIP3   OH267887   2.415   4.926  10.177  0.1092 -0.2086 -0.3650
15491TIP3    H167888   2.453   4.894  10.259  0.1192  0.9350  0.0875
15491TIP3    H267889   2.435   4.857  10.114  1.2588 -0.5121  0.2920
15492TIP3   OH267890   3.062   4.718   1.290  0.4084  0.4424 -0.2283
15492TIP3    H167891   3.099   4.804   1.313  0.0908  0.4530  0.2592
15492TIP3    H267892   2.995   4.703   1.357 -1.3644  0.9857 -1.8175
15493TIP3   OH267893   2.083   4.187   2.493 -0.3122  0.0456 -0.1430
15493TIP3    H167894   2.046   4.229   2.571  0.4799  0.3078  0.0988
15493TIP3    H267895   2.033   4.224   2.420 -2.8316 -2.0635  0.3662
15494TIP3   OH267896   2.837   3.254   1.983 -0.2311  0.7641  0.2598
15494TIP3    H167897   2.742   3.258   1.987 -0.3436 -1.2489  0.6191
15494TIP3    H267898   2.856   3.205   1.904  0.4875  0.5282  0.5720
15495TIP3   OH267899   1.316   6.447  13.867  0.0144  0.6159  0.1653
15495TIP3    H167900   1.390   6.473  13.922  1.5034 -0.7481 -1.0915
15495TIP3    H267901   1.343   6.363  13.830 -1.8806  0.4461 -0.9133
15496TIP3   OH267902   4.321   3.552   2.943  0.3559 -0.2535  0.0923
15496TIP3    H167903   4.408   3.515   2.962 -1.1038 -3.2183  1.7660
15496TIP3    H267904   4.296   3.513   2.860  0.4157  0.2480 -0.1664
15497TIP3   OH267905   3.138   2.381   1.821 -0.2160 -0.4160 -0.0590
15497TIP3    H167906   3.135   2.300   1.872 -0.2894 -1.0709 -1.0744
15497TIP3    H267907   3.122   2.353   1.731 -0.3771  0.7499 -0.4094
15498TIP3   OH267908   5.304   3.324   1.183  0.2524 -0.3800 -0.2501
15498TIP3    H167909   5.233   3.368   1.135 -0.8519 -0.2563  1.3885
15498TIP3    H267910   5.375   3.389   1.185 -0.6643  0.6539  0.5123
15499TIP3   OH267911   0.594   2.979   5.138  0.0579  0.8840 -0.8308
15499TIP3    H167912   0.646   2.901   5.157  0.9664  1.2108 -1.8663
15499TIP3    H267913   0.582   3.021   5.223  0.2276  0.0356 -0.3730
15500TIP3   OH267914   2.928   5.087  16.254  0.0719 -0.5837  0.0104
15500TIP3    H167915   3.022   5.107  16.260  0.2003 -1.4586  1.3196
15500TIP3    H267916   2.891   5.161  16.207  1.2523  0.3420  0.4843
15501TIP3   OH267917   1.550   3.053  12.791 -0.2834 -0.3309 -0.0543
15501TIP3    H167918   1.610   3.125  12.772 -0.2955 -0.2650  0.1612
15501TIP3    H267919   1.492   3.050  12.715  0.8843 -1.3297 -0.9506
15502TIP3   OH267920   1.831   6.383  13.789 -0.1221  0.7257 -0.2901
15502TIP3    H167921   1.772   6.321  13.831  2.5456 -0.8582  1.4681
15502TIP3    H267922   1.890   6.329  13.736  0.5960  2.0487 -0.9078
15503TIP3   OH267923   1.504   6.606   1.065  0.3382  0.7735  0.3037
15503TIP3    H167924   1.484   6.681   1.122 -0.1324 -0.5844  2.0162
15503TIP3    H267925   1.436   6.607   0.998 -1.2035  0.4236  1.8101
15504TIP3   OH267926   2.940   5.402  16.659  0.1237  0.0223  0.1240
15504TIP3    H167927   2.951   5.373  16.750  0.1942 -0.0832  0.0821
15504TIP3    H267928   3.001   5.348  16.609 -0.5272 -0.5113 -0.1061
15505TIP3   OH267929   1.044   3.426  14.396 -0.5159  0.7411  0.1544
15505TIP3    H167930   0.973   3.409  14.334 -0.9416 -0.3343  0.9182
15505TIP3    H267931   1.124   3.414  14.344 -0.7890 -2.5076  0.2580
15506TIP3   OH267932   1.251   6.597  11.178 -0.2406 -0.2809 -0.0554
15506TIP3    H167933   1.274   6.568  11.267 -0.9098 -0.9782 -0.0976
15506TIP3    H267934   1.264   6.691  11.180  1.5819 -0.4865  0.2289
15507TIP3   OH267935   1.330   0.752  15.186  0.0120 -0.4790 -0.7681
15507TIP3    H167936   1.361   0.827  15.136 -0.8467 -0.4805 -1.3153
15507TIP3    H267937   1.307   0.788  15.272  1.2046 -0.4264 -0.4486
15508TIP3   OH267938   2.823   0.534   5.157  0.0051 -0.2658 -0.2001
15508TIP3    H167939   2.804   0.540   5.063 -1.6581  1.0643  0.1819
15508TIP3    H267940   2.843   0.624   5.183  1.0045 -0.7109  0.6398
15509TIP3   OH267941   5.949   1.385   0.672 -0.4670 -0.3610 -0.1893
15509TIP3    H167942   6.005   1.355   0.600 -1.6825 -0.1247 -1.2565
15509TIP3    H267943   5.969   1.324   0.743  1.6731  0.1503 -0.2719
15510TIP3   OH267944   6.603   5.644  12.756  0.0829 -0.5030 -0.1201
15510TIP3    H167945   6.671   5.578  12.768 -1.0902 -1.8568 -0.5960
15510TIP3    H267946   6.528   5.612  12.806 -0.0659  1.2387  0.8586
15511TIP3   OH267947   0.211   6.062   4.016  0.1983 -0.1718  0.1029
15511TIP3    H167948   0.218   6.121   4.091  0.8053  0.4997 -0.4586
15511TIP3    H267949   0.130   6.090   3.971 -1.1369 -1.7183  1.4270
15512TIP3   OH267950   0.443   3.066  12.143  0.2181 -0.2841 -0.4142
15512TIP3    H167951   0.511   3.058  12.077  0.6873 -3.7742  0.2769
15512TIP3    H267952   0.361   3.066  12.094  0.5923  1.8259 -1.1372
15513TIP3   OH267953   6.470   5.201   2.040 -0.1346 -0.6497 -0.2783
15513TIP3    H167954   6.416   5.196   1.961  2.2272  2.0308 -2.2615
15513TIP3    H267955   6.454   5.289   2.074  1.8266 -0.3352 -0.0785
15514TIP3   OH267956   4.542   3.417   3.008 -0.0001  0.5481 -0.6352
15514TIP3    H167957   4.526   3.334   3.055  0.0414  0.7226 -0.3063
15514TIP3    H267958   4.624   3.403   2.961  0.0774  0.4450 -0.4731
15515TIP3   OH267959   6.215   5.591   4.956  0.3001 -0.5751 -0.1623
15515TIP3    H167960   6.218   5.686   4.974 -0.6299 -0.3107 -1.3396
15515TIP3    H267961   6.137   5.561   5.002 -0.4945 -0.4058 -1.3708
15516TIP3   OH267962   3.010   4.178  16.394 -0.1807 -0.4379  0.1002
15516TIP3    H167963   3.066   4.165  16.317  0.5428  0.7935  0.3801
15516TIP3    H267964   3.028   4.103  16.450 -1.0451 -1.5862 -1.1012
15517TIP3   OH267965   1.123   1.343   2.304  0.7883 -0.0012 -0.8880
15517TIP3    H167966   1.164   1.376   2.223  2.2781 -0.6807 -0.4393
15517TIP3    H267967   1.031   1.329   2.280  0.7213  1.7710 -1.8725
15518TIP3   OH267968   2.189   3.711   5.062 -0.0783 -0.5661  0.1108
15518TIP3    H167969   2.193   3.619   5.089  1.5628 -1.6604 -3.2865
15518TIP3    H267970   2.277   3.745   5.078 -0.4175  0.1655  0.4818
15519TIP3   OH267971   5.770   6.206  14.199 -0.1662  0.2406 -0.5446
15519TIP3    H167972   5.850   6.233  14.155  0.0047  0.0663 -0.3439
15519TIP3    H267973   5.799   6.175  14.285 -0.5223  0.8044 -0.2131
15520TIP3   OH267974   4.546   5.693   0.351 -0.4463  0.1008  0.2646
15520TIP3    H167975   4.537   5.747   0.430 -1.4907  1.6273 -0.8505
15520TIP3    H267976   4.517   5.750   0.280 -0.1236 -1.4551 -1.1582
15521TIP3   OH267977   3.527   3.684   0.830 -0.4398 -0.2087  0.5291
15521TIP3    H167978   3.500   3.632   0.906 -1.2932 -1.7869 -0.7838
15521TIP3    H267979   3.459   3.668   0.765  0.0030  1.5169 -0.4204
15522TIP3   OH267980   5.205   1.476   1.660  0.3060 -0.7660  0.3950
15522TIP3    H167981   5.223   1.404   1.599 -0.8802 -0.5176 -0.2848
15522TIP3    H267982   5.113   1.465   1.684  0.0919  0.5301  0.2592
15523TIP3   OH267983   6.109   4.414   4.679  0.2836 -0.5134 -0.5460
15523TIP3    H167984   6.102   4.394   4.772  0.9262 -2.4969 -0.8905
15523TIP3    H267985   6.050   4.352   4.636  1.0439 -0.5561 -1.5687
15524TIP3   OH267986   0.210   1.022  16.787  0.0550 -0.2423 -0.5663
15524TIP3    H167987   0.269   0.998  16.859  0.7520 -0.2420 -1.1204
15524TIP3    H267988   0.224   1.117  16.776 -2.1865  0.3778  1.1809
15525TIP3   OH267989   3.921   2.223  13.864 -0.7615  0.0331 -0.1587
15525TIP3    H167990   3.905   2.174  13.945 -0.0747 -0.8784 -0.5523
15525TIP3    H267991   3.963   2.304  13.893  1.3153 -1.1278  0.3140
15526TIP3   OH267992   5.773   3.695   1.817 -0.2092  0.2525  0.2397
15526TIP3    H167993   5.790   3.653   1.733 -0.7499 -0.0830  0.2953
15526TIP3    H267994   5.714   3.768   1.796 -0.0844  0.3667  0.2846
15527TIP3   OH267995   5.208   2.033  17.152 -0.0494  0.1141 -0.0033
15527TIP3    H167996   5.224   2.048  17.245 -1.2461  0.6761  0.1456
15527TIP3    H267997   5.211   2.121  17.114  1.3188 -0.2003 -0.6682
15528TIP3   OH267998   5.852   0.779  11.619 -0.2894  0.5986 -0.6117
15528TIP3    H167999   5.881   0.834  11.692 -0.6763 -0.0180  0.0228
15528TIP3    H268000   5.806   0.839  11.560 -1.7296  0.7943  0.6328
15529TIP3   OH268001   2.637   3.553   1.217 -0.4318 -0.0597  0.5359
15529TIP3    H168002   2.614   3.646   1.212 -1.1181 -0.1200  1.9699
15529TIP3    H268003   2.633   3.533   1.310 -0.3723 -1.5557  0.2394
15530TIP3   OH268004   3.124   5.974   1.031  0.2176  0.3145 -0.5780
15530TIP3    H168005   3.067   5.899   1.048  1.1520 -0.7432 -1.8539
15530TIP3    H268006   3.199   5.962   1.090 -0.4067  1.1900  0.4232
15531TIP3   OH268007   0.775   0.069  13.061  0.3142  0.7032 -0.2865
15531TIP3    H168008   0.860   0.112  13.068  0.5547  0.1858  0.0994
15531TIP3    H268009   0.796  -0.024  13.050 -0.1905  0.6780 -1.0857
15532TIP3   OH268010   1.456   0.273  14.605 -0.7888 -0.3175 -0.3079
15532TIP3    H168011   1.384   0.335  14.590 -1.9825 -1.3488  0.8338
15532TIP3    H268012   1.461   0.222  14.525 -0.3631  0.6882 -0.9335
15533TIP3   OH268013   4.243   2.735   2.144  0.2384  0.1139  0.2766
15533TIP3    H168014   4.241   2.781   2.228  0.1862  0.2397  0.2068
15533TIP3    H268015   4.159   2.757   2.103 -0.9262 -2.0991  1.3400
15534TIP3   OH268016   2.760   5.163  13.788 -0.5412  0.0915  0.4803
15534TIP3    H168017   2.738   5.225  13.718 -0.0480  0.1560  0.3805
15534TIP3    H268018   2.821   5.101  13.748  0.5144  0.6920  1.0950
15535TIP3   OH268019   2.759   2.471  16.266  0.2680  0.9671 -0.4231
15535TIP3    H168020   2.678   2.420  16.270  0.0732  1.2005 -1.1279
15535TIP3    H268021   2.828   2.405  16.259  0.0259  0.7783 -1.2257
15536TIP3   OH268022   3.144   6.580   0.140 -0.1899  0.3973 -0.0832
15536TIP3    H168023   3.149   6.540   0.227 -1.7554  0.4909  0.0784
15536TIP3    H268024   3.232   6.571   0.104  0.8307  1.4538  1.9911
15537TIP3   OH268025   5.742   6.167   1.181 -0.3967 -0.3044  0.1896
15537TIP3    H168026   5.828   6.144   1.218 -0.8235 -0.3733  1.1510
15537TIP3    H268027   5.683   6.171   1.256 -1.5271 -1.5076 -0.5907
15538TIP3   OH268028   0.260   0.600  14.711  0.4296  0.5090 -0.2193
15538TIP3    H168029   0.190   0.534  14.703  0.0512  0.8808  0.0275
15538TIP3    H268030   0.310   0.573  14.788 -0.1790  0.9324  0.3319
15539TIP3   OH268031   3.433   0.109   5.905 -0.0697  0.1640  0.1598
15539TIP3    H168032   3.426   0.150   5.819 -1.5457 -1.5501 -0.6030
15539TIP3    H268033   3.524   0.083   5.913  0.5155  2.0449 -0.0312
15540TIP3   OH268034   1.222   3.415  11.148 -0.6986  0.3344  0.2127
15540TIP3    H168035   1.316   3.429  11.164 -0.6861 -0.4588  0.9096
15540TIP3    H268036   1.219   3.346  11.082 -0.7723 -1.0789  1.6256
15541TIP3   OH268037   4.907   2.066  14.441 -0.2703  0.0507  0.0318
15541TIP3    H168038   4.962   1.992  14.417 -0.9397  0.0225 -1.5815
15541TIP3    H268039   4.968   2.136  14.463  0.3772 -0.6399  0.4599
15542TIP3   OH268040   3.512   2.581  15.445 -0.1061  0.6464 -0.2890
15542TIP3    H168041   3.598   2.538  15.441  0.3262  1.5575 -1.8718
15542TIP3    H268042   3.459   2.524  15.501  0.6442 -1.5639 -1.6912
15543TIP3   OH268043   0.142   6.452  11.907  0.0212 -0.1654 -0.2287
15543TIP3    H168044   0.052   6.484  11.899 -0.4105 -0.8085  1.5067
15543TIP3    H268045   0.138   6.386  11.976  1.7744 -0.4629 -0.3540
15544TIP3   OH268046   4.798   2.374  15.904 -0.4870 -0.0113  0.0703
15544TIP3    H168047   4.753   2.453  15.934  1.5048  0.8208  1.0779
15544TIP3    H268048   4.780   2.309  15.973  1.0630  0.7954  1.3065
15545TIP3   OH268049   2.786   4.903   4.256  0.0332  0.0948 -0.1480
15545TIP3    H168050   2.708   4.959   4.252 -0.2270 -0.2056  0.6483
15545TIP3    H268051   2.803   4.892   4.349  0.6663 -0.3592 -0.3117
15546TIP3   OH268052   2.511   2.651   1.906  0.1586  0.3467  0.0479
15546TIP3    H168053   2.572   2.691   1.968 -0.5469  0.1858  0.8708
15546TIP3    H268054   2.454   2.723   1.878  0.0255  0.2767  0.1384
15547TIP3   OH268055   0.391   1.216  15.529 -0.4726  0.0118 -0.4265
15547TIP3    H168056   0.433   1.282  15.585  1.1459  1.0680 -2.7266
15547TIP3    H268057   0.340   1.267  15.466 -0.5918 -1.0081 -1.1720
15548TIP3   OH268058   2.632   5.848  17.023  0.1140 -0.1416 -0.2498
15548TIP3    H168059   2.686   5.782  17.066  1.7560  0.4368 -1.3111
15548TIP3    H268060   2.608   5.909  17.093  0.5482 -0.6067  0.3106
15549TIP3   OH268061   3.489   2.134  17.174  0.2272 -0.5801  0.1359
15549TIP3    H168062   3.529   2.156  17.259  1.0024 -0.9149 -0.1330
15549TIP3    H268063   3.403   2.100  17.196  0.7946 -1.5939  0.8652
15550TIP3   OH268064   4.904   3.303  15.600 -0.2903  0.2960  0.0359
15550TIP3    H168065   4.906   3.365  15.672 -0.5583 -0.9364  1.1393
15550TIP3    H268066   4.811   3.292  15.580 -0.1801  1.6351 -1.4386
15551TIP3   OH268067   6.652   0.451  11.451 -0.3561 -0.2637  0.4967
15551TIP3    H168068   6.631   0.474  11.361  0.7912 -0.5866  0.1348
15551TIP3    H268069   6.574   0.403  11.482 -1.2655  0.9269  0.1075
15552TIP3   OH268070   1.939   1.022   4.733 -0.0676 -0.1011  0.0737
15552TIP3    H168071   1.968   1.113   4.722 -0.2672 -0.1001 -0.4844
15552TIP3    H268072   1.888   1.023   4.814  0.1659  0.2280  0.2197
15553TIP3   OH268073   2.413   3.121  14.398 -0.1221 -0.6782  0.0240
15553TIP3    H168074   2.432   3.094  14.308  0.5135 -0.3998  0.0689
15553TIP3    H268075   2.374   3.044  14.439  1.1365 -1.3578 -0.0157
15554TIP3   OH268076   3.646   0.903   6.448  0.2360  0.2686  0.0153
15554TIP3    H168077   3.642   0.992   6.482  0.8945  0.7899 -1.1957
15554TIP3    H268078   3.726   0.902   6.395 -0.2224 -0.7923 -0.6763
15555TIP3   OH268079   1.609   1.527   5.063 -0.2252 -0.4693 -0.4072
15555TIP3    H168080   1.602   1.510   4.969 -0.9086 -1.0137 -0.2610
15555TIP3    H268081   1.519   1.526   5.094 -0.0093 -0.1415  0.2332
15556TIP3   OH268082   1.653   0.238   0.210 -0.2975  0.1179  0.0779
15556TIP3    H168083   1.557   0.230   0.216 -0.3338  0.1661 -0.3954
15556TIP3    H268084   1.678   0.286   0.288 -0.6155 -0.2841  0.4301
15557TIP3   OH268085   3.033   3.703   5.195 -0.1272 -0.0333 -0.0479
15557TIP3    H168086   2.974   3.760   5.145  0.0895 -0.1565 -0.4510
15557TIP3    H268087   3.027   3.735   5.285 -0.8977 -0.1170 -0.0604
15558TIP3   OH268088   0.480   0.593   3.314  0.4127  0.3450 -0.4106
15558TIP3    H168089   0.400   0.611   3.363  0.5590  1.1133 -0.4438
15558TIP3    H268090   0.482   0.660   3.246  1.5417  0.8970  0.1346
15559TIP3   OH268091   6.548   6.164   4.421 -0.8497 -0.3572 -0.7415
15559TIP3    H168092   6.549   6.070   4.404  2.9800 -0.4484 -0.8735
15559TIP3    H268093   6.619   6.199   4.367  0.1794  2.0290  1.8841
15560TIP3   OH268094   3.374   0.791  11.099 -0.2040  0.5358  0.5358
15560TIP3    H168095   3.417   0.736  11.034 -2.2105  0.2905 -0.6793
15560TIP3    H268096   3.317   0.849  11.048  0.1582  2.2043  1.9274
15561TIP3   OH268097   2.627   3.307   3.965 -0.1152  0.3369  0.1115
15561TIP3    H168098   2.550   3.296   3.910 -0.5023 -1.2814  0.9176
15561TIP3    H268099   2.698   3.323   3.904 -0.3392 -2.4141 -1.0245
15562TIP3   OH268100   0.519   5.818  14.234  0.4951  1.0445 -0.4719
15562TIP3    H168101   0.613   5.803  14.218  0.5670  2.0791 -1.0837
15562TIP3    H268102   0.492   5.877  14.164 -0.6083  0.8202 -0.2504
15563TIP3   OH268103   6.364   1.756  12.779 -0.2004 -0.0717 -0.5856
15563TIP3    H168104   6.272   1.757  12.752 -0.4775 -1.0527  0.2506
15563TIP3    H268105   6.410   1.801  12.708 -1.5694  2.4085 -0.0254
15564TIP3   OH268106   5.176   6.626  14.622 -0.0397 -0.5524  0.2247
15564TIP3    H168107   5.199   6.581  14.704 -0.0677  1.8059  1.5989
15564TIP3    H268108   5.081   6.621  14.617  0.0503 -2.2204 -0.6425
15565TIP3   OH268109   1.748   1.387  12.297 -0.3649  0.4603  0.0561
15565TIP3    H168110   1.718   1.307  12.341  0.1357  1.1817  1.7883
15565TIP3    H268111   1.819   1.357  12.239  1.3340 -0.1173  2.3106
15566TIP3   OH268112   1.729   0.785   3.839 -0.0213 -0.2045  0.0342
15566TIP3    H168113   1.760   0.821   3.922  1.0540 -1.1061  0.0506
15566TIP3    H268114   1.634   0.796   3.842 -0.3876 -2.8528  2.7333
15567TIP3   OH268115   0.470   6.166  15.157 -0.5609 -0.0022  0.1237
15567TIP3    H168116   0.560   6.197  15.149 -0.7842  0.5977 -0.1597
15567TIP3    H268117   0.458   6.109  15.081 -1.2749  2.1409 -1.4715
15568TIP3   OH268118   6.193   0.389   0.741 -0.1581 -0.3224 -0.5562
15568TIP3    H168119   6.170   0.357   0.654  0.9583 -1.6595 -0.3801
15568TIP3    H268120   6.109   0.417   0.779 -0.9693 -1.6467 -1.2873
15569TIP3   OH268121   0.228   1.968  12.339  0.1433 -0.1328 -0.0015
15569TIP3    H168122   0.245   1.908  12.267 -0.5719 -0.6772  0.2660
15569TIP3    H268123   0.198   2.048  12.297  0.2798 -0.2551 -0.3335
15570TIP3   OH268124   3.824   5.893   3.149  0.1912 -0.1202  0.0240
15570TIP3    H168125   3.735   5.875   3.120 -0.0829  1.0633  0.0829
15570TIP3    H268126   3.878   5.882   3.071  0.1111 -1.4999  0.1305
15571TIP3   OH268127   1.867   5.991   2.580  0.6606  0.3469  0.0430
15571TIP3    H168128   1.775   6.014   2.590  0.5918  0.5889 -1.0213
15571TIP3    H268129   1.870   5.897   2.598  0.3404  0.4713  0.8022
15572TIP3   OH268130   4.651   6.256  10.838 -0.3539 -0.3773  0.3562
15572TIP3    H168131   4.715   6.301  10.893 -0.4842  0.6816 -0.3341
15572TIP3    H268132   4.577   6.317  10.832 -0.1931 -0.2974 -1.2837
15573TIP3   OH268133   6.257   1.322  13.369 -0.3133  0.2136 -0.0408
15573TIP3    H168134   6.283   1.372  13.291  1.7954  1.4773  1.3780
15573TIP3    H268135   6.201   1.252  13.334 -0.6775  1.5945 -2.5000
15574TIP3   OH268136   6.000   3.007   2.784 -0.1651 -0.3974  0.2570
15574TIP3    H168137   6.026   2.938   2.846 -2.2932 -0.9380  0.6098
15574TIP3    H268138   6.007   3.088   2.834 -0.0707 -0.6215  0.6116
15575TIP3   OH268139   4.100   3.557   1.156 -0.1663 -0.2950 -0.1118
15575TIP3    H168140   4.098   3.461   1.145  1.4791 -0.3484 -0.1535
15575TIP3    H268141   4.150   3.570   1.237 -2.1612  0.4893  1.0468
15576TIP3   OH268142   1.743   0.141  16.929  0.3730 -0.3080 -0.1080
15576TIP3    H168143   1.815   0.132  16.866  1.2257  1.1072  0.6170
15576TIP3    H268144   1.779   0.110  17.012 -0.7124 -2.0538 -0.2201
15577TIP3   OH268145   4.052   3.422   1.487  0.1636  0.1364  0.5316
15577TIP3    H168146   4.075   3.467   1.568 -0.9179 -0.4169  1.1589
15577TIP3    H268147   4.107   3.343   1.487 -1.5957 -1.1676  2.0117
15578TIP3   OH268148   5.610   4.407  13.570  0.6043  0.2925  0.2631
15578TIP3    H168149   5.657   4.477  13.526 -0.2069  0.0485 -1.0774
15578TIP3    H268150   5.577   4.352  13.498 -2.8435  1.1835  0.9875
15579TIP3   OH268151   5.825   5.383  15.264  0.2226 -0.4192  0.1044
15579TIP3    H168152   5.750   5.426  15.305  0.8677  0.8774 -0.0440
15579TIP3    H268153   5.882   5.359  15.337  0.3395 -0.0996  0.1194
15580TIP3   OH268154   0.139   4.511  15.608  0.3067 -0.8740  0.0806
15580TIP3    H168155   0.168   4.427  15.573  1.7605 -0.0115 -0.8451
15580TIP3    H268156   0.083   4.548  15.539  0.8134 -0.4647 -0.1153
15581TIP3   OH268157   1.218   5.811  17.042  0.2330  0.1759  0.1581
15581TIP3    H168158   1.276   5.755  17.094  0.7887  0.0701 -0.5609
15581TIP3    H268159   1.272   5.840  16.969 -0.5321  0.3311 -0.3567
15582TIP3   OH268160   3.595   5.667  15.773  0.2310  0.2554 -0.1632
15582TIP3    H168161   3.566   5.584  15.811  0.4967 -0.0011 -0.5185
15582TIP3    H268162   3.672   5.691  15.824  0.3315  0.1281 -0.2517
15583TIP3   OH268163   6.720   4.397   1.073 -0.4020  0.1996 -0.0390
15583TIP3    H168164   6.713   4.456   1.148  0.8824 -0.2573  0.4713
15583TIP3    H268165   6.689   4.449   0.999 -1.7503  0.6395  0.7910
15584TIP3   OH268166   3.562   4.219  12.438 -0.0097 -0.4228 -0.4288
15584TIP3    H168167   3.535   4.208  12.529  0.6055 -0.7522 -0.2845
15584TIP3    H268168   3.656   4.201  12.438 -0.0736 -0.7964 -1.1936
15585TIP3   OH268169   0.627   2.298  13.915 -0.1574  0.5358 -0.2736
15585TIP3    H168170   0.711   2.326  13.950 -0.3064 -0.3880  0.8887
15585TIP3    H268171   0.580   2.263  13.990 -1.2805  0.3141 -1.0491
15586TIP3   OH268172   6.436   6.527   1.246 -0.5507 -1.3200  0.1701
15586TIP3    H168173   6.460   6.563   1.332 -0.2867 -1.1077  0.0103
15586TIP3    H268174   6.446   6.601   1.186 -0.9844 -1.4027 -0.0023
15587TIP3   OH268175   2.848   5.640  14.431 -0.9014 -0.3574  0.5215
15587TIP3    H168176   2.843   5.546  14.448 -0.1343 -0.5757 -0.3385
15587TIP3    H268177   2.762   5.663  14.398 -0.9951 -0.8330  0.4199
15588TIP3   OH268178   5.923   3.019  14.583  0.0438 -0.4897  0.5204
15588TIP3    H168179   5.948   3.104  14.546  0.1012 -1.2913 -1.4000
15588TIP3    H268180   5.967   3.016  14.668  0.9289  0.9418  0.1477
15589TIP3   OH268181   0.551   6.094  14.361  0.1743 -0.3182 -0.2034
15589TIP3    H168182   0.603   6.104  14.441 -1.9809  0.1940  1.2225
15589TIP3    H268183   0.569   6.004  14.331  0.4955 -0.7531  1.2360
15590TIP3   OH268184   5.311   1.234  12.171 -0.5773 -0.2106  0.1161
15590TIP3    H168185   5.336   1.220  12.262  0.5420  0.9496  0.0222
15590TIP3    H268186   5.231   1.285  12.176 -0.1937  0.3720  0.4664
15591TIP3   OH268187   6.269   0.115  15.043  0.0420  0.0137  0.5090
15591TIP3    H168188   6.192   0.144  14.995 -0.7055 -0.5975  1.3004
15591TIP3    H268189   6.277   0.022  15.023  2.2698  0.6087 -1.8088
15592TIP3   OH268190   5.458   2.734  16.272  0.5460 -0.3232  0.5505
15592TIP3    H168191   5.427   2.799  16.208  0.9625  1.1191  1.7505
15592TIP3    H268192   5.551   2.754  16.283  0.2166  0.3469  2.5471
15593TIP3   OH268193   3.221   2.069  13.996 -0.2381 -1.0128 -0.1341
15593TIP3    H168194   3.244   2.046  13.906 -1.8222 -1.4474 -0.4510
15593TIP3    H268195   3.205   1.985  14.039  1.3782 -0.8739  0.8488
15594TIP3   OH268196   2.652   3.598  10.625  0.0304  0.2703  0.4602
15594TIP3    H168197   2.615   3.532  10.566 -0.8516  1.2181 -0.0765
15594TIP3    H268198   2.704   3.654  10.567 -0.6647  1.0807  0.6045
15595TIP3   OH268199   0.180   0.809  17.040  0.0024 -0.1466  0.0360
15595TIP3    H168200   0.104   0.782  16.989  0.3500  0.7154 -0.9809
15595TIP3    H268201   0.245   0.740  17.024  0.0520  0.0359 -0.5754
15596TIP3   OH268202   0.595   4.482  13.386 -0.2560  0.3915  0.2765
15596TIP3    H168203   0.649   4.472  13.465  0.5331 -0.9691 -0.4007
15596TIP3    H268204   0.656   4.512  13.319 -0.6696  0.3873 -0.1060
15597TIP3   OH268205   1.084   0.572   1.031  0.0457  0.0901  0.4613
15597TIP3    H168206   1.072   0.655   0.984  2.6158  0.3323  0.0582
15597TIP3    H268207   1.024   0.577   1.105 -0.8577  1.7042 -0.3324
15598TIP3   OH268208   0.347   3.773   4.434 -0.3895  0.1351 -0.1304
15598TIP3    H168209   0.339   3.737   4.345  0.9333 -3.2574  0.9411
15598TIP3    H268210   0.280   3.727   4.485 -1.0153  1.9058  0.7397
15599TIP3   OH268211   0.873   4.971  15.387 -1.1693  0.1125  0.2347
15599TIP3    H168212   0.843   5.057  15.357  0.9217  0.7156 -0.3098
15599TIP3    H268213   0.932   4.941  15.317 -0.5915 -1.0223  1.1780
15600TIP3   OH268214   4.369   1.913  16.323  0.2888 -0.8262 -0.2711
15600TIP3    H168215   4.293   1.925  16.380 -0.3094  0.6214 -1.3157
15600TIP3    H268216   4.354   1.973  16.250  3.7587  1.6234  0.7868
15601TIP3   OH268217   4.449   6.055  12.853  0.1958 -0.3209  0.0491
15601TIP3    H168218   4.463   6.075  12.761  2.2517 -0.0007  0.3716
15601TIP3    H268219   4.436   6.140  12.895  2.5599 -0.0821  0.4738
15602TIP3   OH268220   6.658   5.153  13.839  0.4002  0.1512  0.5869
15602TIP3    H168221   6.644   5.240  13.801  1.1929  0.2747  0.5570
15602TIP3    H268222   6.744   5.159  13.880  0.7508 -0.8193  0.0138
15603TIP3   OH268223   4.901   4.323   3.404 -0.1736  0.0690  0.3696
15603TIP3    H168224   4.909   4.261   3.332  1.4693 -0.0116  0.5705
15603TIP3    H268225   4.970   4.387   3.387 -0.9855  1.0924  0.8796
15604TIP3   OH268226   3.319   1.031  13.012  0.0079 -0.1215 -0.0351
15604TIP3    H168227   3.321   1.101  13.077  1.4470 -0.7430  0.6429
15604TIP3    H268228   3.316   1.077  12.927 -1.6796  0.6964  0.4242
15605TIP3   OH268229   6.067   6.443  14.765  0.0479 -0.3844 -0.3326
15605TIP3    H168230   6.057   6.521  14.820  1.2357  1.9205 -3.1041
15605TIP3    H268231   5.977   6.420  14.740 -0.2665  0.6335 -0.1736
15606TIP3   OH268232   5.939   4.950   0.605 -0.6409  0.1471 -0.2475
15606TIP3    H168233   5.943   4.858   0.579 -0.1604  0.5598 -1.7516
15606TIP3    H268234   6.030   4.975   0.620 -0.8095  0.2618  0.6843
15607TIP3   OH268235   0.956   1.534   4.435 -0.9133  0.3713  0.0323
15607TIP3    H168236   0.969   1.617   4.482 -0.7549  0.6758 -0.5301
15607TIP3    H268237   0.982   1.467   4.498 -0.5109  0.7779  0.3129
15608TIP3   OH268238   5.974   5.830  16.956  0.1868 -0.3601  0.6633
15608TIP3    H168239   6.041   5.768  16.985  0.4594 -0.2320  0.3163
15608TIP3    H268240   6.010   5.867  16.875 -0.4814 -0.5725  0.2691
15609TIP3   OH268241   0.587   2.012  16.873 -0.7759 -0.9366  0.8527
15609TIP3    H168242   0.679   2.013  16.899 -0.3552 -1.2022 -0.5458
15609TIP3    H268243   0.568   1.921  16.853 -1.1316 -0.7759  0.4352
15610TIP3   OH268244   0.884   3.360  12.687 -0.0863  0.1554 -0.4850
15610TIP3    H168245   0.964   3.384  12.640 -0.0569  0.4877 -0.2650
15610TIP3    H268246   0.907   3.367  12.779  0.0059 -0.9805 -0.4078
15611TIP3   OH268247   3.738   3.959   1.274 -0.5220 -0.1149 -0.6697
15611TIP3    H168248   3.810   3.951   1.212  0.3254  0.5738  0.2102
15611TIP3    H268249   3.670   4.005   1.225  0.2175  0.6210 -1.0268
15612TIP3   OH268250   6.064   0.260   0.485 -0.2810 -0.5359  0.4525
15612TIP3    H168251   6.144   0.209   0.486  1.8287  2.4923 -0.0759
15612TIP3    H268252   6.049   0.279   0.392  0.4351  1.7604  0.7557
15613TIP3   OH268253   1.195   3.659  14.106  0.4001  0.1249  0.2339
15613TIP3    H168254   1.156   3.686  14.189 -1.7668 -1.3325 -0.2236
15613TIP3    H268255   1.191   3.738  14.052  0.9772  0.8335  1.1842
15614TIP3   OH268256   3.206   6.314   4.937  0.0785 -0.6416  0.2057
15614TIP3    H168257   3.247   6.283   4.857 -0.3312 -0.9368  0.1046
15614TIP3    H268258   3.230   6.407   4.943 -0.4284 -0.4442 -0.6088
15615TIP3   OH268259   2.012   4.537  15.388 -0.0490  0.0223  0.6080
15615TIP3    H168260   1.983   4.446  15.378  0.3369 -0.1858  1.3328
15615TIP3    H268261   2.053   4.558  15.304 -0.9240 -0.1739  0.1133
15616TIP3   OH268262   5.950   4.532   0.770 -0.5411  0.2062 -0.3156
15616TIP3    H168263   5.907   4.461   0.723  0.6850 -0.4801 -0.4380
15616TIP3    H268264   5.882   4.599   0.779 -0.9768  0.1436 -2.5855
15617TIP3   OH268265   3.471   2.740   3.865  0.2303 -0.0684 -0.1115
15617TIP3    H168266   3.436   2.817   3.910  2.9409  2.9664 -2.5749
15617TIP3    H268267   3.404   2.717   3.801 -1.2251 -0.7795  1.5984
15618TIP3   OH268268   2.846   1.645   4.077  0.9029 -0.3627 -0.3804
15618TIP3    H168269   2.769   1.606   4.036  1.6935 -1.1352 -1.1839
15618TIP3    H268270   2.842   1.737   4.054  0.0580 -0.3362 -0.1470
15619TIP3   OH268271   1.895   0.938   6.893 -0.1343  0.3811 -0.0265
15619TIP3    H168272   1.887   0.900   6.806 -0.5608 -0.0803  0.2109
15619TIP3    H268273   1.858   0.872   6.952  1.8621 -0.1478  0.7223
15620TIP3   OH268274   0.951   2.748  16.749  0.5750  0.1708  0.3976
15620TIP3    H168275   0.948   2.837  16.713 -0.5868  0.0691  0.2110
15620TIP3    H268276   1.025   2.749  16.809  0.2477  1.4295  0.8107
15621TIP3   OH268277   1.658   0.811  12.425  0.7640 -0.2139 -0.8200
15621TIP3    H168278   1.655   0.880  12.491 -1.6253 -0.6226 -0.4302
15621TIP3    H268279   1.670   0.730  12.475 -1.5650 -0.5791 -0.7750
15622TIP3   OH268280   4.865   3.317  14.688 -0.1331  0.2917  0.9855
15622TIP3    H168281   4.873   3.222  14.684  1.9016  0.4491 -1.4764
15622TIP3    H268282   4.951   3.347  14.720 -0.7785  1.3181  1.8236
15623TIP3   OH268283   5.144   2.356   2.671  0.1693  0.0090 -0.0727
15623TIP3    H168284   5.203   2.407   2.615 -0.7042  0.2144 -0.8397
15623TIP3    H268285   5.202   2.303   2.725  1.0720 -1.2652 -2.1652
15624TIP3   OH268286   2.936   6.446  15.682  0.0582  0.4736  0.3759
15624TIP3    H168287   2.999   6.417  15.748  0.5944  2.4437  0.7992
15624TIP3    H268288   2.860   6.474  15.732  1.0193  3.3804  0.3883
15625TIP3   OH268289   0.992   6.535  13.605  0.5756  0.2843  0.4879
15625TIP3    H168290   0.937   6.475  13.655  1.0221  0.0258  0.6752
15625TIP3    H268291   1.037   6.587  13.672  1.7360 -0.5583  0.4052
15626TIP3   OH268292   5.799   1.996  16.577 -0.4915 -0.5378 -0.6652
15626TIP3    H168293   5.708   1.968  16.581 -0.5410 -0.2294  1.0113
15626TIP3    H268294   5.848   1.916  16.561 -0.8609 -1.1619  1.1358
15627TIP3   OH268295   2.377   3.216  13.439 -0.5668 -0.0059 -0.3641
15627TIP3    H168296   2.288   3.251  13.450 -0.2074  1.7041 -2.2789
15627TIP3    H268297   2.395   3.170  13.521 -2.7220  0.7218  0.5923
15628TIP3   OH268298   2.034   3.495  16.754 -0.7326  0.4111 -0.9098
15628TIP3    H168299   2.009   3.403  16.758 -0.8015  0.4543  2.3829
15628TIP3    H268300   2.125   3.494  16.724 -0.9197 -0.6455 -1.4892
15629TIP3   OH268301   6.303   0.383   2.364 -0.4708 -0.3047 -0.1507
15629TIP3    H168302   6.247   0.454   2.396 -1.8143 -2.4274  2.6624
15629TIP3    H268303   6.387   0.424   2.348 -1.3028  1.9993  0.9782
15630TIP3   OH268304   1.013   5.216  14.721 -0.4959 -0.3754 -0.0022
15630TIP3    H168305   0.982   5.177  14.639 -0.9550  0.2994 -0.1592
15630TIP3    H268306   1.063   5.293  14.694 -0.2704 -0.4024  0.3309
15631TIP3   OH268307   0.298   1.676   5.641 -0.3902 -0.3369 -0.2856
15631TIP3    H168308   0.232   1.744   5.659 -0.5556  0.3132 -2.9109
15631TIP3    H268309   0.373   1.725   5.607  0.3760 -1.3004 -0.0083
15632TIP3   OH268310   1.838   2.986   0.638  0.1217 -0.3644 -0.2377
15632TIP3    H168311   1.776   2.918   0.612 -1.0394  0.9863 -1.2273
15632TIP3    H268312   1.900   2.992   0.565  0.6719 -0.8605  0.1849
15633TIP3   OH268313   3.925   0.702  15.842  0.0587 -0.6922  0.4523
15633TIP3    H168314   4.003   0.742  15.879 -0.3806 -0.4293  1.1190
15633TIP3    H268315   3.874   0.674  15.919 -0.1208 -1.5975  0.0156
15634TIP3   OH268316   1.841   3.223   4.230  0.5625 -0.4211 -0.7047
15634TIP3    H168317   1.826   3.261   4.316 -1.9284  1.3864 -1.8098
15634TIP3    H268318   1.829   3.129   4.242 -3.0612  0.0494  0.4378
15635TIP3   OH268319   5.413   2.074  12.371  0.0445 -0.0840  0.0090
15635TIP3    H168320   5.375   2.138  12.310  0.0296 -0.1188 -0.0181
15635TIP3    H268321   5.343   2.056  12.433  0.0960  0.0338  0.1006
15636TIP3   OH268322   5.857   6.363   0.633 -0.2466 -0.5041  0.0435
15636TIP3    H168323   5.874   6.366   0.727  1.6258 -2.0979 -0.1694
15636TIP3    H268324   5.941   6.385   0.593 -0.1032 -2.9634 -1.1870
15637TIP3   OH268325   4.828   1.816   4.057 -0.1775  0.0587  0.0297
15637TIP3    H168326   4.764   1.880   4.087 -1.6039 -1.5982  0.7189
15637TIP3    H268327   4.852   1.845   3.969 -0.6950  1.5510  0.3524
15638TIP3   OH268328   6.559   5.834  13.602  0.1116  0.1136 -0.3820
15638TIP3    H168329   6.620   5.769  13.569  0.8787 -0.5280  2.1011
15638TIP3    H268330   6.584   5.915  13.557  2.3633 -0.2788  0.0353
15639TIP3   OH268331   0.922   4.864  15.954 -0.6346  0.8903 -0.3942
15639TIP3    H168332   0.998   4.922  15.942 -1.8127  2.5018 -0.3941
15639TIP3    H268333   0.923   4.842  16.047  0.7009 -0.3991 -0.6793
15640TIP3   OH268334   2.550   0.232   2.722  0.3228 -0.6520 -0.4862
15640TIP3    H168335   2.578   0.152   2.768 -1.1033 -1.9367 -1.7813
15640TIP3    H268336   2.495   0.202   2.651  0.4782  1.4615 -1.5882
15641TIP3   OH268337   0.023   4.005   2.990 -0.2654 -0.6529  0.6167
15641TIP3    H168338   0.038   3.911   2.979 -1.5775 -0.7020 -1.3870
15641TIP3    H268339   0.095   4.046   2.942  0.1683 -0.6251  1.2814
15642TIP3   OH268340   1.047   1.412  15.749 -0.1135 -0.0488 -0.0225
15642TIP3    H168341   1.078   1.340  15.694  0.2310  0.1180 -0.0453
15642TIP3    H268342   1.073   1.491  15.703  0.9907  0.1019  0.8140
15643TIP3   OH268343   5.453   1.118   3.606 -0.6057 -0.6351 -0.3304
15643TIP3    H168344   5.532   1.066   3.622 -0.0736 -0.0108 -0.8542
15643TIP3    H268345   5.403   1.112   3.687  0.4105 -0.3088  0.3426
15644TIP3   OH268346   0.361   5.304   4.242 -0.9697 -0.4384 -0.6167
15644TIP3    H168347   0.325   5.240   4.181  1.8968 -0.1606 -2.8157
15644TIP3    H268348   0.412   5.363   4.188 -0.9861  1.9049  1.7234
15645TIP3   OH268349   6.011   4.812  14.168  1.0864  0.2403  0.4035
15645TIP3    H168350   5.924   4.789  14.136  0.6810 -1.3151  2.4040
15645TIP3    H268351   6.030   4.897  14.129 -0.6916 -0.0513 -1.2300
15646TIP3   OH268352   5.858   2.937   4.286  0.2307  0.2267 -0.2765
15646TIP3    H168353   5.945   2.905   4.310  0.4256  0.8801 -0.0800
15646TIP3    H268354   5.820   2.867   4.232 -0.3570 -1.4876  2.1810
15647TIP3   OH268355   5.794   3.744  11.596 -0.5978  0.1444 -0.2871
15647TIP3    H168356   5.753   3.816  11.643 -0.8705  0.0319 -0.3481
15647TIP3    H268357   5.727   3.674  11.596 -0.0009 -0.4449  0.5799
15648TIP3   OH268358   5.164   6.546  16.256 -0.0346 -0.0698  0.3354
15648TIP3    H168359   5.225   6.582  16.321 -0.8955 -1.0186  1.7283
15648TIP3    H268360   5.220   6.504  16.192  0.8698  1.4470  0.0843
15649TIP3   OH268361   1.316   1.694   2.397 -0.4425  0.2898 -0.2251
15649TIP3    H168362   1.286   1.670   2.484  1.4007 -1.6625 -0.0432
15649TIP3    H268363   1.236   1.721   2.350 -1.8036 -0.8259  1.3537
15650TIP3   OH268364   5.126   4.324   4.488 -0.0398 -0.6121 -0.3442
15650TIP3    H168365   5.070   4.291   4.418 -2.9805  0.8522  1.1640
15650TIP3    H268366   5.153   4.411   4.458  1.3200 -1.2144 -0.9555
15651TIP3   OH268367   6.608   1.041  15.362  0.2594 -0.7035 -0.3187
15651TIP3    H168368   6.610   1.068  15.270 -0.7313  1.4354  0.2264
15651TIP3    H268369   6.700   1.039  15.388  0.4962 -0.3812 -1.0927
15652TIP3   OH268370   2.831   3.127  12.727 -0.0946  0.1926  0.7335
15652TIP3    H168371   2.741   3.152  12.746 -0.0930 -1.2597  2.9816
15652TIP3    H268372   2.823   3.045  12.678  0.0157  1.0399 -0.7597
15653TIP3   OH268373   0.751   0.108   2.362  0.3497  0.5081  0.2777
15653TIP3    H168374   0.739   0.195   2.324 -0.9751 -0.1262 -0.8671
15653TIP3    H268375   0.839   0.109   2.398  0.5481  2.1496 -0.1803
15654TIP3   OH268376   3.221   1.987   3.333  0.5010 -0.0582 -0.7994
15654TIP3    H168377   3.294   1.929   3.310  0.9774  0.6356 -1.0474
15654TIP3    H268378   3.262   2.070   3.357 -0.2392  0.5751 -1.6497
15655TIP3   OH268379   4.180   4.459  14.485  0.5116  0.0218 -0.1043
15655TIP3    H168380   4.113   4.479  14.550 -0.8508 -0.1569 -1.4081
15655TIP3    H268381   4.170   4.365  14.468 -0.5835  0.4574 -2.0841
15656TIP3   OH268382   0.710   1.824   2.176  0.3366  0.3609 -0.5371
15656TIP3    H168383   0.783   1.763   2.189  0.3344  0.6090  0.7913
15656TIP3    H268384   0.739   1.905   2.218  0.5366  1.4741 -2.6759
15657TIP3   OH268385   1.653   4.137  13.742  0.2225  0.2290  0.6836
15657TIP3    H168386   1.669   4.183  13.659 -1.4594  0.8696  0.6676
15657TIP3    H268387   1.709   4.060  13.738  0.3386  0.3613 -0.9717
15658TIP3   OH268388   6.390   4.361  14.366  0.2038 -0.2191 -0.0627
15658TIP3    H168389   6.325   4.308  14.321  0.4308  1.5810 -2.6986
15658TIP3    H268390   6.474   4.318  14.349  0.0686 -0.8379  0.7386
15659TIP3   OH268391   3.729   5.146   2.316 -0.4541 -0.7800 -0.2231
15659TIP3    H168392   3.717   5.228   2.365  0.4215 -0.3656 -0.6599
15659TIP3    H268393   3.802   5.103   2.360 -0.7873 -1.2362 -0.1158
15660TIP3   OH268394   6.285   5.993   0.283 -0.1505  0.5346  0.7522
15660TIP3    H168395   6.283   6.059   0.352 -0.9000 -0.2009  1.4488
15660TIP3    H268396   6.203   5.945   0.293  0.5783 -0.7917  0.5299
15661TIP3   OH268397   5.427   4.415  12.594 -0.4714 -0.0015  0.4975
15661TIP3    H168398   5.337   4.386  12.577 -0.4348  0.7079 -1.1423
15661TIP3    H268399   5.476   4.335  12.609 -0.8891 -0.6250 -1.2448
15662TIP3   OH268400   5.624   6.716   5.265  0.0000  0.6124  0.1570
15662TIP3    H168401   5.686   6.645   5.281 -0.7812  0.0984  0.9789
15662TIP3    H268402   5.593   6.700   5.176  1.7340  1.4301 -0.6378
15663TIP3   OH268403   4.424   4.963   3.356  0.4490 -0.1826 -0.0107
15663TIP3    H168404   4.407   4.871   3.376  0.0381 -0.2702 -0.7229
15663TIP3    H268405   4.444   4.964   3.262 -2.2207  0.7542 -0.6741
15664TIP3   OH268406   5.413   2.614   0.809  0.1176  0.3485 -0.1623
15664TIP3    H168407   5.332   2.593   0.855 -2.3229  2.9701 -2.8201
15664TIP3    H268408   5.457   2.677   0.866 -1.1761  1.0438  0.1159
15665TIP3   OH268409   0.275   3.205  14.545 -1.0436  0.3949 -0.7485
15665TIP3    H168410   0.360   3.161  14.547 -1.1324  0.2627  0.1199
15665TIP3    H268411   0.233   3.171  14.466  0.3245  1.6375 -2.0826
15666TIP3   OH268412   3.285   1.860  12.266  0.2260 -0.0540  0.8945
15666TIP3    H168413   3.267   1.883  12.357  1.4572  2.1470  0.6489
15666TIP3    H268414   3.378   1.878  12.254  0.6368 -2.5186 -0.2315
15667TIP3   OH268415   3.670   6.519  17.157  0.0525  0.2979 -1.0627
15667TIP3    H168416   3.649   6.567  17.077  1.5478 -0.2742 -1.8363
15667TIP3    H268417   3.607   6.447  17.160  0.9983 -0.6483 -2.6423
15668TIP3   OH268418   2.761   5.658  12.125 -0.1543  0.0848 -0.4590
15668TIP3    H168419   2.747   5.586  12.063 -1.2107  0.2820 -0.4673
15668TIP3    H268420   2.753   5.616  12.211 -0.3661  0.1188 -0.4619
15669TIP3   OH268421   3.697   4.502   5.816  0.0635 -0.5498  0.4002
15669TIP3    H168422   3.679   4.422   5.767  1.9801 -0.5487 -0.4015
15669TIP3    H268423   3.707   4.473   5.907 -0.8624 -0.9474  0.3895
15670TIP3   OH268424   6.349   6.125  16.769  0.6940  0.0902  0.0905
15670TIP3    H168425   6.361   6.033  16.743 -0.2002 -0.7414  2.3404
15670TIP3    H268426   6.284   6.158  16.707  1.1209 -0.7483 -0.8435
15671TIP3   OH268427   2.234   2.946   0.927 -0.4085 -0.3708 -0.2544
15671TIP3    H168428   2.299   2.895   0.879 -0.8520 -1.8995  0.7104
15671TIP3    H268429   2.279   2.972   1.008 -0.4368  0.1101 -0.3904
15672TIP3   OH268430   6.233   0.288  15.606 -0.7105 -1.0494 -0.3306
15672TIP3    H168431   6.282   0.289  15.689  3.1532  0.7072 -2.3691
15672TIP3    H268432   6.256   0.205  15.565  1.1888 -0.0173 -1.5071
15673TIP3   OH268433   3.799   0.450   2.740  0.2203 -0.1476  0.0012
15673TIP3    H168434   3.709   0.481   2.730  0.1606 -0.5990 -0.9204
15673TIP3    H268435   3.805   0.422   2.832 -1.0739 -1.6317 -0.3196
15674TIP3   OH268436   0.271   1.440   5.177  0.3451 -0.4119 -0.0053
15674TIP3    H168437   0.361   1.428   5.147  0.5296  3.4379 -1.7064
15674TIP3    H268438   0.279   1.471   5.267  0.6173 -1.0765  0.2049
15675TIP3   OH268439   1.150   2.025   5.630  0.7805 -0.0041  0.0383
15675TIP3    H168440   1.116   1.969   5.700  0.1469  0.2895 -0.0189
15675TIP3    H268441   1.146   2.114   5.666  1.8790  0.0067  0.1691
15676TIP3   OH268442   5.274   5.046   3.013  0.3888  1.2733 -0.3607
15676TIP3    H168443   5.256   5.025   3.105 -2.9468  0.5301 -1.0425
15676TIP3    H268444   5.217   5.120   2.993  0.1849  0.7101 -2.0768
15677TIP3   OH268445   2.590   3.075   5.043 -0.2158 -0.1975  0.6106
15677TIP3    H168446   2.676   3.035   5.057  0.1082 -0.0643 -0.7699
15677TIP3    H268447   2.574   3.127   5.122  1.5142  0.7012  0.4199
15678TIP3   OH268448   4.243   1.680   4.686 -0.2145  0.0897 -0.1165
15678TIP3    H168449   4.320   1.626   4.666 -0.2943  0.6366 -2.0021
15678TIP3    H268450   4.279   1.765   4.711 -0.1963  0.0864 -0.1322
15679TIP3   OH268451   2.194   4.818  16.221 -0.2878  0.1816 -0.3275
15679TIP3    H168452   2.133   4.879  16.263  0.3020 -1.6752  3.7478
15679TIP3    H268453   2.143   4.739  16.205  0.4941 -0.7529  1.4421
15680TIP3   OH268454   2.077   1.149  16.115  0.2589 -0.5733 -0.0101
15680TIP3    H168455   2.063   1.070  16.062 -0.3774 -0.7057  0.3478
15680TIP3    H268456   2.146   1.124  16.177  1.4057 -0.2509 -1.0895
15681TIP3   OH268457   4.696   4.649  11.199 -0.0511  0.4820  0.5438
15681TIP3    H168458   4.603   4.647  11.223  0.2387  1.4287  1.8283
15681TIP3    H268459   4.722   4.741  11.208  0.9591  0.2708 -0.0300
15682TIP3   OH268460   1.589   4.926  16.201 -0.2412 -0.3984 -0.0133
15682TIP3    H168461   1.638   4.899  16.278 -0.2367  0.5195  0.3189
15682TIP3    H268462   1.540   4.848  16.175  2.3570 -1.7747 -1.1476
15683TIP3   OH268463   2.511   1.444  15.962  0.1093 -0.6593 -0.6479
15683TIP3    H168464   2.522   1.426  15.869 -0.0254 -1.7451 -0.4716
15683TIP3    H268465   2.601   1.450  15.996  0.1582 -0.5124 -0.8030
15684TIP3   OH268466   1.637   0.369  12.853  0.7548 -0.5124  0.3126
15684TIP3    H168467   1.587   0.317  12.915 -0.5162  1.2024  0.7977
15684TIP3    H268468   1.574   0.395  12.786  1.5154 -0.1898 -0.3005
15685TIP3   OH268469   5.919   2.213  16.207 -0.3718 -0.0179 -0.2009
15685TIP3    H168470   5.981   2.157  16.253  0.4711  1.1731  0.1549
15685TIP3    H268471   5.891   2.160  16.132  1.0043 -0.6319 -0.3202
15686TIP3   OH268472   0.162   4.694   5.707 -0.1072  0.0935 -0.2381
15686TIP3    H168473   0.107   4.623   5.741 -0.6781 -0.3708 -2.0273
15686TIP3    H268474   0.250   4.673   5.738 -0.6459 -0.0673  1.2606
15687TIP3   OH268475   6.105   4.486  14.991  0.1813  0.0382 -0.8414
15687TIP3    H168476   6.029   4.529  15.031  0.0652 -0.4492 -0.5215
15687TIP3    H268477   6.130   4.420  15.055  0.4284 -0.2861 -1.2725
15688TIP3   OH268478   4.297   4.857  12.218  0.4548  0.1597  0.0737
15688TIP3    H168479   4.271   4.778  12.169  0.2611  0.5235 -0.4260
15688TIP3    H268480   4.266   4.929  12.163  1.8214  0.6071 -0.1519
15689TIP3   OH268481   4.739   2.357  12.854  0.6835  0.0391  0.3588
15689TIP3    H168482   4.660   2.303  12.861  0.7557 -0.6296 -2.7516
15689TIP3    H268483   4.809   2.302  12.888  0.2068 -0.3494  0.7338
15690TIP3   OH268484   1.352   4.856   1.029  0.5513  0.6675 -0.0792
15690TIP3    H168485   1.343   4.771   1.072  1.7358  0.0285 -1.0436
15690TIP3    H268486   1.262   4.888   1.020  0.0954 -0.4581  0.3327
15691TIP3   OH268487   1.682   0.996  16.929  0.5622 -0.3318  0.1141
15691TIP3    H168488   1.673   1.017  16.836  1.9968 -1.0168 -0.2119
15691TIP3    H268489   1.699   1.080  16.971 -0.3253  0.0146 -0.1937
15692TIP3   OH268490   0.777   0.528  12.385 -0.1570 -0.3959  0.1290
15692TIP3    H168491   0.741   0.552  12.300 -2.7362 -2.9607  0.3449
15692TIP3    H268492   0.742   0.594  12.446 -2.7236 -1.4562 -0.0646
15693TIP3   OH268493   6.713   0.435  12.593  0.0447 -0.2994  0.5344
15693TIP3    H168494   6.695   0.421  12.500 -1.0328  0.4353  0.6200
15693TIP3    H268495   6.749   0.351  12.623  0.9932 -0.3583 -0.6649
15694TIP3   OH268496   0.575   5.259  15.505  0.0947 -0.0180 -0.1235
15694TIP3    H168497   0.538   5.259  15.593  1.2439  0.0761  0.3710
15694TIP3    H268498   0.537   5.336  15.463  0.1775  0.3964  0.5579
15695TIP3   OH268499   6.739   1.009   5.758 -0.3834 -0.2145 -0.3362
15695TIP3    H168500   6.703   1.028   5.671 -0.9464 -1.0125 -0.2941
15695TIP3    H268501   6.703   0.923   5.780  1.4061 -0.9885 -0.2125
15696TIP3   OH268502   4.275   3.502   0.679 -0.4766 -0.0670 -0.2440
15696TIP3    H168503   4.318   3.575   0.723  0.4112 -1.7109  1.8226
15696TIP3    H268504   4.201   3.480   0.736 -0.5550 -0.9291 -0.6680
15697TIP3   OH268505   4.160   5.190  14.213  0.3345 -0.0582  0.1321
15697TIP3    H168506   4.239   5.231  14.176 -0.9609  0.3551 -2.3616
15697TIP3    H268507   4.150   5.109  14.163 -0.9648  0.0280  0.2381
15698TIP3   OH268508   5.759   4.176  17.244 -0.3469  0.6512  0.6749
15698TIP3    H168509   5.715   4.163  17.160  0.7041 -2.4869  0.4437
15698TIP3    H268510   5.816   4.252  17.230 -2.9258  2.5557 -0.1379
15699TIP3   OH268511   2.805   6.160   0.423 -0.0029  0.2722  0.0990
15699TIP3    H168512   2.740   6.154   0.493 -2.1566 -0.7100 -1.8244
15699TIP3    H268513   2.871   6.095   0.445 -0.3752  0.3324  1.4536
15700TIP3   OH268514   1.789   2.778   5.375 -0.5051  0.2341 -0.5269
15700TIP3    H168515   1.865   2.822   5.336 -0.8787  0.0996 -1.4351
15700TIP3    H268516   1.804   2.783   5.469  0.1336  1.0941 -0.6650
15701TIP3   OH268517   4.116   0.251   2.741 -0.3354  0.1519 -0.2380
15701TIP3    H168518   4.049   0.248   2.809 -2.5780 -0.5583 -2.3677
15701TIP3    H268519   4.132   0.345   2.728  0.4153  0.3053  1.4479
15702TIP3   OH268520   5.335   4.738   2.044  0.0545  0.0599 -0.2883
15702TIP3    H168521   5.286   4.761   1.965  0.9291  1.7591 -0.3994
15702TIP3    H268522   5.283   4.773   2.116 -0.3640 -0.8023 -0.1702
15703TIP3   OH268523   4.078   5.743   1.498  0.0460 -0.5207 -0.2572
15703TIP3    H168524   4.172   5.727   1.512  0.0209  0.1809  0.9185
15703TIP3    H268525   4.075   5.824   1.447  0.0905 -0.5883 -0.3658
15704TIP3   OH268526   1.603   1.603  15.959  0.0441  0.5375  0.0062
15704TIP3    H168527   1.576   1.688  15.993  0.6175  0.7054  0.0503
15704TIP3    H268528   1.521   1.558  15.939 -0.3885 -0.0744  2.7991
15705TIP3   OH268529   3.404   0.343   0.472  0.6407 -0.4780  0.5555
15705TIP3    H168530   3.382   0.252   0.494  0.3071 -0.8893 -1.2808
15705TIP3    H268531   3.391   0.348   0.377  1.8631  1.1640  0.4325
15706TIP3   OH268532   6.024   1.444   2.294  0.4251  0.7854  0.3613
15706TIP3    H168533   6.074   1.520   2.323  0.3749  0.5049  1.2165
15706TIP3    H268534   6.015   1.390   2.373 -2.6087  1.5664  0.6545
15707TIP3   OH268535   2.483   1.134  14.048 -0.3807  0.2467 -0.9664
15707TIP3    H168536   2.492   1.216  14.000 -0.6986  2.7496  2.8815
15707TIP3    H268537   2.391   1.130  14.073  0.1772  0.3376  1.3431
15708TIP3   OH268538   5.255   2.570   1.257  0.3720 -0.3833 -0.1811
15708TIP3    H168539   5.313   2.494   1.266  1.1213 -0.0033 -1.4959
15708TIP3    H268540   5.313   2.646   1.263 -0.2494  0.0705  0.2787
15709TIP3   OH268541   0.320   3.435   3.496  0.6866 -0.4378  0.5974
15709TIP3    H168542   0.310   3.530   3.489 -0.1754 -0.6167 -1.2535
15709TIP3    H268543   0.358   3.421   3.583 -2.7049  1.3579  2.5751
15710TIP3   OH268544   2.479   2.042  11.465  0.1077  0.0584  0.7541
15710TIP3    H168545   2.402   1.990  11.442  0.2660 -0.4946  1.4221
15710TIP3    H268546   2.544   2.018  11.400 -0.7505  1.7068 -0.7723
15711TIP3   OH268547   2.923   3.276   0.431  0.1386 -0.4897  0.0259
15711TIP3    H168548   2.917   3.185   0.401  0.3597  0.1848 -2.2411
15711TIP3    H268549   2.840   3.316   0.404  0.9480  0.5216 -1.0250
15712TIP3   OH268550   6.494   4.402   1.889 -0.4951 -0.3748 -0.4602
15712TIP3    H168551   6.423   4.340   1.873 -1.2238  0.7812 -2.0442
15712TIP3    H268552   6.573   4.356   1.860 -1.0218 -0.6025 -1.6038
15713TIP3   OH268553   5.683   2.137   3.094  0.3417  0.0167 -0.2354
15713TIP3    H168554   5.730   2.059   3.066  1.5739  1.1882 -1.6293
15713TIP3    H268555   5.616   2.105   3.155  0.1414 -2.2112 -1.5302
15714TIP3   OH268556   3.234   3.554  14.567 -0.3966 -0.0978  0.0508
15714TIP3    H168557   3.257   3.536  14.476 -2.1268 -0.9218 -0.2635
15714TIP3    H268558   3.242   3.649  14.575 -1.1908  0.1070 -1.2672
15715TIP3   OH268559   1.272   2.323   4.412 -0.0101 -0.3974 -0.0914
15715TIP3    H168560   1.312   2.272   4.482 -0.5875 -0.9161 -0.1332
15715TIP3    H268561   1.187   2.349   4.447  0.2146  0.4328 -0.1223
15716TIP3   OH268562   6.560   2.008  11.997  0.1214  0.0615  0.5691
15716TIP3    H168563   6.471   2.041  12.004  0.7267  1.7728  0.5614
15716TIP3    H268564   6.550   1.920  11.960 -1.5190  0.3937  0.1498
15717TIP3   OH268565   5.522   1.299  14.054 -0.3798 -0.2134  0.2703
15717TIP3    H168566   5.522   1.278  13.961 -0.9156  4.5379 -1.0925
15717TIP3    H268567   5.429   1.300  14.079 -0.3951  0.6850  0.2053
15718TIP3   OH268568   5.234   5.670  16.454  0.0415  0.0716 -0.6374
15718TIP3    H168569   5.164   5.667  16.519  1.4933 -1.9274  0.9664
15718TIP3    H268570   5.237   5.581  16.418  2.2677 -0.1880  0.0089
15719TIP3   OH268571   1.812   4.351  17.269 -0.3593  0.5609 -0.8228
15719TIP3    H168572   1.785   4.261  17.289  0.8696 -0.1816 -2.2270
15719TIP3    H268573   1.739   4.406  17.297 -0.8508 -0.8116  0.7139
15720TIP3   OH268574   6.710   0.511  15.761  0.0221 -0.4175  0.0106
15720TIP3    H168575   6.646   0.562  15.712  1.1703 -0.3292 -1.4631
15720TIP3    H268576   6.658   0.462  15.825 -1.2764  1.1991  0.2433
15721TIP3   OH268577   4.764   2.804   4.529  0.3133  0.3018  0.5758
15721TIP3    H168578   4.848   2.809   4.576 -0.0169 -0.3516  1.2683
15721TIP3    H268579   4.739   2.712   4.536  0.1384  0.2393 -0.7115
15722TIP3   OH268580   0.777   5.228  15.273 -0.0987 -0.1244  0.0630
15722TIP3    H168581   0.708   5.277  15.227 -0.9294 -0.4302  0.9378
15722TIP3    H268582   0.859   5.267  15.243 -0.6006 -0.4516 -1.8150
15723TIP3   OH268583   1.746   6.459  14.165  0.3122  0.2536  0.2553
15723TIP3    H168584   1.840   6.474  14.167  0.5440 -1.0837  0.2406
15723TIP3    H268585   1.731   6.389  14.229 -0.5919  0.0387 -0.1723
15724TIP3   OH268586   1.740   5.129   3.188 -0.1710 -0.1515  0.6121
15724TIP3    H168587   1.789   5.084   3.258  1.2289  0.8309  0.3031
15724TIP3    H268588   1.807   5.159   3.127 -0.9583  2.7103  0.9940
15725TIP3   OH268589   2.948   5.996   3.126  0.8599 -0.3825 -0.0010
15725TIP3    H168590   2.869   6.033   3.086  1.2904  0.7862  0.1987
15725TIP3    H268591   3.017   6.057   3.104  1.7456 -1.4334 -0.2248
15726TIP3   OH268592   1.483   5.420   0.784 -0.0709  0.3314 -0.3664
15726TIP3    H168593   1.424   5.372   0.842 -0.0376  2.1103  1.2284
15726TIP3    H268594   1.511   5.495   0.835  3.7458 -0.4656 -0.9731
15727TIP3   OH268595   4.793   5.810   4.116 -0.5259  0.7847 -0.1585
15727TIP3    H168596   4.736   5.881   4.086 -0.6766  1.3191  1.3150
15727TIP3    H268597   4.732   5.744   4.150 -0.3299  0.6699 -0.0284
15728TIP3   OH268598   5.462   6.029  15.824  0.2897 -0.0764 -0.1412
15728TIP3    H168599   5.531   6.042  15.889 -0.8477  0.9073  0.9192
15728TIP3    H268600   5.476   5.939  15.793 -0.1748 -1.2702  2.7900
15729TIP3   OH268601   3.716   2.567   6.182  0.0922  0.2352 -0.0928
15729TIP3    H168602   3.808   2.544   6.173  0.1438  0.4211 -0.0378
15729TIP3    H268603   3.715   2.645   6.238 -0.0543  0.5788 -0.5578
15730TIP3   OH268604   4.459   2.965  11.568 -0.0177 -0.1081  0.1331
15730TIP3    H168605   4.463   2.940  11.475  0.7247 -0.4393  0.2489
15730TIP3    H268606   4.377   2.927  11.599 -0.3835  0.1923 -0.4419
15731TIP3   OH268607   1.459   4.926  16.512  0.4281  0.2518  0.0339
15731TIP3    H168608   1.420   5.006  16.477 -0.0341 -0.3376 -0.8470
15731TIP3    H268609   1.548   4.951  16.536 -0.0528  1.2953  0.8225
15732TIP3   OH268610   5.394   6.747  11.266 -0.1112  0.1291 -0.0587
15732TIP3    H168611   5.313   6.698  11.250  0.2015  0.0886 -1.6786
15732TIP3    H268612   5.428   6.766  11.179  1.2102  0.8582  0.5886
15733TIP3   OH268613   4.516   0.486  12.838 -0.6574  0.2689 -0.3506
15733TIP3    H168614   4.601   0.505  12.799  0.0654  0.5568  1.2709
15733TIP3    H268615   4.522   0.522  12.926 -2.6715  0.7698 -0.3795
15734TIP3   OH268616   3.754   0.297  11.620 -0.5379  0.2289  0.0625
15734TIP3    H168617   3.726   0.252  11.700 -0.4006 -0.8071 -0.4614
15734TIP3    H268618   3.680   0.289  11.560 -0.4571  0.5868 -0.0881
15735TIP3   OH268619   4.564   6.728  17.298 -0.2856  0.0439  0.1071
15735TIP3    H168620   4.575   6.757  17.389  1.5809 -0.8620  0.2244
15735TIP3    H268621   4.589   6.804  17.246  0.9373 -0.1486  0.3861
15736TIP3   OH268622   1.543   5.180  16.076  0.3381 -0.4179  0.1932
15736TIP3    H168623   1.530   5.138  15.991  0.6292 -2.0588  0.9185
15736TIP3    H268624   1.551   5.107  16.138  3.3968  0.5987  1.1867
15737TIP3   OH268625   2.405   1.953   5.017  0.1319  0.3311 -0.2862
15737TIP3    H168626   2.431   2.013   5.086 -2.6616 -1.5013  2.6533
15737TIP3    H268627   2.338   2.000   4.967 -1.2356  0.1785  1.3060
15738TIP3   OH268628   6.740   4.505  13.137  0.4863 -0.0159 -0.2342
15738TIP3    H168629   6.708   4.592  13.112 -0.2799 -0.5930 -1.3913
15738TIP3    H268630   6.679   4.476  13.205  0.6610  0.2835  0.0554
15739TIP3   OH268631   3.390   5.244   6.328  0.2248 -0.0298 -0.2418
15739TIP3    H168632   3.468   5.296   6.348 -0.1388 -0.3369  2.3354
15739TIP3    H268633   3.406   5.160   6.371 -2.1024  0.4060  1.6235
15740TIP3   OH268634   0.427   6.439   2.094  0.4584 -0.4744 -0.0904
15740TIP3    H168635   0.379   6.518   2.120 -0.8706 -1.3914  0.4032
15740TIP3    H268636   0.451   6.454   2.003  1.4516  1.0506  0.3870
15741TIP3   OH268637   0.166   5.394  11.337 -0.4788  0.0593  0.5143
15741TIP3    H168638   0.142   5.486  11.347 -0.0378  0.0938  1.3856
15741TIP3    H268639   0.185   5.364  11.426  0.6054 -0.5403  0.1044
15742TIP3   OH268640   4.113   5.300   5.888 -0.1790  0.0495 -0.1326
15742TIP3    H168641   4.023   5.333   5.884 -0.2733 -0.2279 -0.2533
15742TIP3    H268642   4.104   5.205   5.890  0.1391  0.0030 -0.8014
15743TIP3   OH268643   5.334   2.225  15.363 -0.2003 -0.1843 -0.8338
15743TIP3    H168644   5.242   2.249  15.346 -0.4828  0.0772  0.8772
15743TIP3    H268645   5.373   2.219  15.276 -1.1349  2.5380 -1.5634
15744TIP3   OH268646   3.996   2.673   4.662  0.5377  0.1929 -0.4198
15744TIP3    H168647   4.007   2.670   4.567  0.9341  0.6486 -0.3936
15744TIP3    H268648   3.975   2.764   4.681 -0.4128 -0.0746 -0.1536
15745TIP3   OH268649   6.081   4.649   3.782 -0.0492 -0.0689 -0.2989
15745TIP3    H168650   6.088   4.654   3.877 -0.5726  0.1220 -0.2641
15745TIP3    H268651   6.118   4.731   3.750  0.6344 -0.3710 -0.2932
15746TIP3   OH268652   4.410   4.763   5.560 -0.0204 -1.1605  0.3838
15746TIP3    H168653   4.399   4.743   5.467 -0.7827  1.7654 -0.2812
15746TIP3    H268654   4.345   4.832   5.577  1.4991 -0.1425  2.5537
15747TIP3   OH268655   5.551   5.399   2.359 -0.4682 -0.5602  0.0341
15747TIP3    H168656   5.619   5.336   2.335 -0.4342 -0.4009 -0.3000
15747TIP3    H268657   5.544   5.456   2.282  0.3407  0.5773  0.7696
15748TIP3   OH268658   5.886   2.377   3.943 -0.2235  0.5873 -0.1530
15748TIP3    H168659   5.940   2.321   3.998 -0.9407 -0.0290 -0.0646
15748TIP3    H268660   5.894   2.464   3.982 -0.5222  0.2044  0.7759
15749TIP3   OH268661   4.998   2.118   2.842  0.5222  0.5058 -0.1385
15749TIP3    H168662   4.999   2.091   2.750 -0.8062 -1.2840  0.3192
15749TIP3    H268663   5.089   2.142   2.861  1.3886 -1.5925 -1.2512
15750TIP3   OH268664   0.900   6.519   0.501 -0.1819 -0.0061  0.4615
15750TIP3    H168665   0.808   6.535   0.520  0.0816 -0.0193  1.8596
15750TIP3    H268666   0.932   6.603   0.468 -0.9631 -0.3476 -1.2383
15751TIP3   OH268667   0.965   6.311   5.720 -0.2037 -0.0624 -0.1052
15751TIP3    H168668   0.974   6.357   5.804  2.5760  1.1203 -0.9171
15751TIP3    H268669   0.911   6.368   5.666  1.5992  1.4239 -0.4552
15752TIP3   OH268670   3.028   2.224  10.235 -0.3312  0.0644  0.5960
15752TIP3    H168671   3.034   2.161  10.163  2.7120  1.8182 -0.9007
15752TIP3    H268672   3.090   2.190  10.300  2.3635  1.9496 -0.7843
15753TIP3   OH268673   5.236   5.912  13.862  0.0197  0.5676 -0.2319
15753TIP3    H168674   5.200   5.830  13.896 -0.3207  0.4815 -0.7882
15753TIP3    H268675   5.315   5.885  13.814  0.0597  0.5966 -0.1815
15754TIP3   OH268676   0.504   0.012   4.753 -0.2711 -0.2361 -0.0743
15754TIP3    H168677   0.582   0.058   4.782 -0.1240 -1.9657  2.6126
15754TIP3    H268678   0.432   0.074   4.764  0.5565  1.1051 -1.8251
15755TIP3   OH268679   6.198   1.939  12.534  0.7469 -0.0256  0.0166
15755TIP3    H168680   6.191   1.974  12.623  1.5163  0.7498 -0.2212
15755TIP3    H268681   6.287   1.961  12.506  1.2544 -2.1065 -0.1786
15756TIP3   OH268682   2.712   4.781   2.149  0.0358 -0.1362 -0.5765
15756TIP3    H168683   2.659   4.702   2.135 -1.1358  0.2422  1.3304
15756TIP3    H268684   2.801   4.755   2.124 -0.0959 -2.4533  1.0031
15757TIP3   OH268685   4.355   1.441   0.913  0.0983 -0.6254  0.2402
15757TIP3    H168686   4.386   1.352   0.894 -0.6840 -0.6391 -1.0833
15757TIP3    H268687   4.424   1.498   0.879  0.4556 -0.7047  0.8106
15758TIP3   OH268688   4.002   1.255   4.906 -0.4669 -0.0263  0.6107
15758TIP3    H168689   4.034   1.197   4.975  0.1080  0.9258  1.1558
15758TIP3    H268690   3.994   1.341   4.947  1.8785  1.0539 -0.9423
15759TIP3   OH268691   5.971   5.288   2.735  0.2236  0.1520 -0.1985
15759TIP3    H168692   5.894   5.308   2.787 -0.7628 -0.8290 -1.2355
15759TIP3    H268693   5.943   5.301   2.644  1.4589  0.3578 -0.5715
15760TIP3   OH268694   1.368   1.045   6.241 -0.1730 -0.5585  0.1726
15760TIP3    H168695   1.403   1.105   6.307 -2.2731 -0.1326  1.0015
15760TIP3    H268696   1.376   1.092   6.158 -1.0926  0.5805  0.7041
15761TIP3   OH268697   5.469   5.543  12.349  0.2674  0.0288  0.0264
15761TIP3    H168698   5.471   5.487  12.271  2.8713  0.5961 -0.4084
15761TIP3    H268699   5.551   5.524  12.394  0.5043  2.3268  0.6957
15762TIP3   OH268700   1.703   3.070   3.859  0.6394 -0.0062  0.7938
15762TIP3    H168701   1.787   3.053   3.816  0.1233  0.2565 -0.3336
15762TIP3    H268702   1.678   2.985   3.896  1.5024 -0.0378  1.3342
15763TIP3   OH268703   5.687   0.039   3.433  0.3744 -0.5624 -0.4835
15763TIP3    H168704   5.643   0.119   3.405  0.2461  0.0951  1.4595
15763TIP3    H268705   5.656  -0.028   3.372 -1.2510  0.4264 -0.8058
15764TIP3   OH268706   2.784   5.527  11.520  0.0812  0.2494 -0.0710
15764TIP3    H168707   2.756   5.453  11.465  1.1608  0.4320 -0.8853
15764TIP3    H268708   2.713   5.591  11.511 -0.5417 -0.4065  0.0959
15765TIP3   OH268709   3.737   0.954  11.733 -0.4734  0.3158 -0.1518
15765TIP3    H168710   3.763   0.867  11.704  0.0232  1.0230 -1.9291
15765TIP3    H268711   3.663   0.977  11.677 -1.8854  0.2858  1.6138
15766TIP3   OH268712   1.164   3.486   6.040 -0.3128 -0.0760  0.5066
15766TIP3    H168713   1.183   3.530   6.122  1.6386  1.8646 -0.8600
15766TIP3    H268714   1.229   3.416   6.034  0.8129  0.9803 -0.1680
15767TIP3   OH268715   0.837   3.462   6.717  0.2358  0.2823 -0.1394
15767TIP3    H168716   0.836   3.533   6.780 -2.0941 -1.8718  2.5168
15767TIP3    H268717   0.925   3.425   6.723  0.8434  1.7032 -0.1097
15768TIP3   OH268718   3.840   5.558  14.237 -0.1389 -0.2949  0.2804
15768TIP3    H168719   3.803   5.613  14.168  1.6455  0.1842 -0.3419
15768TIP3    H268720   3.913   5.512  14.195 -1.8670 -3.6252  0.6380
15769TIP3   OH268721   2.535   4.173  16.103  0.0312  0.0741 -0.0228
15769TIP3    H168722   2.507   4.106  16.165 -0.8727  0.7852  0.3657
15769TIP3    H268723   2.496   4.146  16.020  0.9136 -0.6679 -0.2078
15770TIP3   OH268724   6.487   3.460   5.510  0.0052  0.6286 -0.4308
15770TIP3    H168725   6.544   3.458   5.587 -1.0547 -0.2715  0.3629
15770TIP3    H268726   6.532   3.405   5.445  1.4631  2.2946 -0.9181
15771TIP3   OH268727   5.467   4.896  14.822  0.2501 -0.5137 -0.1728
15771TIP3    H168728   5.439   4.955  14.892  1.6175  0.6553 -0.5800
15771TIP3    H268729   5.479   4.811  14.866 -2.0769 -0.6461  0.3465
15772TIP3   OH268730   2.480   0.454   4.971 -0.5881 -0.5883  0.4349
15772TIP3    H168731   2.521   0.377   5.009  0.5899  0.3196  1.0831
15772TIP3    H268732   2.549   0.520   4.970 -1.7501  0.6831  0.5783
15773TIP3   OH268733   0.262   6.267  14.070 -0.5096  0.2323 -0.1529
15773TIP3    H168734   0.264   6.304  13.981 -0.9466 -0.8066 -0.6084
15773TIP3    H268735   0.337   6.306  14.114 -0.4840  1.0260 -0.8674
15774TIP3   OH268736   4.518   1.531  10.711 -0.2468  0.3595 -0.1584
15774TIP3    H168737   4.540   1.437  10.712  0.4177  0.4997 -0.7498
15774TIP3    H268738   4.438   1.537  10.763  0.2925 -0.3876  0.7950
15775TIP3   OH268739   5.810   5.238  11.254  0.1465  0.2434 -0.2336
15775TIP3    H168740   5.883   5.177  11.248 -0.2185 -0.2035 -0.1189
15775TIP3    H268741   5.805   5.278  11.168  0.6565  0.4288 -0.1854
15776TIP3   OH268742   4.075   5.616   6.754  0.2646  0.2385  0.2779
15776TIP3    H168743   4.111   5.701   6.777  2.2413 -0.6708  0.8124
15776TIP3    H268744   4.138   5.579   6.692  0.3799 -1.4914  1.3417
15777TIP3   OH268745   6.732   2.296  13.104  0.0960 -0.5157  0.1268
15777TIP3    H168746   6.667   2.321  13.170 -1.7161 -0.1897 -1.6679
15777TIP3    H268747   6.786   2.374  13.093 -1.6228  0.5781 -1.0022
15778TIP3   OH268748   0.636   5.987  12.847  0.3537 -0.2853  0.4794
15778TIP3    H168749   0.542   5.976  12.832  0.6620 -2.4521 -0.3157
15778TIP3    H268750   0.675   5.987  12.759  1.2638 -1.7174  0.8485
15779TIP3   OH268751   5.220   6.059   5.957  0.0166 -0.6175 -0.3535
15779TIP3    H168752   5.285   5.989   5.968  0.7895  0.3079  1.1991
15779TIP3    H268753   5.202   6.090   6.046 -2.8907 -1.0939 -0.6463
15780TIP3   OH268754   0.099   1.495  15.842  0.3748  0.1857 -0.4913
15780TIP3    H168755   0.028   1.444  15.882 -0.0181  1.3021  0.2875
15780TIP3    H268756   0.068   1.514  15.754  0.6296 -1.0984 -0.8777
15781TIP3   OH268757   3.964   5.415  11.764  0.3201 -0.3782 -0.2914
15781TIP3    H168758   3.935   5.478  11.698  1.1147  0.4561  0.1379
15781TIP3    H268759   3.915   5.438  11.843  1.3861  0.4101  0.1631
15782TIP3   OH268760   3.601   4.977  16.900  0.3634 -0.1074  0.3760
15782TIP3    H168761   3.621   5.007  16.989  0.5837  0.1436  0.2430
15782TIP3    H268762   3.679   4.928  16.873  0.4406  0.1165  0.1905
15783TIP3   OH268763   1.936   5.270   1.610  0.7307  0.1966  0.0347
15783TIP3    H168764   1.909   5.186   1.646  0.9676  1.4151  3.3644
15783TIP3    H268765   2.018   5.250   1.564 -0.2390 -1.6718 -1.0199
15784TIP3   OH268766   0.621   2.611  14.078 -0.3380 -0.0423 -0.0628
15784TIP3    H168767   0.669   2.670  14.136 -0.7818  0.1199  0.1503
15784TIP3    H268768   0.670   2.611  13.997  0.0121  0.1314  0.1456
15785TIP3   OH268769   0.852   3.639   5.026 -0.1851 -0.0693  0.0162
15785TIP3    H168770   0.793   3.670   5.095  0.5817  1.2257  0.1303
15785TIP3    H268771   0.795   3.599   4.961 -1.1089  0.4699  0.4743
15786TIP3   OH268772   0.735   0.780  16.035  0.2960  0.3696 -0.3205
15786TIP3    H168773   0.760   0.871  16.017  1.4312 -0.0863 -1.2143
15786TIP3    H268774   0.819   0.734  16.044 -0.2341 -0.2820  1.9505
15787TIP3   OH268775   1.556   1.341   0.069  0.0831 -0.2053 -0.0473
15787TIP3    H168776   1.560   1.326   0.164 -1.6653  1.8896  0.4486
15787TIP3    H268777   1.613   1.417   0.054 -0.6144  0.2490 -0.4516
15788TIP3   OH268778   4.925   1.338   2.025  0.1595 -0.5579 -0.2437
15788TIP3    H168779   4.850   1.331   1.966  0.5852 -0.5682 -0.8016
15788TIP3    H268780   4.935   1.431   2.041  0.0931 -0.5474 -0.2643
15789TIP3   OH268781   4.163   6.113   2.918 -0.1318  0.1330  0.2685
15789TIP3    H168782   4.089   6.173   2.915  0.7809  1.2721 -0.4278
15789TIP3    H268783   4.130   6.031   2.880 -0.4813  1.2768 -2.0684
15790TIP3   OH268784   0.182   4.625  13.616  0.0610 -0.1918  0.3295
15790TIP3    H168785   0.191   4.674  13.698  0.7066  0.6255 -0.2196
15790TIP3    H268786   0.194   4.690  13.547 -0.0364 -0.9523 -0.4215
15791TIP3   OH268787   0.713   2.455   0.398  0.0906  0.1861 -0.0996
15791TIP3    H168788   0.715   2.360   0.405  0.5776 -0.0672 -2.6050
15791TIP3    H268789   0.632   2.481   0.443 -0.8274 -1.5756 -0.6318
15792TIP3   OH268790   3.410   3.808   0.074  0.1436 -0.2102  0.1553
15792TIP3    H168791   3.326   3.822   0.117 -0.7448 -1.3841 -1.0748
15792TIP3    H268792   3.471   3.866   0.119 -1.6162  1.7198  0.1959
15793TIP3   OH268793   3.787   3.717  12.945  0.3105  0.1980 -0.2737
15793TIP3    H168794   3.854   3.654  12.918 -0.9823 -3.0585  3.2161
15793TIP3    H268795   3.835   3.783  12.996  1.1946 -0.5270 -0.1437
15794TIP3   OH268796   0.296   0.230   4.860 -0.3000 -0.2441  0.4874
15794TIP3    H168797   0.245   0.210   4.782 -0.3138  1.3513  0.0449
15794TIP3    H268798   0.238   0.287   4.912  0.5168  0.5224  0.5923
15795TIP3   OH268799   2.249   1.179   4.483  0.8933 -0.4046  0.6080
15795TIP3    H168800   2.341   1.173   4.457  0.5489  0.0591 -0.8186
15795TIP3    H268801   2.251   1.177   4.579  2.5402  1.3678  0.6742
15796TIP3   OH268802   5.518   2.584   1.945  0.2813  0.0811  0.1679
15796TIP3    H168803   5.529   2.563   2.037 -2.0298  0.1065  0.5282
15796TIP3    H268804   5.587   2.535   1.900  0.4222 -1.2696  1.7595
15797TIP3   OH268805   6.492   4.326  17.119 -0.3412 -0.3445 -0.5930
15797TIP3    H168806   6.541   4.257  17.073  0.3490  0.0055 -0.3850
15797TIP3    H268807   6.433   4.278  17.177 -0.7183 -0.7826 -1.3237
15798TIP3   OH268808   0.735   1.765  15.176 -0.2643  0.4286 -0.4199
15798TIP3    H168809   0.715   1.804  15.261 -0.2853  1.5388 -0.9187
15798TIP3    H268810   0.762   1.675  15.196  1.1892  1.1120  0.9050
15799TIP3   OH268811   3.674   6.092   5.700 -0.1024 -1.0170 -0.0432
15799TIP3    H168812   3.692   6.047   5.782  0.5057 -1.8127 -0.5886
15799TIP3    H268813   3.679   6.185   5.721  1.4903 -1.2004  0.5413
15800TIP3   OH268814   3.748   1.604  14.964  0.2024 -0.0397  0.5706
15800TIP3    H168815   3.654   1.605  14.982 -0.0928 -2.0525 -0.6150
15800TIP3    H268816   3.759   1.543  14.891  2.7815 -2.8359  2.9821
15801TIP3   OH268817   0.722   0.076  12.801 -0.2597 -0.4530  0.0484
15801TIP3    H168818   0.799   0.030  12.767 -0.7177 -1.3038  0.1170
15801TIP3    H268819   0.726   0.063  12.895 -0.5820 -0.6605  0.0353
15802TIP3   OH268820   0.276   6.130  13.662  0.2848 -0.2103 -0.2683
15802TIP3    H168821   0.248   6.208  13.711  0.0909 -0.8702  0.6895
15802TIP3    H268822   0.364   6.152  13.631  1.4989 -0.7256  2.5864
15803TIP3   OH268823   1.132   2.148  12.369  0.2286 -0.1977 -0.1855
15803TIP3    H168824   1.053   2.152  12.314  1.2910  0.5562 -1.7183
15803TIP3    H268825   1.204   2.160  12.308  1.5454 -0.7207  1.2168
15804TIP3   OH268826   0.800   0.065  13.503  0.0266 -0.6411  0.6647
15804TIP3    H168827   0.774   0.026  13.586 -0.6107  0.0587  0.8058
15804TIP3    H268828   0.880   0.114  13.523  1.1007 -2.2095  0.3854
15805TIP3   OH268829   1.282   3.571  16.400  0.1685  0.6079 -0.0590
15805TIP3    H168830   1.327   3.652  16.427 -0.0057  0.9256 -0.7184
15805TIP3    H268831   1.253   3.588  16.311  1.5377 -0.7703 -0.8271
15806TIP3   OH268832   6.234   5.552   3.034 -0.0878  0.2622  0.0260
15806TIP3    H168833   6.325   5.575   3.013  0.1436  0.1303  0.8398
15806TIP3    H268834   6.203   5.505   2.957  0.9523 -0.8240  0.2482
15807TIP3   OH268835   2.954   1.409  13.814  0.0162 -0.4903 -0.4067
15807TIP3    H168836   2.932   1.334  13.758  2.9286 -2.3854  0.7829
15807TIP3    H268837   2.967   1.372  13.900 -1.2491  1.9075  0.9317
15808TIP3   OH268838   6.047   0.566  14.700  0.0038 -0.0302  0.0173
15808TIP3    H168839   5.984   0.543  14.768 -0.8257 -0.6463 -0.9373
15808TIP3    H268840   6.107   0.627  14.743 -0.0161 -1.0175  1.5154
15809TIP3   OH268841   0.971   0.922   5.409  0.0937  0.4691  0.0058
15809TIP3    H168842   1.032   0.858   5.371  1.2728  1.9442 -0.7126
15809TIP3    H268843   0.926   0.959   5.333 -0.1852  0.8660  0.3662
15810TIP3   OH268844   1.887   3.043  10.563  0.0713  0.6968  0.3498
15810TIP3    H168845   1.851   3.071  10.479  0.1562  2.7446  0.9475
15810TIP3    H268846   1.864   2.950  10.569  0.5392  0.3380 -2.1485
15811TIP3   OH268847   2.194   1.168  16.688  0.2968  0.6431 -0.2250
15811TIP3    H168848   2.220   1.105  16.755 -0.6239 -0.3529 -0.7748
15811TIP3    H268849   2.235   1.136  16.607 -0.2708  0.6808 -0.5313
15812TIP3   OH268850   4.439   5.331  15.167 -0.0730 -0.2305  0.4531
15812TIP3    H168851   4.390   5.251  15.150  0.7097 -0.5063 -0.5853
15812TIP3    H268852   4.455   5.330  15.261 -3.3127  0.6144  1.1219
15813TIP3   OH268853   0.090   4.538  16.512  0.1193 -0.2808  0.2043
15813TIP3    H168854   0.020   4.562  16.451  0.3869 -0.3596 -0.1404
15813TIP3    H268855   0.075   4.445  16.530 -0.4662 -0.0523  0.9397
15814TIP3   OH268856   4.001   5.443  16.831 -0.3477  0.3351 -0.3168
15814TIP3    H168857   4.063   5.465  16.761  0.5220 -0.5813  0.1372
15814TIP3    H268858   3.919   5.484  16.804  0.6868  2.4687 -0.4402
15815TIP3   OH268859   4.330   6.441  17.116 -0.4857  0.2817 -0.3373
15815TIP3    H168860   4.416   6.443  17.159  0.4660 -0.3807 -2.1243
15815TIP3    H268861   4.273   6.398  17.180  1.0318 -1.2841  0.0407
15816TIP3   OH268862   5.608   2.648   2.332 -0.0609 -0.0986  0.0374
15816TIP3    H168863   5.554   2.586   2.283 -1.1939  0.0457  1.0497
15816TIP3    H268864   5.546   2.698   2.385  0.6637  2.7215 -1.5529
15817TIP3   OH268865   4.439   1.575  15.152 -0.4349 -0.0885 -0.1970
15817TIP3    H168866   4.461   1.663  15.120 -0.5231  0.1641  0.4128
15817TIP3    H268867   4.363   1.588  15.209 -0.8404 -0.6548 -0.5944
15818TIP3   OH268868   6.416   5.038   5.938 -0.5375  0.4183  0.0696
15818TIP3    H168869   6.446   4.960   5.985 -1.5564 -1.0148 -1.5280
15818TIP3    H268870   6.495   5.072   5.895 -0.3896 -0.9129 -0.7808
15819TIP3   OH268871   5.619   0.507   3.694  0.1046  0.1670 -0.5334
15819TIP3    H168872   5.583   0.556   3.620 -1.7323 -0.4588 -0.0934
15819TIP3    H268873   5.659   0.574   3.750  3.2193  0.5276 -2.8647
15820TIP3   OH268874   1.855   2.124  16.789  0.1694 -0.3856 -0.6592
15820TIP3    H168875   1.842   2.219  16.797  0.6415 -0.2548 -1.3221
15820TIP3    H268876   1.923   2.115  16.722  2.4867 -1.0741  1.6222
15821TIP3   OH268877   5.039   6.304   1.958  0.0098  0.2342 -0.3527
15821TIP3    H168878   5.042   6.211   1.938 -1.1936 -0.4933  2.4005
15821TIP3    H268879   4.946   6.326   1.959  0.1834  1.0203  0.6799
15822TIP3   OH268880   5.736   1.062   3.683 -0.6277  0.2958 -0.3062
15822TIP3    H168881   5.811   1.096   3.633 -0.5046  1.1698  0.4548
15822TIP3    H268882   5.738   1.111   3.765 -3.8013  2.5473 -1.4108
15823TIP3   OH268883   0.462   6.734   2.338  0.0408 -0.0243  0.1988
15823TIP3    H168884   0.530   6.749   2.272  1.3152 -1.2344  1.1607
15823TIP3    H268885   0.460   6.814   2.390 -0.6133  0.7378 -0.9548
15824TIP3   OH268886   3.234   6.687  13.282  0.0945 -0.0776 -0.0659
15824TIP3    H168887   3.206   6.678  13.373  0.5706  1.0375  0.2085
15824TIP3    H268888   3.297   6.759  13.284 -1.4880  1.4335 -1.6028
15825TIP3   OH268889   0.995   5.360  15.159 -0.5158  0.3150 -0.0796
15825TIP3    H168890   1.064   5.392  15.217 -0.5277  1.6110 -0.7588
15825TIP3    H268891   0.951   5.439  15.128 -0.3334 -0.3107 -2.0614
15826TIP3   OH268892   6.733   1.170  14.665  0.3459 -0.3595  0.4605
15826TIP3    H168893   6.704   1.244  14.718  0.8464  0.5794 -0.5297
15826TIP3    H268894   6.663   1.106  14.672 -0.6784  0.7108  0.3600
15827TIP3   OH268895   0.838   4.206  13.745 -0.2892  0.2406 -0.0047
15827TIP3    H168896   0.878   4.119  13.750 -0.7924  0.0356  0.6379
15827TIP3    H268897   0.908   4.266  13.773 -0.4176 -0.1182  1.1456
15828TIP3   OH268898   4.147   6.715  17.313  0.1643  0.5108  0.1335
15828TIP3    H168899   4.095   6.795  17.310  1.0553  1.1046  0.5025
15828TIP3    H268900   4.228   6.739  17.356  1.1170 -0.2099 -1.1732
15829TIP3   OH268901   5.975   1.022  14.917  0.4599 -0.3818 -0.1653
15829TIP3    H168902   5.999   0.941  14.872 -1.6366 -0.1255 -1.9115
15829TIP3    H268903   5.969   1.087  14.847 -1.8309  0.3005  0.5780
15830TIP3   OH268904   5.478   1.555   3.246 -0.0728  0.1087  0.3283
15830TIP3    H168905   5.536   1.597   3.310  0.9352  0.1655 -0.5806
15830TIP3    H268906   5.512   1.466   3.238 -0.7552 -0.1710  0.5374
15831TIP3   OH268907   1.037   1.996   5.190 -0.0048  0.3343 -0.0106
15831TIP3    H168908   1.078   1.918   5.229 -2.2360 -0.2813  1.3131
15831TIP3    H268909   1.051   1.985   5.096  1.3707 -0.6638  0.2647
15832TIP3   OH268910   4.942   3.296   3.886 -0.1311 -0.1154  0.3317
15832TIP3    H168911   4.987   3.213   3.871  0.8756  0.2751  1.0901
15832TIP3    H268912   5.003   3.362   3.856 -0.0558  0.4447  1.6443
15833TIP3   OH268913   6.342   0.685   3.494 -0.0489  0.1892  0.2147
15833TIP3    H168914   6.282   0.750   3.530 -0.7415 -0.5342  0.4112
15833TIP3    H268915   6.307   0.667   3.406  0.6853  0.7580 -0.2025
15834TIP3   OH268916   6.725   0.187  15.620  0.3758 -0.3359  0.6414
15834TIP3    H168917   6.632   0.208  15.607  0.5227  0.3286  0.5931
15834TIP3    H268918   6.725   0.100  15.658 -0.1153 -2.3364 -3.4287
15835TIP3   OH268919   4.748   3.568  11.924 -0.5267  0.7851 -0.0028
15835TIP3    H168920   4.690   3.642  11.906  0.2151  1.3916  0.0091
15835TIP3    H268921   4.833   3.609  11.944 -0.1811 -0.0593  0.3094
15836TIP3   OH268922   5.733   5.336   2.934 -0.0163 -0.2444 -0.1470
15836TIP3    H168923   5.688   5.259   2.969  1.0528 -0.9553 -0.2945
15836TIP3    H268924   5.676   5.367   2.863 -1.4336  0.2962  1.1600
15837TIP3   OH268925   2.406   6.726  14.501 -0.0203  0.0439  0.6625
15837TIP3    H168926   2.478   6.684  14.548 -0.1245  1.0932  1.7920
15837TIP3    H268927   2.434   6.725  14.409  0.8938 -0.6284  0.9348
15838TIP3   OH268928   3.616   0.374  15.033  0.1480  0.1481 -0.2904
15838TIP3    H168929   3.617   0.286  15.069  1.1881  0.2446 -0.0608
15838TIP3    H268930   3.523   0.396  15.027 -0.1481 -1.1993 -0.9568
15839TIP3   OH268931   1.677   5.225   0.526 -0.1714 -0.2403  0.4604
15839TIP3    H168932   1.618   5.299   0.541  0.5759  0.4352  0.1256
15839TIP3    H268933   1.670   5.206   0.433  1.1120  0.6982  0.1567
15840TIP3   OH268934   5.755   4.838  16.182  0.3655 -0.0933 -0.6469
15840TIP3    H168935   5.708   4.759  16.210 -0.4358  0.3406 -0.7331
15840TIP3    H268936   5.718   4.858  16.096 -0.3064  1.0394 -0.1272
15841TIP3   OH268937   5.845   2.785   2.366 -0.5889  0.0306  0.5599
15841TIP3    H168938   5.917   2.724   2.377 -0.0897  0.3334 -0.7815
15841TIP3    H268939   5.776   2.733   2.324 -0.3464  0.2493 -0.1254
15842TIP3   OH268940   0.230   0.403   2.577  0.0921 -0.4230 -0.0071
15842TIP3    H168941   0.287   0.354   2.517 -0.5995 -0.4548 -0.6441
15842TIP3    H268942   0.167   0.338   2.608  0.4858 -0.4230  0.8291
15843TIP3   OH268943   3.933   6.168   2.022  0.4795 -0.3349 -0.4760
15843TIP3    H168944   3.907   6.177   2.113  2.2786 -1.8724  0.2607
15843TIP3    H268945   3.851   6.159   1.974 -0.4931  0.2366  1.0012
15844TIP3   OH268946   0.791   1.814  14.604 -0.2194  0.2891 -0.2762
15844TIP3    H168947   0.706   1.811  14.648  0.7213 -1.4206  1.6167
15844TIP3    H268948   0.831   1.729  14.623  2.0864  1.1933 -0.7194
15845TIP3   OH268949   0.531   0.614   1.115 -0.3270  0.1383  0.0855
15845TIP3    H168950   0.451   0.606   1.167 -0.3450 -0.5506 -0.0380
15845TIP3    H268951   0.558   0.524   1.099  1.8611  0.3240  2.2244
15846TIP3   OH268952   4.687   2.227   2.242 -0.3734  0.3730 -0.1314
15846TIP3    H168953   4.728   2.232   2.155 -1.3821 -1.6140 -0.7711
15846TIP3    H268954   4.630   2.303   2.246 -0.4128  0.4138 -1.2640
15847TIP3   OH268955   4.859   5.382  15.824  0.6434 -0.1815  0.5557
15847TIP3    H168956   4.820   5.402  15.739  0.7570  0.9065  0.7558
15847TIP3    H268957   4.885   5.467  15.860  2.4417 -0.7827  0.8042
15848TIP3   OH268958   2.644   1.635  17.130  0.0389 -0.0298 -0.0892
15848TIP3    H168959   2.626   1.705  17.193 -0.1020  0.7048 -0.9308
15848TIP3    H268960   2.739   1.637  17.119  0.2099 -0.9517  0.9731
15849TIP3   OH268961   6.013   0.407  16.609 -0.5383 -0.4976  0.3951
15849TIP3    H168962   5.998   0.459  16.688  0.7454 -0.1317  0.4203
15849TIP3    H268963   5.936   0.351  16.603 -1.5499  0.7824  0.8555
15850TIP3   OH268964   5.459   0.429  14.121  0.2485 -0.3552 -0.1369
15850TIP3    H168965   5.463   0.524  14.133  0.1685 -0.0146 -2.3849
15850TIP3    H268966   5.372   0.404  14.152  1.2240 -0.1782  3.0411
15851TIP3   OH268967   4.144   0.910   3.038 -1.0548  0.3780 -0.5439
15851TIP3    H168968   4.225   0.877   3.000 -0.6907 -0.1438  0.6467
15851TIP3    H268969   4.152   1.005   3.032 -0.1753  0.3468 -0.1233
15852TIP3   OH268970   0.715   2.808  11.270  0.1303  0.1540  0.0600
15852TIP3    H168971   0.752   2.753  11.201 -0.2959  0.7857 -0.6807
15852TIP3    H268972   0.757   2.893  11.258 -0.2025  0.3636  0.3591
15853TIP3   OH268973   5.654   0.634  16.934  0.0660  0.1951  0.3526
15853TIP3    H168974   5.572   0.666  16.896  1.0120  1.0737 -1.0512
15853TIP3    H268975   5.644   0.539  16.937 -0.6061  0.2178 -0.7544
15854TIP3   OH268976   4.537   0.609   1.325  0.0905 -0.1194  0.4569
15854TIP3    H168977   4.532   0.667   1.249  0.3644 -2.5993 -1.6090
15854TIP3    H268978   4.614   0.555   1.309 -0.7918 -1.8442  1.6364
15855TIP3   OH268979   3.467   1.786   2.713 -0.5924  0.3654  0.3279
15855TIP3    H168980   3.427   1.802   2.799 -0.8854 -0.0019  0.2640
15855TIP3    H268981   3.393   1.769   2.655 -0.3489 -0.3631  0.2160
15856TIP3   OH268982   3.379   2.517  15.671 -0.0697 -0.2391 -0.2104
15856TIP3    H168983   3.323   2.452  15.714 -0.5773  0.4799  0.2289
15856TIP3    H268984   3.318   2.581  15.634  0.4573  1.2338  1.3332
15857TIP3   OH268985   4.797   3.195  12.124 -0.8646 -0.1808 -0.0066
15857TIP3    H168986   4.749   3.197  12.207 -0.8669  2.1079  0.0218
15857TIP3    H268987   4.729   3.187  12.057 -0.9403 -1.0335  0.1632
15858TIP3   OH268988   4.326   2.499   4.950  0.1914 -0.1794 -0.1140
15858TIP3    H168989   4.266   2.466   5.017 -0.1313  0.6006 -0.0031
15858TIP3    H268990   4.273   2.505   4.870  0.3558 -0.3312 -0.2348
15859TIP3   OH268991   6.397   3.230   2.420 -0.8178  0.2060 -0.1602
15859TIP3    H168992   6.336   3.191   2.482  1.2864 -1.1921  1.1548
15859TIP3    H268993   6.390   3.176   2.342  0.8414 -1.9095  1.0536
15860TIP3   OH268994   5.642   6.360   2.135  0.0749  0.1009  0.4331
15860TIP3    H168995   5.577   6.353   2.065  1.2374 -1.5142 -0.5309
15860TIP3    H268996   5.707   6.421   2.101  1.4822 -1.8980 -0.6749
15861TIP3   OH268997   3.058   4.805   1.005  0.0859 -0.2414 -0.3066
15861TIP3    H168998   3.074   4.895   1.034 -1.0510 -0.5911  1.6219
15861TIP3    H268999   3.003   4.767   1.074 -1.0708 -1.8442 -1.9928
15862TIP3   OH269000   6.270   2.297  12.325  0.3248  0.1502 -0.5888
15862TIP3    H169001   6.310   2.210  12.329 -0.7581 -0.4204 -1.4358
15862TIP3    H269002   6.342   2.358  12.339  1.0576 -0.8906  0.2872
15863TIP3   OH269003   0.284   1.559  16.245  0.5386 -0.0349  0.0088
15863TIP3    H169004   0.206   1.513  16.212 -0.3950  1.4487  0.0859
15863TIP3    H269005   0.333   1.491  16.292 -0.6438 -1.0200 -0.1307
15864TIP3   OH269006   4.541   5.747  16.630  0.6478 -0.1851  0.3070
15864TIP3    H169007   4.510   5.696  16.555  0.2567 -0.2868  0.5369
15864TIP3    H269008   4.566   5.681  16.695 -1.4485 -0.1054  1.2612
15865TIP3   OH269009   3.531   0.187  11.477  0.1191  0.4316  0.3684
15865TIP3    H169010   3.549   0.150  11.563  0.8047  1.6002  0.7495
15865TIP3    H269011   3.441   0.161  11.457  0.6335 -1.6175  0.4897
15866TIP3   OH269012   0.798   1.673  16.838 -0.0894  0.0935  0.5905
15866TIP3    H169013   0.853   1.686  16.760 -1.4477  1.8405 -0.1434
15866TIP3    H269014   0.844   1.719  16.908 -0.0027  0.5407  0.2485
15867TIP3   OH269015   4.672   4.891   5.484 -0.2143 -0.4262  0.5057
15867TIP3    H169016   4.623   4.818   5.521 -2.4900  0.5029 -0.4734
15867TIP3    H269017   4.605   4.954   5.458  1.4207  0.4090 -2.1042
15868TIP3   OH269018   3.759   4.447   3.017  0.5110 -0.4099 -0.1209
15868TIP3    H169019   3.829   4.495   3.060  0.4210  1.0900 -1.5409
15868TIP3    H269020   3.797   4.418   2.934 -0.5603  0.5549 -0.9764
15869TIP3   OH269021   4.513   2.122  11.769 -0.2017 -0.4783  0.3591
15869TIP3    H169022   4.439   2.167  11.729  0.7025 -0.4429 -1.3577
15869TIP3    H269023   4.575   2.192  11.792 -0.5725 -0.5247  1.6142
15870TIP3   OH269024   1.691   0.322  12.507 -0.1341 -0.0196 -0.3680
15870TIP3    H169025   1.638   0.380  12.452  0.3907  0.2059 -0.6468
15870TIP3    H269026   1.768   0.302  12.453  1.3840  1.7863  1.0013
15871TIP3   OH269027   2.421   5.358  11.293 -0.2419 -0.1851  0.7486
15871TIP3    H169028   2.380   5.442  11.274 -1.5605 -0.9668 -0.0107
15871TIP3    H269029   2.408   5.307  11.214 -1.7858 -1.9702  2.0480
15872TIP3   OH269030   3.057   1.043  15.292 -0.2383  0.1000 -0.0763
15872TIP3    H169031   3.030   1.105  15.224  0.7026  0.8319  0.2027
15872TIP3    H269032   3.145   1.015  15.266 -1.0733 -2.0407 -0.8232
15873TIP3   OH269033   1.776   4.017   0.835  0.3950 -0.7974  0.2940
15873TIP3    H169034   1.776   4.092   0.895 -1.4631 -0.6550  0.1512
15873TIP3    H269035   1.855   3.968   0.859  1.5242  1.0507  0.5455
15874TIP3   OH269036   3.752   2.607  15.156 -0.2384  0.6272 -0.1523
15874TIP3    H169037   3.847   2.599  15.157 -0.2668 -0.3872 -1.5844
15874TIP3    H269038   3.734   2.692  15.196  1.1100 -0.1543  2.2608
15875TIP3   OH269039   1.025   3.427   5.317  0.2635 -0.5423 -0.0070
15875TIP3    H169040   0.932   3.404   5.324  0.1949 -0.4061 -0.4266
15875TIP3    H269041   1.033   3.511   5.363  0.4641 -1.2692  1.2995
15876TIP3   OH269042   3.118   2.788  17.152  0.1099  0.0542 -0.2299
15876TIP3    H169043   3.114   2.700  17.114 -0.3799 -0.0201 -0.0193
15876TIP3    H269044   3.156   2.842  17.083  0.0508 -0.2489 -0.5060
15877TIP3   OH269045   2.762   4.545   0.204  0.1209 -0.1913  0.3765
15877TIP3    H169046   2.731   4.634   0.219  1.0525 -0.1063  2.0571
15877TIP3    H269047   2.690   4.502   0.159 -0.4390  1.3426 -0.2628
15878TIP3   OH269048   2.809   3.328  11.124 -0.3820  0.3637 -0.1662
15878TIP3    H169049   2.754   3.253  11.146  0.2224  0.1421  0.6494
15878TIP3    H269050   2.833   3.315  11.032 -0.6357 -0.2138 -0.1495
15879TIP3   OH269051   1.941   3.629  14.201 -0.4522 -0.2151 -0.6772
15879TIP3    H169052   1.962   3.576  14.125  1.8239 -2.3419  1.2843
15879TIP3    H269053   1.872   3.580  14.246 -0.3140 -0.0692 -0.3009
15880TIP3   OH269054   1.392   1.684  17.032 -0.6751  0.1671 -0.3297
15880TIP3    H169055   1.374   1.770  16.994  1.7567  1.0286  0.2677
15880TIP3    H269056   1.487   1.675  17.026 -0.8498 -2.5089 -0.3552
15881TIP3   OH269057   1.948   6.023  11.726 -0.2819  0.2986  0.6501
15881TIP3    H169058   1.897   5.941  11.725 -0.8918  0.6684  0.9633
15881TIP3    H269059   1.889   6.088  11.689 -1.4582  1.5247  4.2845
15882TIP3   OH269060   1.918   6.570  13.079 -0.0501  0.1131  0.3030
15882TIP3    H169061   1.872   6.560  12.996 -0.5933 -0.3999  0.6520
15882TIP3    H269062   2.008   6.588  13.055  0.2866 -2.1886 -0.4389
15883TIP3   OH269063   4.146   0.978  14.235  0.0847 -0.4668 -0.0816
15883TIP3    H169064   4.057   0.944  14.248 -1.6656  2.6600 -2.4813
15883TIP3    H269065   4.168   1.022  14.317 -0.6200 -1.1720  0.4981
15884TIP3   OH269066   2.515   3.996   0.892  0.4601 -0.1280 -0.0460
15884TIP3    H169067   2.482   4.043   0.969  0.3886 -1.2790  0.6500
15884TIP3    H269068   2.538   3.910   0.925  0.8456 -0.5017 -1.2434
15885TIP3   OH269069   3.554   4.413   4.318 -0.2283  0.2493 -0.8310
15885TIP3    H169070   3.511   4.338   4.277  0.3706 -0.0946 -0.8475
15885TIP3    H269071   3.630   4.431   4.263  0.1169  0.3123 -0.3473
15886TIP3   OH269072   3.797   2.153  15.208 -0.1950  0.2240  0.0383
15886TIP3    H169073   3.829   2.240  15.231  0.9269 -0.0738 -0.3584
15886TIP3    H269074   3.770   2.162  15.116 -2.5305  0.8082  0.7040
15887TIP3   OH269075   2.570   6.713  12.461 -0.0398  0.1358  0.0266
15887TIP3    H169076   2.603   6.637  12.412  0.6242 -2.4409  3.9426
15887TIP3    H269077   2.633   6.783  12.442  1.2747 -1.2971 -1.2122
15888TIP3   OH269078   0.011   4.495  15.886  0.3954 -0.2415  0.5706
15888TIP3    H169079   0.025   4.416  15.938  0.6581 -0.1812  0.5918
15888TIP3    H269080   0.077   4.490  15.817 -0.5009 -0.7575 -0.2729
15889TIP3   OH269081   2.310   2.617  15.453  0.5228  0.4854 -0.0633
15889TIP3    H169082   2.367   2.667  15.394 -0.1169 -1.3661 -2.4003
15889TIP3    H269083   2.359   2.537  15.472 -0.1968  0.0828  0.1203
15890TIP3   OH269084   0.622   4.884   1.027  0.6170 -0.2973  0.1904
15890TIP3    H169085   0.550   4.931   1.068  0.1796 -0.8485  0.0756
15890TIP3    H269086   0.698   4.901   1.083  0.3227  0.0218  0.4918
15891TIP3   OH269087   4.127   1.349  16.379 -0.2055 -0.1976 -0.1872
15891TIP3    H169088   4.177   1.365  16.298 -0.2713 -2.5733 -0.7718
15891TIP3    H269089   4.193   1.320  16.442 -0.4327 -0.2647  0.0184
15892TIP3   OH269090   3.010   4.374  15.550  0.1524  0.1453 -0.1139
15892TIP3    H169091   2.927   4.421  15.547 -1.7126 -2.8913 -1.7853
15892TIP3    H269092   2.986   4.283  15.534  3.3106 -1.7428  3.9825
15893TIP3   OH269093   2.580   1.586   5.942  0.0424  0.0703  0.5231
15893TIP3    H169094   2.605   1.576   5.850 -1.0058 -0.7751  0.3208
15893TIP3    H269095   2.532   1.669   5.945 -1.6049 -0.8304 -0.0801
15894TIP3   OH269096   1.641   5.324   4.330 -0.4126  0.0942  0.1135
15894TIP3    H169097   1.621   5.238   4.367 -1.6736  0.6228  0.7167
15894TIP3    H269098   1.560   5.374   4.338  0.5717  1.6944  0.7628
15895TIP3   OH269099   4.626   5.781   3.725  0.2782  0.0773  0.1944
15895TIP3    H169100   4.553   5.825   3.682  0.6255  0.5101  0.0365
15895TIP3    H269101   4.602   5.689   3.723  0.4226  0.0347 -1.2278
15896TIP3   OH269102   5.106   5.134   1.284 -0.0132 -0.2832 -0.4731
15896TIP3    H169103   5.088   5.206   1.345  0.2314 -0.1412 -0.5651
15896TIP3    H269104   5.138   5.178   1.204  0.8910 -0.5265 -0.2611
15897TIP3   OH269105   2.258   5.980  14.746  0.1856  0.1716 -0.1996
15897TIP3    H169106   2.338   6.030  14.732 -0.7952  1.7307 -0.4837
15897TIP3    H269107   2.221   5.969  14.658 -0.1024 -0.2039 -0.0330
15898TIP3   OH269108   4.614   2.194   0.498  0.1322  0.0505  0.5577
15898TIP3    H169109   4.681   2.261   0.511  0.5489  0.0013 -1.0499
15898TIP3    H269110   4.585   2.207   0.407 -1.4214 -0.4879  0.9571
15899TIP3   OH269111   2.406   2.343  14.735 -0.0055  0.1025 -0.0967
15899TIP3    H169112   2.351   2.372  14.808 -0.0961  3.4427 -1.3264
15899TIP3    H269113   2.491   2.323  14.776 -0.6015  0.0503  1.1602
15900TIP3   OH269114   0.757   0.082   4.533  0.8036 -0.2665  0.7317
15900TIP3    H169115   0.820   0.097   4.462  1.0058  0.1081  0.9893
15900TIP3    H269116   0.673   0.111   4.496  1.0652  0.8422  0.9659
15901TIP3   OH269117   0.072   3.691  11.162  0.3727  0.2807 -0.2393
15901TIP3    H169118   0.033   3.700  11.249  0.4663 -1.1841 -0.0265
15901TIP3    H269119   0.106   3.778  11.142 -2.5576  1.5503 -0.2387
15902TIP3   OH269120   0.968   3.712   2.010  0.0116 -0.4673  0.0944
15902TIP3    H169121   1.027   3.647   2.050 -0.1922 -0.4522  0.4264
15902TIP3    H269122   0.974   3.695   1.916  0.8744 -0.1896  0.0878
15903TIP3   OH269123   0.955   2.523  14.397 -0.0005 -0.3300 -0.0882
15903TIP3    H169124   1.030   2.464  14.400  0.2332 -0.0360 -0.1178
15903TIP3    H269125   0.964   2.570  14.314 -1.2698 -1.6633 -1.0425
15904TIP3   OH269126   3.543   0.377  12.064  0.5499  0.4468 -0.1051
15904TIP3    H169127   3.458   0.421  12.059 -0.8727 -1.9218  1.3071
15904TIP3    H269128   3.556   0.361  12.157  0.1781 -3.3736 -0.5465
15905TIP3   OH269129   1.396   2.783  11.182  0.1570 -0.1319 -0.1159
15905TIP3    H169130   1.372   2.843  11.112 -1.4412  0.2440  0.7098
15905TIP3    H269131   1.468   2.731  11.145 -0.2556  0.4343 -1.8152
15906TIP3   OH269132   2.848   0.863  17.272  0.0938  0.3963 -0.1547
15906TIP3    H169133   2.896   0.793  17.316  1.0298  0.3354 -1.2195
15906TIP3    H269134   2.895   0.943  17.295 -1.3479  0.8217  1.5862
15907TIP3   OH269135   2.622   0.914   2.823  0.3767  0.4608 -0.6213
15907TIP3    H169136   2.611   1.009   2.818  0.9475  0.7828  2.3135
15907TIP3    H269137   2.694   0.895   2.764  0.2174  1.8258 -1.3002
15908TIP3   OH269138   2.577   4.985   0.813 -0.2013  0.0634 -0.8729
15908TIP3    H169139   2.609   4.902   0.849  1.3665  0.5731 -1.0176
15908TIP3    H269140   2.637   5.005   0.741 -0.6719  1.2227 -0.9691
15909TIP3   OH269141   4.535   5.407   2.206 -0.5501 -0.4504  0.2550
15909TIP3    H169142   4.601   5.472   2.229  0.7974 -1.7887  0.3093
15909TIP3    H269143   4.569   5.364   2.128 -1.8958 -0.4418 -0.3643
15910TIP3   OH269144   1.601   0.054   1.840 -0.5539  0.1501  0.0656
15910TIP3    H169145   1.633   0.038   1.929 -0.8898  0.0419  0.1686
15910TIP3    H269146   1.519   0.102   1.853 -1.3098 -1.0367 -0.1324
15911TIP3   OH269147   3.857   1.240   1.100  0.2226  0.2671  0.2082
15911TIP3    H169148   3.929   1.186   1.133 -0.3749 -0.5236  0.2344
15911TIP3    H269149   3.791   1.178   1.070  0.1849  0.9720 -1.2581
15912TIP3   OH269150   3.868   2.480  14.729  0.5251 -0.6409  0.5273
15912TIP3    H169151   3.830   2.394  14.712 -0.3001 -0.3238  0.7134
15912TIP3    H269152   3.821   2.539  14.671  2.8781 -0.6609 -1.5439
15913TIP3   OH269153   2.634   5.769   2.285 -0.1028 -0.2340  0.1399
15913TIP3    H169154   2.623   5.674   2.278 -3.0237 -0.0013  0.5278
15913TIP3    H269155   2.726   5.784   2.262 -0.2015 -2.8888 -2.6617
15914TIP3   OH269156   1.043   6.639  16.339  0.2269  0.6216 -0.1065
15914TIP3    H169157   0.972   6.590  16.381 -0.0513  1.9616  1.0402
15914TIP3    H269158   1.008   6.727  16.329  1.9464  1.4739  1.0756
15915TIP3   OH269159   0.071   3.014  14.660 -0.0609  0.2800  0.3354
15915TIP3    H169160  -0.016   3.009  14.619 -0.5244 -1.1600  1.4343
15915TIP3    H269161   0.111   3.091  14.620 -1.8852  1.0576 -0.1192
15916TIP3   OH269162   3.879   4.445  16.566 -0.5099 -0.3824 -0.4662
15916TIP3    H169163   3.895   4.430  16.473  0.8225 -0.1820 -0.2874
15916TIP3    H269164   3.814   4.516  16.568 -0.8329 -0.6511 -1.2347
15917TIP3   OH269165   5.487   6.461  16.126 -1.0560 -0.1104 -0.1898
15917TIP3    H169166   5.436   6.380  16.127  0.0202 -0.9000 -2.4342
15917TIP3    H269167   5.575   6.434  16.150 -1.4435  1.1465  3.0525
15918TIP3   OH269168   6.193   2.221   0.346 -0.7790 -0.0437 -0.7312
15918TIP3    H169169   6.118   2.236   0.404 -0.3823  0.8820 -0.4389
15918TIP3    H269170   6.240   2.305   0.346 -0.1379 -0.3937 -1.4780
15919TIP3   OH269171   0.606   4.843   2.109  0.1918  0.1489  0.0551
15919TIP3    H169172   0.633   4.933   2.090 -0.8410  0.7113  1.0879
15919TIP3    H269173   0.510   4.847   2.114  0.1777 -0.8228  0.9436
15920TIP3   OH269174   1.206   2.878  14.885  0.3970 -0.4229  0.3693
15920TIP3    H169175   1.204   2.974  14.883 -0.4219 -0.4117 -2.4577
15920TIP3    H269176   1.114   2.853  14.885  0.6097 -1.2226  0.9118
15921TIP3   OH269177   0.573   3.343   4.606  0.3093  0.2328  0.0148
15921TIP3    H169178   0.636   3.406   4.571  0.7697 -0.5896 -0.6898
15921TIP3    H269179   0.506   3.336   4.538 -0.0068  0.3451  0.3146
15922TIP3   OH269180   0.926   3.717   0.232 -0.1124 -0.0585 -0.3691
15922TIP3    H169181   1.002   3.735   0.178  1.2500  0.4057  1.6085
15922TIP3    H269182   0.880   3.800   0.238  0.1212  0.0617 -0.2400
15923TIP3   OH269183   0.368   1.423   4.110 -0.1818 -0.1702  0.9616
15923TIP3    H169184   0.276   1.448   4.101 -0.1653 -0.6819 -1.3351
15923TIP3    H269185   0.377   1.396   4.201 -2.2050  0.2402  1.3370
15924TIP3   OH269186   1.426   5.881  17.235  0.0398  0.1132 -0.3662
15924TIP3    H169187   1.463   5.908  17.151  0.0928 -0.6038 -0.5794
15924TIP3    H269188   1.472   5.800  17.257 -1.2993 -0.7286 -0.5713
15925TIP3   OH269189   4.879   0.228   0.362  0.0551  0.2161 -0.2638
15925TIP3    H169190   4.860   0.222   0.456  2.0408 -1.6824  0.0895
15925TIP3    H269191   4.869   0.321   0.342  0.0364  0.7449  1.9308
15926TIP3   OH269192   5.497   4.064   6.458  0.5806  0.4031 -0.6046
15926TIP3    H169193   5.402   4.052   6.451  0.4863 -0.9561  1.9396
15926TIP3    H269194   5.508   4.124   6.532  1.7158  0.6787 -0.9864
15927TIP3   OH269195   5.200   3.608   1.444  0.3897 -0.2857 -0.7030
15927TIP3    H169196   5.271   3.549   1.418 -0.0117  0.1298 -2.9507
15927TIP3    H269197   5.240   3.695   1.443  0.3087 -0.2348 -0.0545
15928TIP3   OH269198   3.913   1.594   3.944 -0.0332  0.0866 -0.1037
15928TIP3    H169199   3.869   1.540   3.878  0.7743  0.7355 -1.2227
15928TIP3    H269200   3.988   1.632   3.897  0.6836  0.4166  1.2531
15929TIP3   OH269201   3.925   1.685   3.469 -0.1521  0.1032 -0.1101
15929TIP3    H169202   3.986   1.611   3.466 -0.6456 -0.3611  0.9276
15929TIP3    H269203   3.953   1.742   3.397  1.7451  0.0847  0.5595
15930TIP3   OH269204   2.950   4.670  11.315  0.5378 -0.2954  0.4087
15930TIP3    H169205   2.960   4.615  11.393  0.3687  1.5405  1.7910
15930TIP3    H269206   2.857   4.693  11.314  0.8312  0.9298  0.5521
15931TIP3   OH269207   3.193   0.198   4.337  0.5594  0.2950  0.0077
15931TIP3    H169208   3.235   0.121   4.299  1.4704  1.1540 -0.7740
15931TIP3    H269209   3.112   0.164   4.376  2.1618 -1.4782  2.0337
15932TIP3   OH269210   5.131   6.605  15.829 -0.1860  0.0507  0.3343
15932TIP3    H169211   5.143   6.604  15.924 -0.9633 -0.9612  0.4273
15932TIP3    H269212   5.075   6.530  15.811 -1.4361  1.1960 -0.7449
15933TIP3   OH269213   4.434   5.568  12.029  0.0731  0.3840 -0.8821
15933TIP3    H169214   4.360   5.619  12.061 -0.0493  0.2182 -0.8986
15933TIP3    H269215   4.394   5.497  11.977  0.2099 -0.1528 -0.2656
15934TIP3   OH269216   4.560   2.902   2.586 -0.2400  0.2395 -0.6189
15934TIP3    H169217   4.539   2.822   2.539 -0.6722  0.3569 -0.6275
15934TIP3    H269218   4.648   2.886   2.623 -1.3540 -1.3003  1.6047
15935TIP3   OH269219   3.915   3.590  11.247  0.1211  0.2048  0.1271
15935TIP3    H169220   3.976   3.567  11.318  1.7439  0.7624 -1.0144
15935TIP3    H269221   3.906   3.685  11.254  1.9533  0.5817 -1.5846
15936TIP3   OH269222   2.697   2.920  12.589 -0.2877  0.3349  0.2650
15936TIP3    H169223   2.613   2.883  12.615 -0.5526  1.2718  0.8061
15936TIP3    H269224   2.715   2.882  12.503 -0.2457 -1.4727  1.0377
15937TIP3   OH269225   4.186   2.072  15.727 -0.6826 -0.1480 -0.1837
15937TIP3    H169226   4.218   1.994  15.681 -0.6198 -1.2624  1.6562
15937TIP3    H269227   4.096   2.083  15.697 -0.1321  0.1658 -1.8053
15938TIP3   OH269228   3.888   3.423  11.952  0.1013 -0.2418  0.0313
15938TIP3    H169229   3.848   3.389  11.872 -0.5407 -1.0459  0.6712
15938TIP3    H269230   3.820   3.479  11.991  0.6901  0.7811 -0.3617
15939TIP3   OH269231   5.480   2.221   4.102  0.1178  0.2850 -0.6948
15939TIP3    H169232   5.530   2.300   4.123 -0.1489 -0.0324  1.3003
15939TIP3    H269233   5.390   2.253   4.092  0.5574  0.8462 -4.2217
15940TIP3   OH269234   1.998   1.525  12.045  0.2872 -0.0922  0.2138
15940TIP3    H169235   1.994   1.472  11.965 -0.7877 -0.3015  0.3790
15940TIP3    H269236   2.038   1.467  12.110  1.2610  0.1156 -0.1965
15941TIP3   OH269237   2.710   1.028   2.091 -0.3824 -0.1156 -0.1235
15941TIP3    H169238   2.643   1.083   2.050 -1.1028 -1.3500 -0.6525
15941TIP3    H269239   2.779   1.023   2.025 -0.9771 -1.0501 -0.6951
15942TIP3   OH269240   5.564   5.464   0.907 -0.5627  0.2255  0.0531
15942TIP3    H169241   5.584   5.372   0.889  0.6652  0.4821  0.0566
15942TIP3    H269242   5.570   5.472   1.002  0.8913  0.6462 -0.0599
15943TIP3   OH269243   0.577   3.819   3.089  0.6872 -0.3714  0.2315
15943TIP3    H169244   0.513   3.878   3.050 -0.9377 -1.4332  1.1562
15943TIP3    H269245   0.623   3.780   3.015 -0.7943 -0.7007 -0.5548
15944TIP3   OH269246   1.305   4.058   0.728  0.4052 -0.7913  0.3741
15944TIP3    H169247   1.386   4.007   0.737  0.1509 -1.0505  1.4584
15944TIP3    H269248   1.251   4.029   0.802 -0.7679 -0.7843 -0.4574
15945TIP3   OH269249   1.910   0.891  14.357  0.0591 -0.3004  0.1145
15945TIP3    H169250   1.820   0.866  14.338  0.1846 -0.3015 -0.4961
15945TIP3    H269251   1.903   0.964  14.418 -0.3246 -1.7058  1.8506
15946TIP3   OH269252   0.192   4.738  10.875 -0.0416 -0.1183  0.2703
15946TIP3    H169253   0.106   4.729  10.835 -0.6027 -1.5413  1.6808
15946TIP3    H269254   0.241   4.795  10.815 -1.8215  0.4166 -0.7457
15947TIP3   OH269255   1.122   4.362  17.344  0.6530 -0.2742  0.1940
15947TIP3    H169256   1.067   4.382  17.268  1.8895 -0.5483 -0.8052
15947TIP3    H269257   1.166   4.445  17.364  0.3869 -0.2208  0.5814
15948TIP3   OH269258   6.640   1.555   4.508  0.2017  0.2806 -0.8790
15948TIP3    H169259   6.704   1.488   4.529 -1.7103 -1.0589  1.2099
15948TIP3    H269260   6.639   1.613   4.585 -0.1513  1.0407 -1.4393
15949TIP3   OH269261   3.728   1.833   2.784  0.4008  0.5419  0.7881
15949TIP3    H169262   3.708   1.886   2.861 -1.2522  0.8922  0.1588
15949TIP3    H269263   3.642   1.803   2.753  1.2364 -2.3942  1.0291
15950TIP3   OH269264   6.083   3.572   5.681 -0.5133 -0.2930  0.0864
15950TIP3    H169265   6.142   3.596   5.753 -1.3687  0.5206  0.5390
15950TIP3    H269266   6.132   3.508   5.630  0.5435 -0.0458  0.7648
15951TIP3   OH269267   6.407   6.291   4.715 -0.6765  0.2015  0.0024
15951TIP3    H169268   6.496   6.327   4.713 -0.2846 -0.7222 -2.8678
15951TIP3    H269269   6.379   6.289   4.624 -2.4346 -2.4185  0.4745
15952TIP3   OH269270   5.802   0.262   3.953  0.3105  0.1465 -0.5442
15952TIP3    H169271   5.783   0.217   3.870  0.4566  0.6544 -0.8566
15952TIP3    H269272   5.852   0.198   4.004  1.9061  0.4824 -1.6093
15953TIP3   OH269273   0.836   4.891   0.335 -0.1610  0.0876  0.2162
15953TIP3    H169274   0.850   4.978   0.373  0.6923 -0.2650  0.7397
15953TIP3    H269275   0.920   4.869   0.295 -0.2276 -0.6935  0.4977
15954TIP3   OH269276   6.678   5.180  15.313 -0.2747 -0.1979 -0.0623
15954TIP3    H169277   6.651   5.249  15.374  1.2087  0.6358 -0.2976
15954TIP3    H269278   6.716   5.112  15.369  0.9487  0.5008 -0.0079
15955TIP3   OH269279   5.650   6.457   4.522  0.3868 -0.5682 -0.4165
15955TIP3    H169280   5.605   6.534   4.557 -0.4885 -0.5986 -1.4421
15955TIP3    H269281   5.605   6.438   4.440  1.7446 -1.1098 -1.0637
15956TIP3   OH269282   4.712   2.210  15.206  0.3117 -0.1900 -0.5674
15956TIP3    H169283   4.618   2.198  15.216  0.6139 -1.2855  1.6332
15956TIP3    H269284   4.737   2.153  15.133 -0.6598 -0.1924 -0.9014
15957TIP3   OH269285   4.950   2.512  11.501  0.3230 -0.2588 -0.5087
15957TIP3    H169286   4.959   2.596  11.548 -1.8463 -1.2495  1.9422
15957TIP3    H269287   5.030   2.464  11.522 -0.0646 -0.1961  1.2466
15958TIP3   OH269288   1.208   2.569  17.330  0.1797 -0.1291 -0.0493
15958TIP3    H169289   1.167   2.486  17.307 -0.4702  0.5843 -1.6081
15958TIP3    H269290   1.137   2.634  17.322  0.6686  0.5915  1.1392
15959TIP3   OH269291   0.413   4.537  13.948 -0.9312  0.8655 -0.4030
15959TIP3    H169292   0.486   4.476  13.933 -0.1981  1.9594 -1.4106
15959TIP3    H269293   0.338   4.493  13.909 -0.8457 -0.2737  0.6334
15960TIP3   OH269294   2.056   1.038   1.376  0.4289  0.3549 -0.1826
15960TIP3    H169295   2.102   1.022   1.458  1.7875  0.9267 -0.8019
15960TIP3    H269296   2.113   1.097   1.328 -0.9824  1.1238 -0.9881
15961TIP3   OH269297   3.552   2.123   1.856  1.0181 -0.7987  0.0142
15961TIP3    H169298   3.560   2.028   1.862 -0.8823 -1.0267 -0.4873
15961TIP3    H269299   3.541   2.152   1.947  0.5152 -1.1825  0.0796
15962TIP3   OH269300   3.626   2.574  15.900  0.1739 -0.4306  0.2439
15962TIP3    H169301   3.592   2.486  15.914  0.3614 -0.3722  1.0688
15962TIP3    H269302   3.595   2.597  15.812 -0.8517 -0.8690  0.4730
15963TIP3   OH269303   3.939   5.203   0.692 -0.0862 -0.4104  0.0623
15963TIP3    H169304   4.000   5.272   0.718  1.3249 -1.3634 -0.5570
15963TIP3    H269305   3.913   5.226   0.603  1.0959 -1.1104 -0.4877
15964TIP3   OH269306   1.219   0.399   0.131 -0.4086 -0.1279 -0.3319
15964TIP3    H169307   1.134   0.358   0.116 -1.2289  1.2725  0.2714
15964TIP3    H269308   1.243   0.437   0.046 -0.6234 -0.1242 -0.3917
15965TIP3   OH269309   4.988   5.012  16.936  0.1244  0.0655 -0.4151
15965TIP3    H169310   5.028   4.937  16.894 -0.0719 -0.8783  1.0111
15965TIP3    H269311   4.937   4.975  17.008 -1.5408  1.4084 -0.8366
15966TIP3   OH269312   4.804   5.878   2.207 -0.2119  0.3076  0.0377
15966TIP3    H169313   4.886   5.923   2.223 -1.4489  1.8643  2.6634
15966TIP3    H269314   4.747   5.945   2.169 -0.9807 -0.0718  0.4952
15967TIP3   OH269315   6.095   2.236  13.389 -0.2201 -0.0239  0.0906
15967TIP3    H169316   6.105   2.189  13.306 -1.4955 -2.1798  1.0862
15967TIP3    H269317   6.184   2.252  13.418  0.4489 -4.0158  0.8087
15968TIP3   OH269318   0.286   3.270  16.981  0.4228 -0.0067  0.5134
15968TIP3    H169319   0.232   3.220  17.042 -1.0685  0.7105 -0.1838
15968TIP3    H269320   0.346   3.205  16.944 -1.9348 -1.5174 -0.9262
15969TIP3   OH269321   5.845   4.315   4.705 -0.1733  0.0022 -0.1458
15969TIP3    H169322   5.795   4.394   4.682 -1.5953 -1.0821 -0.9316
15969TIP3    H269323   5.890   4.338   4.786 -0.0577  1.8322 -0.6825
15970TIP3   OH269324   2.526   5.276   1.745  0.2812  0.6097  0.2767
15970TIP3    H169325   2.461   5.257   1.813  3.3246  0.2849  3.4202
15970TIP3    H269326   2.570   5.192   1.730  0.9302  1.1010 -0.6901
15971TIP3   OH269327   3.790   3.632   1.204 -0.9290  0.4181 -0.1766
15971TIP3    H169328   3.765   3.665   1.117 -1.4734  2.1190  0.5820
15971TIP3    H269329   3.823   3.709   1.250 -0.6638 -0.4558  1.1417
15972TIP3   OH269330   0.329   3.081  17.300 -0.7452 -0.6443  0.6964
15972TIP3    H169331   0.351   2.997  17.259 -0.9230 -0.6947  0.7079
15972TIP3    H269332   0.409   3.134  17.289 -1.1600 -0.2572 -0.7530
15973TIP3   OH269333   4.187   3.780  12.704 -0.1084  0.0639 -0.6812
15973TIP3    H169334   4.245   3.759  12.777  0.1537  1.7374 -0.3539
15973TIP3    H269335   4.242   3.777  12.626  0.1754  0.5903 -0.5040
15974TIP3   OH269336   4.026   6.437  16.718 -0.9644 -0.2922 -0.3311
15974TIP3    H169337   3.994   6.353  16.749 -0.9268 -0.3358 -0.4100
15974TIP3    H269338   4.096   6.461  16.778 -0.6585 -0.5417 -0.5882
15975TIP3   OH269339   1.992   5.678  14.131  0.4219 -0.1007  0.0730
15975TIP3    H169340   2.057   5.646  14.068  0.3972 -1.7060  0.8140
15975TIP3    H269341   1.909   5.640  14.101  0.1623  0.3135  0.2580
15976TIP3   OH269342   3.997   6.341   5.936  0.6379 -0.0519 -0.0971
15976TIP3    H169343   4.067   6.381   5.884  0.2578 -0.3161 -0.8173
15976TIP3    H269344   4.042   6.305   6.012  1.1485  0.6846 -0.0358
15977TIP3   OH269345   4.655   0.426   3.900 -0.0594  0.4000 -0.1075
15977TIP3    H169346   4.730   0.476   3.869  1.3185 -1.1731  0.5125
15977TIP3    H269347   4.681   0.397   3.988 -2.0404  1.0730  0.7673
15978TIP3   OH269348   0.827   0.558  13.637 -0.0249  0.2536  0.4942
15978TIP3    H169349   0.855   0.501  13.709  0.3365 -2.0397 -1.3229
15978TIP3    H269350   0.745   0.595  13.666 -1.5073 -3.0596  0.9985
15979TIP3   OH269351   1.087   3.729  13.767  0.4416 -0.2965 -0.2913
15979TIP3    H169352   1.150   3.658  13.760 -1.7090 -2.2722 -0.7734
15979TIP3    H269353   1.115   3.779  13.844  2.2906 -1.3371 -0.2270
15980TIP3   OH269354   3.730   4.172  16.534 -0.4889 -0.5980 -0.5603
15980TIP3    H169355   3.769   4.250  16.495  1.2013 -0.7850  0.6297
15980TIP3    H269356   3.790   4.148  16.605 -2.7418 -1.0018  1.3237
15981TIP3   OH269357   5.204   5.692  10.838  0.1219  0.2641  0.8067
15981TIP3    H169358   5.148   5.671  10.763  0.5035  2.3550 -0.1399
15981TIP3    H269359   5.231   5.607  10.873 -1.7970 -0.7813 -0.0973
15982TIP3   OH269360   6.086   1.795   0.438  0.1747  0.2773  0.4127
15982TIP3    H169361   6.127   1.810   0.524  1.4355  0.6126 -0.2254
15982TIP3    H269362   6.151   1.745   0.389 -0.3402  0.4856 -0.5065
15983TIP3   OH269363   1.462   3.636  15.756  0.3480  0.3502  0.2894
15983TIP3    H169364   1.371   3.654  15.735  0.2549  0.8513  1.1087
15983TIP3    H269365   1.512   3.684  15.689  0.0165  0.3988  0.0786
15984TIP3   OH269366   6.170   1.804   5.982 -0.0979  0.0828 -0.6943
15984TIP3    H169367   6.162   1.718   6.021 -0.0778  0.1871 -0.4588
15984TIP3    H269368   6.230   1.851   6.040  0.1471  0.1511 -0.9954
15985TIP3   OH269369   1.682   0.619  12.616 -0.0354 -0.5681  0.1596
15985TIP3    H169370   1.660   0.528  12.632  0.5826 -0.8557 -0.5582
15985TIP3    H269371   1.761   0.634  12.668  0.1577 -0.5918 -0.1248
15986TIP3   OH269372   1.942   0.422  13.185  0.6152  0.2316 -0.9643
15986TIP3    H169373   1.899   0.465  13.111  0.2298  1.0964 -0.2540
15986TIP3    H269374   1.873   0.413  13.251  0.9296 -0.6148 -0.7276
15987TIP3   OH269375   6.606   1.109   1.400 -0.2140  0.6056  0.1952
15987TIP3    H169376   6.612   1.135   1.492 -3.5087  0.6173  0.5167
15987TIP3    H269377   6.514   1.119   1.377  0.2045 -0.8322 -2.7110
15988TIP3   OH269378   3.203   0.213  16.807  0.1940 -0.0114 -0.0757
15988TIP3    H169379   3.289   0.182  16.778  0.6920 -0.9175  2.1051
15988TIP3    H269380   3.158   0.133  16.836  0.0220  0.8094  2.1253
15989TIP3   OH269381   5.880   6.643  11.993  0.1637  0.2430  0.2569
15989TIP3    H169382   5.793   6.603  11.996  0.5802 -0.7921 -0.7022
15989TIP3    H269383   5.872   6.715  11.931 -0.6332  1.8321  2.1162
15990TIP3   OH269384   3.897   4.090  17.321  0.6338  0.2177  0.3460
15990TIP3    H169385   3.854   4.149  17.384  0.4981  0.4441  0.0417
15990TIP3    H269386   3.854   4.108  17.238  1.6681  0.8096 -0.0701
15991TIP3   OH269387   4.206   4.499   4.056 -0.1520  0.3409  0.2685
15991TIP3    H169388   4.157   4.526   4.134 -0.9494 -0.7428  0.1566
15991TIP3    H269389   4.255   4.422   4.084  0.8045  0.8761  0.1209
15992TIP3   OH269390   1.978   3.772   3.532 -0.1401 -0.3263  0.0241
15992TIP3    H169391   1.887   3.799   3.534 -0.2379 -0.6213 -0.3730
15992TIP3    H269392   2.025   3.849   3.499 -0.1088  0.1706  1.1748
15993TIP3   OH269393   1.035   4.897  13.506  0.1906 -0.1617  0.0884
15993TIP3    H169394   0.944   4.884  13.531 -0.7088  0.4726 -2.5910
15993TIP3    H269395   1.079   4.817  13.535 -1.1274 -0.3552  1.6846
15994TIP3   OH269396   5.336   1.206   4.664  0.8487 -0.0527  0.5137
15994TIP3    H169397   5.395   1.189   4.738  0.0449  0.6768  1.3556
15994TIP3    H269398   5.262   1.147   4.679  1.1661 -0.6836 -0.3214
15995TIP3   OH269399   3.781   3.510   6.195 -0.5863 -0.6911  0.3587
15995TIP3    H169400   3.739   3.517   6.281  0.9103 -0.5110  1.0955
15995TIP3    H269401   3.868   3.475   6.213 -0.8983 -2.4852 -1.2961
15996TIP3   OH269402   1.554   6.209   6.194  0.6261  0.0414 -0.6528
15996TIP3    H169403   1.543   6.222   6.289  1.5144  1.1084 -0.6661
15996TIP3    H269404   1.473   6.168   6.166  0.6475 -0.9958  0.6970
15997TIP3   OH269405   1.552   4.367   5.457 -0.2420  0.4654 -0.0174
15997TIP3    H169406   1.523   4.430   5.523  2.0075  0.2487  1.2860
15997TIP3    H269407   1.611   4.309   5.505 -1.2894 -1.9151 -1.4532
15998TIP3   OH269408   0.764   1.487   4.228  0.2768 -0.3393  1.0132
15998TIP3    H169409   0.809   1.417   4.180  1.5259  1.2928 -0.3294
15998TIP3    H269410   0.829   1.521   4.289 -0.1326  0.0143  1.2604
15999TIP3   OH269411   1.235   5.435   0.537 -0.5938 -0.1390 -0.0166
15999TIP3    H169412   1.322   5.459   0.505 -0.6194  0.0296  0.0435
15999TIP3    H269413   1.206   5.510   0.587 -0.7121 -0.2575  0.0923
16000TIP3   OH269414   6.584   1.426  10.845 -0.4768  0.6849  0.2768
16000TIP3    H169415   6.609   1.393  10.758 -1.0090 -1.3268  0.8486
16000TIP3    H269416   6.657   1.483  10.870  1.2144 -1.1453 -0.2110
16001TIP3   OH269417   0.247   6.274  14.419 -0.3255 -0.4564 -0.6483
16001TIP3    H169418   0.283   6.185  14.418 -0.7675 -0.7313  1.5837
16001TIP3    H269419   0.181   6.271  14.488  1.0053  2.0839  0.8627
16002TIP3   OH269420   1.747   0.100  16.425 -0.0398 -0.3320 -0.2985
16002TIP3    H169421   1.654   0.101  16.447  0.0133 -0.1791 -0.0779
16002TIP3    H269422   1.778   0.188  16.445 -0.3667  0.3790 -2.6329
16003TIP3   OH269423   1.585   4.769   5.232 -0.1884  0.1525 -0.3433
16003TIP3    H169424   1.544   4.734   5.311  1.1766 -0.4889  0.1282
16003TIP3    H269425   1.592   4.863   5.248 -1.8492  0.3520 -0.6423
16004TIP3   OH269426   4.524   0.700  12.325 -0.3836  0.1365 -0.0070
16004TIP3    H169427   4.545   0.766  12.391 -2.4282  1.3804 -0.4877
16004TIP3    H269428   4.445   0.735  12.281  1.5093  0.0408 -3.9586
16005TIP3   OH269429   3.436   1.842  15.530  0.5835  0.2656  0.1319
16005TIP3    H169430   3.398   1.854  15.443 -2.4152 -0.6484  1.1817
16005TIP3    H269431   3.450   1.747  15.537 -0.3620  0.1728  1.0382
16006TIP3   OH269432   5.866   5.020  16.523 -0.3226 -0.1297  0.4621
16006TIP3    H169433   5.847   4.979  16.439 -0.6862 -0.3788  0.6612
16006TIP3    H269434   5.803   4.980  16.584  1.4667 -1.7477  1.3645
16007TIP3   OH269435   3.402   1.545  12.873  0.4123 -0.2596  0.0097
16007TIP3    H169436   3.343   1.521  12.944 -0.9835 -0.3534 -1.1335
16007TIP3    H269437   3.431   1.634  12.894 -0.9353  0.1734  0.1081
16008TIP3   OH269438   5.449   5.469   4.668  0.1159 -0.2187 -0.2001
16008TIP3    H169439   5.506   5.394   4.654 -0.5080 -0.7302 -0.0652
16008TIP3    H269440   5.372   5.450   4.615  1.0454  1.6132 -2.3696
16009TIP3   OH269441   1.518   4.087  11.599 -0.8205  0.3465  0.6782
16009TIP3    H169442   1.596   4.135  11.629  1.4581 -2.0112 -1.0590
16009TIP3    H269443   1.499   4.124  11.513  1.4645 -2.1640 -1.0501
16010TIP3   OH269444   1.251   6.724   4.251 -0.1071 -0.1104  0.0158
16010TIP3    H169445   1.288   6.722   4.163 -0.8904 -0.3891 -0.3139
16010TIP3    H269446   1.241   6.817   4.272 -0.2086 -0.0489 -0.3092
16011TIP3   OH269447   2.330   2.932   6.541  0.7434 -0.3363 -0.0070
16011TIP3    H169448   2.248   2.936   6.589  1.0607  1.3601  0.4638
16011TIP3    H269449   2.304   2.916   6.450 -0.2403  1.7141 -0.1282
16012TIP3   OH269450   0.510   6.022   2.603 -0.7726  0.1078  0.2360
16012TIP3    H169451   0.523   6.088   2.671 -1.2791  0.8959 -0.4298
16012TIP3    H269452   0.435   5.970   2.634  0.9223 -1.5756  1.8291
16013TIP3   OH269453   2.152   6.141  12.492 -0.3046  0.1613 -0.4711
16013TIP3    H169454   2.165   6.217  12.548  1.7886  0.0833 -0.7841
16013TIP3    H269455   2.237   6.127  12.449 -1.3276 -0.8547 -2.3138
16014TIP3   OH269456   4.502   2.031   2.773 -0.0115 -0.2168 -0.1293
16014TIP3    H169457   4.526   2.085   2.698 -0.7894 -0.3066 -0.4496
16014TIP3    H269458   4.410   2.010   2.759  0.1073 -1.0816  0.3311
16015TIP3   OH269459   6.163   5.347   4.165 -0.0134 -0.3229  0.2363
16015TIP3    H169460   6.115   5.272   4.130 -1.1167  0.1058  0.8005
16015TIP3    H269461   6.148   5.417   4.101 -0.6707 -0.0161  0.7075
16016TIP3   OH269462   5.425   2.606  15.514  0.2058  0.3790  0.4086
16016TIP3    H169463   5.488   2.535  15.501  2.1227  1.4254  2.9683
16016TIP3    H269464   5.454   2.675  15.455  1.4583  0.7815  1.4296
16017TIP3   OH269465   3.001   2.805  11.884  0.6294 -0.2778  0.2631
16017TIP3    H169466   2.950   2.881  11.910  1.7365  1.6411 -2.7147
16017TIP3    H269467   2.938   2.733  11.882 -0.6723  0.7056  2.1049
16018TIP3   OH269468   0.231   0.759  13.915 -0.1407  0.2655 -0.0717
16018TIP3    H169469   0.255   0.850  13.895 -0.6025  0.7439  1.4320
16018TIP3    H269470   0.137   0.756  13.900 -0.2028  0.1630  0.3540
16019TIP3   OH269471   0.155   3.207  13.567 -0.1213  0.0617 -0.0697
16019TIP3    H169472   0.164   3.280  13.628 -0.4304 -0.1067  0.1813
16019TIP3    H269473   0.121   3.135  13.620  0.4266 -0.3445 -0.2597
16020TIP3   OH269474   2.535   3.638  12.963  0.3475 -0.0321 -0.2075
16020TIP3    H169475   2.459   3.624  13.019 -0.2412 -0.3196 -1.0565
16020TIP3    H269476   2.565   3.726  12.985 -0.6941  0.3879 -0.3984
16021TIP3   OH269477   4.783   1.383   5.981 -0.0796  0.1459 -0.7131
16021TIP3    H169478   4.787   1.317   6.050  1.2452  0.4329 -0.4898
16021TIP3    H269479   4.727   1.452   6.016 -0.5521 -0.3464 -0.4920
16022TIP3   OH269480   0.664   0.464   2.023 -0.1230  0.8869  0.1294
16022TIP3    H169481   0.757   0.479   2.007  0.2878 -1.5104 -0.0823
16022TIP3    H269482   0.620   0.506   1.950  0.8668  1.1107 -0.3533
16023TIP3   OH269483   0.898   0.146  15.954  0.5754  0.1504 -0.0391
16023TIP3    H169484   0.920   0.111  15.868  0.9203 -0.2862  0.2234
16023TIP3    H269485   0.967   0.209  15.974  0.2292  0.6167 -0.2908
16024TIP3   OH269486   6.191   1.630  13.892 -0.2644 -0.2076  0.1085
16024TIP3    H169487   6.180   1.630  13.796 -0.3936  0.3088  0.1218
16024TIP3    H269488   6.130   1.696  13.923 -0.4051 -0.5551  0.5761
16025TIP3   OH269489   2.011   1.746  11.168  0.2565  0.3797  0.2284
16025TIP3    H169490   2.057   1.828  11.188  0.3089  1.1831 -2.5912
16025TIP3    H269491   2.047   1.719  11.083 -2.4164 -0.4951 -0.7396
16026TIP3   OH269492   0.636   1.189  17.240  0.1745  0.5711  0.9637
16026TIP3    H169493   0.708   1.246  17.212  0.2840 -0.2520 -0.5582
16026TIP3    H269494   0.659   1.103  17.205 -1.5762  0.3009  0.3573
16027TIP3   OH269495   3.644   0.526  16.274 -0.2099  0.3753  0.0711
16027TIP3    H169496   3.658   0.438  16.308 -0.9416  1.5955  4.0092
16027TIP3    H269497   3.693   0.583  16.333 -0.3675  2.7108 -1.8877
16028TIP3   OH269498   2.296   1.303  17.008 -0.2593  0.1854 -0.5670
16028TIP3    H169499   2.217   1.315  17.061 -1.6979 -1.6296 -2.1406
16028TIP3    H269500   2.283   1.362  16.934  0.5344  0.8627 -0.1763
16029TIP3   OH269501   1.482   0.841  14.085  0.8965  0.4200 -0.0373
16029TIP3    H169502   1.509   0.893  14.010 -1.5494 -0.0909 -1.3608
16029TIP3    H269503   1.426   0.773  14.049  0.4436 -0.4543  2.1374
16030TIP3   OH269504   4.427   3.903   6.272 -0.2365 -0.2378 -0.2681
16030TIP3    H169505   4.476   3.944   6.344 -0.3391  0.1134 -0.3970
16030TIP3    H269506   4.341   3.946   6.274  0.1977  0.7658 -1.4502
16031TIP3   OH269507   2.182   3.220  12.330  0.2356 -0.0714  0.0571
16031TIP3    H169508   2.212   3.293  12.276 -0.1959 -0.3751 -0.6034
16031TIP3    H269509   2.087   3.225  12.326  0.1820  0.1208  1.1031
16032TIP3   OH269510   6.538   0.179  11.309  0.1567 -0.4126 -1.0510
16032TIP3    H169511   6.491   0.211  11.386 -1.0515  1.1924 -2.3728
16032TIP3    H269512   6.532   0.083  11.315  0.1981 -0.3198  0.8789
16033TIP3   OH269513   0.223   5.504  12.554 -0.2329  0.0061 -0.2516
16033TIP3    H169514   0.133   5.501  12.520  0.2116  1.2767 -1.6436
16033TIP3    H269515   0.261   5.581  12.513  1.0948  0.2673  1.3946
16034TIP3   OH269516   4.740   4.198   1.667  0.6506 -0.6922 -0.2904
16034TIP3    H169517   4.774   4.140   1.736 -0.9723 -0.2334  0.9571
16034TIP3    H269518   4.704   4.273   1.714  1.0877  0.4956 -1.7716
16035TIP3   OH269519   6.381   4.069  13.374 -0.0363 -0.6422 -0.1269
16035TIP3    H169520   6.399   4.012  13.299 -2.3191 -1.5338 -0.0599
16035TIP3    H269521   6.287   4.083  13.372  0.1722  1.3150  1.2091
16036TIP3   OH269522   5.236   2.526  13.916 -0.0376  0.2487  0.4561
16036TIP3    H169523   5.215   2.536  14.009  1.6006  0.8305  0.7986
16036TIP3    H269524   5.263   2.435  13.906 -0.5450  0.0951  0.4737
16037TIP3   OH269525   5.502   3.903   4.593 -0.8447 -0.3172 -0.0395
16037TIP3    H169526   5.481   3.962   4.665  2.4304  0.9782  0.0320
16037TIP3    H269527   5.518   3.818   4.635  0.1566  0.2134  0.6991
16038TIP3   OH269528   5.225   4.975  15.759 -0.7359 -0.0079  0.1297
16038TIP3    H169529   5.178   4.942  15.683 -2.4189  0.6589  0.8209
16038TIP3    H269530   5.176   5.052  15.786 -0.5583 -0.5556  2.2355
16039TIP3   OH269531   2.359   1.260  12.180 -0.0592 -0.2948  0.5182
16039TIP3    H169532   2.300   1.272  12.106  0.0060  2.6724  0.8183
16039TIP3    H269533   2.447   1.269  12.142  0.0334 -0.3836  0.7107
16040TIP3   OH269534   3.611   1.390  13.259 -0.0164 -0.0165  0.0317
16040TIP3    H169535   3.595   1.344  13.342  1.0067 -1.1376 -0.3646
16040TIP3    H269536   3.676   1.456  13.281  2.6099 -2.2565 -0.3723
16041TIP3   OH269537   4.673   3.765   1.603  0.2962  0.1951  0.0818
16041TIP3    H169538   4.737   3.732   1.666 -0.5529 -1.6616  0.0314
16041TIP3    H269539   4.727   3.804   1.534  1.4977 -2.2107 -0.4679
16042TIP3   OH269540   0.756   4.505   2.474  0.1375  0.3641 -0.0445
16042TIP3    H169541   0.765   4.542   2.561  0.1004 -1.4075  0.7613
16042TIP3    H269542   0.661   4.501   2.459  0.1223  3.1702 -1.3682
16043TIP3   OH269543   4.378   0.229   4.656  1.0131 -0.1505 -0.5129
16043TIP3    H169544   4.383   0.226   4.561  0.4923  1.1318 -0.5903
16043TIP3    H269545   4.458   0.273   4.683  0.7035  0.3531 -0.4151
16044TIP3   OH269546   4.078   1.781   4.964 -0.0148  0.3256 -0.1223
16044TIP3    H169547   4.151   1.805   5.021  0.5159  0.0926 -0.6841
16044TIP3    H269548   4.002   1.824   5.002  0.1420 -0.5584  1.2829
16045TIP3   OH269549   1.521   1.018  17.315  0.2981 -0.3694 -0.0199
16045TIP3    H169550   1.493   0.983  17.231  2.4902 -1.5774 -0.3350
16045TIP3    H269551   1.552   1.107  17.295 -0.8761  0.0405 -0.1071
16046TIP3   OH269552   2.441   1.930  15.534 -0.8569 -0.0386  0.3383
16046TIP3    H169553   2.465   1.847  15.492  0.8104  0.0508  1.0103
16046TIP3    H269554   2.448   1.912  15.628 -3.9222 -0.0622  0.6516
16047TIP3   OH269555   0.807   4.564   3.881 -0.1839  0.2116 -0.6615
16047TIP3    H169556   0.850   4.634   3.930  1.8002 -0.7470 -0.9380
16047TIP3    H269557   0.807   4.596   3.790 -0.0498  0.2204 -0.6592
16048TIP3   OH269558   0.117   2.489   0.167 -0.1813 -0.0489  0.0103
16048TIP3    H169559   0.209   2.517   0.160  0.0042 -0.5714  0.3560
16048TIP3    H269560   0.100   2.444   0.084  0.2485 -1.0328  0.4448
16049TIP3   OH269561   0.771   2.440  16.287 -0.1307 -0.0656  0.6487
16049TIP3    H169562   0.860   2.408  16.306 -0.0988 -0.7700 -0.5787
16049TIP3    H269563   0.730   2.448  16.373  0.8469 -0.5659  1.1816
16050TIP3   OH269564   3.785   6.737   2.252  0.8655  0.2047  0.5806
16050TIP3    H169565   3.813   6.650   2.226  0.6840  0.0047  1.0502
16050TIP3    H269566   3.708   6.755   2.198 -0.1526 -0.6433  1.6979
16051TIP3   OH269567   2.651   3.968   1.452 -0.0896 -0.1384 -0.1028
16051TIP3    H169568   2.564   4.006   1.444  1.1486  3.0434  0.1424
16051TIP3    H269569   2.647   3.916   1.532 -1.9267 -0.6725 -0.4899
16052TIP3   OH269570   3.528   5.189   0.190 -0.5757 -0.2760  0.0281
16052TIP3    H169571   3.547   5.280   0.216 -1.0003 -0.4562  1.0107
16052TIP3    H269572   3.433   5.184   0.187 -0.5488 -0.6151 -0.3050
16053TIP3   OH269573   0.557   1.995   0.539 -0.3744 -0.1062  0.2208
16053TIP3    H169574   0.503   1.952   0.605  0.6962  0.2263  1.3553
16053TIP3    H269575   0.595   1.923   0.489 -2.4460 -0.3311 -1.1200
16054TIP3   OH269576   0.784   0.996  12.794 -0.1718 -0.4380 -0.6061
16054TIP3    H169577   0.747   0.927  12.739 -0.1220 -1.6662  0.8416
16054TIP3    H269578   0.710   1.053  12.813 -0.6322 -1.0939 -0.3692
16055TIP3   OH269579   4.959   3.631   4.493 -0.0053  0.1444  0.0378
16055TIP3    H169580   4.891   3.579   4.536 -1.3724  1.6120 -0.2531
16055TIP3    H269581   4.931   3.721   4.506  1.1825  0.7290 -1.2998
16056TIP3   OH269582   3.798   0.759  17.227 -0.2378  0.1476 -0.4765
16056TIP3    H169583   3.852   0.722  17.298 -0.9124  0.2334  0.0944
16056TIP3    H269584   3.710   0.726  17.244 -1.1570  2.9138  0.7794
16057TIP3   OH269585   2.534   3.810   6.327 -0.0047  0.5558 -0.1957
16057TIP3    H169586   2.485   3.817   6.409 -0.2037  1.3726 -0.3785
16057TIP3    H269587   2.492   3.872   6.268  1.2679  1.3068 -0.3513
16058TIP3   OH269588   1.847   0.493   5.602  0.5655  1.0739  0.3494
16058TIP3    H169589   1.929   0.450   5.576 -0.4041 -0.4063 -0.3886
16058TIP3    H269590   1.865   0.527   5.690  0.8214 -2.6608  1.9047
16059TIP3   OH269591   1.717   2.228  14.039 -0.1965 -0.4340  0.7810
16059TIP3    H169592   1.796   2.227  13.983  0.1825 -1.4820  1.3098
16059TIP3    H269593   1.702   2.136  14.060 -1.5497 -0.2365  0.7344
16060TIP3   OH269594   3.372   5.678   5.320  0.0796 -0.2085 -0.2493
16060TIP3    H169595   3.309   5.627   5.268 -0.7145 -0.1886  0.6520
16060TIP3    H269596   3.321   5.706   5.397  0.3491  2.3377 -0.9195
16061TIP3   OH269597   5.292   4.604  15.627  0.1165  0.4933  0.3478
16061TIP3    H169598   5.385   4.582  15.630  0.3890  1.5074 -0.2849
16061TIP3    H269599   5.254   4.541  15.567  0.0718 -0.9841  1.8641
16062TIP3   OH269600   1.384   6.128   2.330 -0.1786 -0.4602 -0.0081
16062TIP3    H169601   1.355   6.193   2.266  0.5628 -0.4991 -0.3975
16062TIP3    H269602   1.464   6.092   2.292 -0.6474 -1.6903  0.1531
16063TIP3   OH269603   6.574   6.078   3.404  0.4139  0.6361 -0.2258
16063TIP3    H169604   6.653   6.126   3.376 -0.1490  0.5570 -2.1250
16063TIP3    H269605   6.550   6.026   3.327 -2.6273  2.1866 -0.4711
16064TIP3   OH269606   2.955   2.127   2.986 -0.3481  0.5555  0.0950
16064TIP3    H169607   2.987   2.196   2.929  2.0867 -0.3034  0.2862
16064TIP3    H269608   2.965   2.162   3.075 -0.0516  0.3291  0.1530
16065TIP3   OH269609   6.378   2.389  10.786  0.0337 -0.1770 -0.0063
16065TIP3    H169610   6.339   2.358  10.704  2.9353 -1.3458 -1.0863
16065TIP3    H269611   6.453   2.441  10.758  0.0764  0.8888  1.9320
16066TIP3   OH269612   2.628   6.355  15.342  0.8188 -0.4694  0.2025
16066TIP3    H169613   2.591   6.406  15.415  0.2460  2.0395 -1.6899
16066TIP3    H269614   2.558   6.351  15.278  2.5318  1.1539 -1.9401
16067TIP3   OH269615   2.956   1.722  13.139 -0.1391  0.1312 -0.3386
16067TIP3    H169616   2.924   1.713  13.229 -0.6497 -0.4309 -0.5684
16067TIP3    H269617   2.880   1.699  13.085  0.4420 -0.4889 -0.9065
16068TIP3   OH269618   6.389   6.204  14.857  0.2691 -0.2700  0.5048
16068TIP3    H169619   6.476   6.213  14.897  0.7428 -0.4747 -0.4375
16068TIP3    H269620   6.348   6.132  14.903  1.2910 -1.3391 -0.1921
16069TIP3   OH269621   6.190   2.815   4.968  0.3302 -0.2574 -0.1733
16069TIP3    H169622   6.173   2.908   4.952  0.5278 -0.2090 -0.0990
16069TIP3    H269623   6.272   2.797   4.923  2.4631  0.5566  3.0449
16070TIP3   OH269624   0.554   5.640   1.401 -0.3815  0.2062 -0.0537
16070TIP3    H169625   0.638   5.612   1.439 -1.2322 -1.7749  0.4845
16070TIP3    H269626   0.575   5.659   1.310  1.0467  1.8193  0.5541
16071TIP3   OH269627   5.488   1.664  13.415 -0.7367 -0.0522 -0.0893
16071TIP3    H169628   5.432   1.601  13.460  0.2554 -0.1757  1.0274
16071TIP3    H269629   5.577   1.641  13.443 -0.0886 -0.0235 -2.0244
16072TIP3   OH269630   2.507   6.205   3.950 -0.3887 -0.8419  0.3545
16072TIP3    H169631   2.417   6.237   3.954 -0.0033  0.1868  1.3465
16072TIP3    H269632   2.506   6.123   3.998 -0.7626 -0.7361  0.5312
16073TIP3   OH269633   3.994   4.201   2.939  0.7128 -0.2054 -0.1347
16073TIP3    H169634   4.032   4.206   2.851  2.2276  0.7089  0.5296
16073TIP3    H269635   4.011   4.111   2.967  0.4665 -0.4237 -0.6742
16074TIP3   OH269636   0.834   1.194  15.009 -0.1027  0.5697  0.5179
16074TIP3    H169637   0.776   1.213  14.935 -1.5226 -0.7569  1.2324
16074TIP3    H269638   0.775   1.179  15.082  1.2387  0.8081  1.6890
16075TIP3   OH269639   2.404   1.075   2.223  0.4551  0.1346 -0.0182
16075TIP3    H169640   2.371   1.120   2.145 -1.3378 -0.6956  0.2162
16075TIP3    H269641   2.325   1.045   2.269  1.5023 -0.2541  1.6117
16076TIP3   OH269642   1.649   0.231  15.655 -0.3676 -0.1738 -0.5052
16076TIP3    H169643   1.664   0.147  15.697  0.3824 -0.0635 -0.5511
16076TIP3    H269644   1.555   0.248  15.668 -0.0609  0.1131  1.5702
16077TIP3   OH269645   2.032   5.900   3.913  0.0060  0.3659 -0.2220
16077TIP3    H169646   2.048   5.905   4.008  2.0354  0.4644 -0.5272
16077TIP3    H269647   1.981   5.819   3.902 -2.3139  1.5152  1.1386
16078TIP3   OH269648   6.594   0.096  14.846 -0.3666 -0.1595 -0.0091
16078TIP3    H169649   6.514   0.080  14.795 -1.0919 -0.1119  1.0886
16078TIP3    H269650   6.662   0.108  14.780 -1.2027 -0.5097 -0.9635
16079TIP3   OH269651   5.081   3.261  16.038 -0.3296 -0.1878  0.1442
16079TIP3    H169652   5.112   3.211  15.962 -3.5005 -0.4082 -1.1663
16079TIP3    H269653   5.003   3.214  16.066 -1.8902  2.4788  0.5929
16080TIP3   OH269654   0.199   4.884   3.927  0.0930 -0.0916 -0.0815
16080TIP3    H169655   0.264   4.937   3.882  0.6160  0.5569  1.3849
16080TIP3    H269656   0.228   4.794   3.913 -0.0854  0.0528 -1.4985
16081TIP3   OH269657   1.880   1.624   5.561 -0.2540 -0.0810  0.3884
16081TIP3    H169658   1.834   1.663   5.635 -1.5758  1.3480 -1.1029
16081TIP3    H269659   1.948   1.688   5.538 -0.4909 -0.0394 -0.2237
16082TIP3   OH269660   0.413   2.032   3.729 -0.4114  0.1773  0.8389
16082TIP3    H169661   0.465   1.953   3.710  1.3796  1.4254  0.2419
16082TIP3    H269662   0.351   2.004   3.796 -1.1268 -2.2130 -0.6791
16083TIP3   OH269663   3.887   3.010   0.308  0.0110  0.4004 -0.2620
16083TIP3    H169664   3.892   3.106   0.309  2.3085  0.3143 -0.0352
16083TIP3    H269665   3.952   2.984   0.243 -0.4378 -1.0279 -0.1551
16084TIP3   OH269666   3.998   1.226   3.269 -0.1858  0.2061 -0.0165
16084TIP3    H169667   3.949   1.284   3.211 -1.0174  1.4427  1.8197
16084TIP3    H269668   3.953   1.142   3.263 -1.8483  1.0038  0.7169
16085TIP3   OH269669   4.445   0.406  13.384  0.6204 -0.4582 -0.2210
16085TIP3    H169670   4.414   0.322  13.417  0.8770 -0.3510  0.3009
16085TIP3    H269671   4.367   0.448  13.349 -0.0864  0.2793  2.0842
16086TIP3   OH269672   1.871   5.355   4.687  0.5404  0.6983 -0.1247
16086TIP3    H169673   1.937   5.352   4.618  0.8629  1.4724  0.1445
16086TIP3    H269674   1.858   5.263   4.711  0.4061  0.4060 -1.2238
16087TIP3   OH269675   5.610   3.383  16.874 -0.2950 -0.0673  0.8256
16087TIP3    H169676   5.683   3.353  16.928  0.1264  0.6788  0.6758
16087TIP3    H269677   5.647   3.393  16.786 -0.7461 -0.3499  0.5952
16088TIP3   OH269678   3.804   4.142  15.362 -0.1193  0.8411 -0.3206
16088TIP3    H169679   3.878   4.096  15.322 -1.9770 -0.7232 -2.2127
16088TIP3    H269680   3.844   4.216  15.407  2.6517 -0.3556 -0.5835
16089TIP3   OH269681   4.601   0.998  11.599 -0.1159 -0.0551  0.1076
16089TIP3    H169682   4.680   1.026  11.645 -0.3098 -1.8579  1.6598
16089TIP3    H269683   4.534   0.991  11.667 -1.4696  0.8391 -1.0752
16090TIP3   OH269684   1.810   5.849  17.310  0.2464  0.0537 -0.0184
16090TIP3    H169685   1.890   5.852  17.362 -0.3809 -1.4269  1.1156
16090TIP3    H269686   1.836   5.884  17.224  2.0731 -0.2831  0.3449
16091TIP3   OH269687   1.341   0.487  11.732 -0.4641 -0.1277  0.3181
16091TIP3    H169688   1.271   0.552  11.724 -1.2894 -1.1142 -0.8406
16091TIP3    H269689   1.405   0.511  11.665  0.5022  0.9584  1.5834
16092TIP3   OH269690   4.941   1.137  13.087  0.3436  0.1284  0.7001
16092TIP3    H169691   4.936   1.232  13.079  2.6220  0.4680  2.4267
16092TIP3    H269692   4.936   1.106  12.996  0.0923  1.9013  0.0568
16093TIP3   OH269693   1.406   6.748   1.433 -0.7193  0.3181  0.1837
16093TIP3    H169694   1.410   6.746   1.337 -1.0653 -0.5146  0.1799
16093TIP3    H269695   1.496   6.767   1.460 -0.6137  0.5254 -0.3055
16094TIP3   OH269696   4.945   2.982  12.759  0.2302 -0.2927  0.3810
16094TIP3    H169697   5.018   2.969  12.818  0.9353  0.5438 -0.2887
16094TIP3    H269698   4.946   3.075  12.737 -1.3366 -0.1583  0.7381
16095TIP3   OH269699   5.829   0.830  14.366 -0.3768  0.4110 -0.2801
16095TIP3    H169700   5.768   0.785  14.308 -0.3399  2.3721 -1.9784
16095TIP3    H269701   5.774   0.867  14.435 -0.6133 -0.7048  0.1510
16096TIP3   OH269702   6.420   2.353  15.088  0.1636 -0.0297 -0.0115
16096TIP3    H169703   6.333   2.357  15.048  0.5624  0.9035 -0.8143
16096TIP3    H269704   6.469   2.424  15.047  0.7382  0.6868  1.7898
16097TIP3   OH269705   2.257   0.200  16.157  0.1051  0.2343  0.3908
16097TIP3    H169706   2.259   0.243  16.242 -1.6907 -0.8718  1.0554
16097TIP3    H269707   2.201   0.124  16.170 -0.6759  0.3325 -1.9023
16098TIP3   OH269708   3.880   5.729   3.864 -0.0611 -0.5661 -0.0019
16098TIP3    H169709   3.882   5.799   3.930  2.8896 -0.3928 -0.1817
16098TIP3    H269710   3.910   5.651   3.910  0.1356 -0.9004 -0.6818
16099TIP3   OH269711   5.919   2.637  16.026 -0.2820  0.3157  0.2843
16099TIP3    H169712   5.945   2.555  15.983 -0.0041  0.9937 -0.8781
16099TIP3    H269713   5.872   2.686  15.959 -3.0007 -0.0498  1.7756
16100TIP3   OH269714   3.439   0.239   5.662 -0.3093 -0.0153  0.3559
16100TIP3    H169715   3.384   0.317   5.650  1.1563  1.0835  0.4640
16100TIP3    H269716   3.428   0.189   5.581 -0.7094  0.6731 -0.0228
16101TIP3   OH269717   6.505   4.954   1.872  0.3369 -0.0373 -0.1349
16101TIP3    H169718   6.423   4.974   1.826  0.1037 -0.4745  0.0817
16101TIP3    H269719   6.574   4.986   1.813 -0.0005  1.5023  0.2531
16102TIP3   OH269720   4.697   1.432  15.592 -0.4859  0.1313 -0.7043
16102TIP3    H169721   4.763   1.377  15.635 -1.1503 -0.5992 -0.5910
16102TIP3    H269722   4.669   1.381  15.516 -1.8027 -0.1361 -0.0664
16103TIP3   OH269723   3.400   5.020  13.781  0.2185 -0.2390 -0.0855
16103TIP3    H169724   3.474   4.997  13.837 -0.5159 -0.4357  0.8380
16103TIP3    H269725   3.427   5.100  13.737  0.8272 -0.0961  0.5319
16104TIP3   OH269726   6.703   0.213  12.820 -0.0786  0.5535  0.2521
16104TIP3    H169727   6.650   0.199  12.898  0.3171  1.5665  0.7204
16104TIP3    H269728   6.793   0.201  12.850  0.0633  0.6837 -0.1169
16105TIP3   OH269729   0.949   5.824  11.687  0.4934 -0.1652  0.2382
16105TIP3    H169730   0.954   5.761  11.614 -1.3589  0.0110 -0.0907
16105TIP3    H269731   0.856   5.844  11.694  1.1034  3.7860 -0.7224
16106TIP3   OH269732   2.425   5.766   0.046 -0.4155 -0.1013  0.9114
16106TIP3    H169733   2.358   5.830   0.023 -0.8649 -0.4297  1.2879
16106TIP3    H269734   2.423   5.702  -0.025 -0.5219 -0.1277  0.9370
16107TIP3   OH269735   4.519   3.416   1.791 -0.2583  0.0994  0.1571
16107TIP3    H169736   4.603   3.404   1.835 -0.1479  0.2329 -0.0176
16107TIP3    H269737   4.495   3.328   1.760  0.5449  0.3088 -1.1145
16108TIP3   OH269738   5.080   6.163  11.042 -0.2391 -0.8303  1.0702
16108TIP3    H169739   5.060   6.124  11.127  0.8125  0.5667  2.0157
16108TIP3    H269740   5.176   6.159  11.036  0.0165  2.0020  1.5213
16109TIP3   OH269741   4.310   1.506  13.916 -0.2643 -0.3745  0.1744
16109TIP3    H169742   4.285   1.413  13.919  0.1224 -0.4912 -0.3021
16109TIP3    H269743   4.250   1.544  13.852  0.4174 -0.5519 -0.5802
16110TIP3   OH269744   0.714   0.542   0.678 -0.0609  0.2428 -0.0975
16110TIP3    H169745   0.736   0.633   0.660 -3.1672  0.9427 -0.9159
16110TIP3    H269746   0.709   0.537   0.773  0.1743  0.8891 -0.0446
16111TIP3   OH269747   3.241   0.169  13.567  0.3456  0.7594 -0.2674
16111TIP3    H169748   3.332   0.173  13.539  0.8393  0.3194  1.1872
16111TIP3    H269749   3.223   0.256  13.603  0.0425  0.9810 -0.9297
16112TIP3   OH269750   0.363   4.785  11.473  0.1324  0.1095 -0.3276
16112TIP3    H169751   0.398   4.827  11.395  1.7229  0.7809  0.7101
16112TIP3    H269752   0.412   4.823  11.546 -1.8339  0.0942  1.1067
16113TIP3   OH269753   0.277   4.201   0.584 -0.2226 -0.0311  0.5592
16113TIP3    H169754   0.359   4.151   0.585 -0.9367 -1.2824 -0.4023
16113TIP3    H269755   0.253   4.205   0.491 -1.7590 -0.5815  0.9033
16114TIP3   OH269756   6.675   3.081   4.147  0.8798  0.1223  0.0290
16114TIP3    H169757   6.712   3.097   4.060  1.0679 -1.1854 -0.1448
16114TIP3    H269758   6.708   2.995   4.172 -0.3888 -0.1760  0.7590
16115TIP3   OH269759   3.570   2.789   4.343  0.2199 -0.2608 -0.7446
16115TIP3    H169760   3.662   2.810   4.357 -0.0942 -0.6676  2.6389
16115TIP3    H269761   3.568   2.693   4.334  0.0421 -0.3286  0.0211
16116TIP3   OH269762   1.044   6.020  11.858 -0.0715  0.2777  0.1990
16116TIP3    H169763   1.131   5.991  11.885 -0.6333 -0.8171  0.9352
16116TIP3    H269764   1.004   5.943  11.818 -1.6611 -0.0994  2.3103
16117TIP3   OH269765   1.190   5.479  12.904  0.0820  0.6780  0.5922
16117TIP3    H169766   1.252   5.539  12.944 -0.8818  1.6692  0.6310
16117TIP3    H269767   1.107   5.496  12.948 -0.3975 -0.0944  0.0219
16118TIP3   OH269768   0.638   1.379  11.136  0.0592  0.0049  0.0100
16118TIP3    H169769   0.551   1.411  11.159 -0.3170 -0.8606 -0.1723
16118TIP3    H269770   0.654   1.414  11.048  0.1018  0.5577  0.2345
16119TIP3   OH269771   6.297   2.746  14.381  0.2717  0.6099  0.4207
16119TIP3    H169772   6.210   2.732  14.344 -0.1458  1.2166  1.1430
16119TIP3    H269773   6.326   2.659  14.407  0.8810  0.0403 -1.9160
16120TIP3   OH269774   1.342   4.350  11.037  0.4398 -0.5283 -0.3064
16120TIP3    H169775   1.379   4.416  10.979 -0.5812  0.6732  0.3335
16120TIP3    H269776   1.303   4.285  10.979  1.0005 -0.2902 -0.9554
16121TIP3   OH269777   3.479   3.569  14.977  0.1990 -0.4444 -0.4949
16121TIP3    H169778   3.383   3.575  14.981  0.2503 -0.3624  1.8231
16121TIP3    H269779   3.508   3.660  14.981  0.3767 -0.5341  2.8574
16122TIP3   OH269780   3.176   1.554  14.229  0.1839 -0.2247  0.3186
16122TIP3    H169781   3.093   1.568  14.274  0.0418 -2.4400  0.8523
16122TIP3    H269782   3.184   1.459  14.223  1.4798 -0.0404 -2.0006
16123TIP3   OH269783   0.971   4.994   0.023 -0.5714  0.5130 -0.2146
16123TIP3    H169784   0.881   5.024   0.007 -0.6128  0.0616 -0.9059
16123TIP3    H269785   1.004   4.974  -0.065 -0.0377  0.0087  0.1016
16124TIP3   OH269786   3.293   4.193  16.556  0.0110 -0.2562  0.5913
16124TIP3    H169787   3.236   4.118  16.536 -2.4008  1.2408  1.4265
16124TIP3    H269788   3.240   4.248  16.613  2.0329  1.6856  0.6937
16125TIP3   OH269789   0.413   4.957   2.841 -0.1791 -0.0188  0.3913
16125TIP3    H169790   0.324   4.924   2.853  0.5773 -2.1770  0.5224
16125TIP3    H269791   0.459   4.886   2.795  1.0792  1.6742 -1.1235
16126TIP3   OH269792   3.587   6.429  11.366  0.9971 -0.5002  0.1438
16126TIP3    H169793   3.669   6.391  11.397  0.1711 -3.0349 -0.5233
16126TIP3    H269794   3.542   6.357  11.321 -1.1390  1.0671 -0.4311
16127TIP3   OH269795   4.030   5.603  16.121  0.0470  0.0214 -0.1358
16127TIP3    H169796   3.996   5.683  16.160 -2.2112 -0.5608 -0.7467
16127TIP3    H269797   4.020   5.537  16.189 -3.1688 -0.8274 -1.2649
16128TIP3   OH269798   2.141   1.479   5.833 -0.4478  0.3607 -0.1155
16128TIP3    H169799   2.126   1.573   5.830  1.1101  0.6976  1.2187
16128TIP3    H269800   2.121   1.454   5.923 -1.2452 -0.6660 -0.5614
16129TIP3   OH269801   0.113   3.223  11.489 -0.1872 -0.5554 -0.3995
16129TIP3    H169802   0.194   3.271  11.473 -0.3113 -0.0703  0.4189
16129TIP3    H269803   0.045   3.290  11.488 -0.5470 -0.9221 -0.7681
16130TIP3   OH269804   3.476   2.788   6.048  0.4302 -0.2556 -0.0234
16130TIP3    H169805   3.492   2.700   6.083 -1.0848 -0.7623 -0.5219
16130TIP3    H269806   3.389   2.782   6.008  1.1266  0.9325 -1.8226
16131TIP3   OH269807   5.665   5.673   1.433 -0.1171 -0.0663  0.2924
16131TIP3    H169808   5.672   5.597   1.490  1.3404 -0.4764 -0.3700
16131TIP3    H269809   5.572   5.679   1.412 -0.2985 -1.5337  0.5437
16132TIP3   OH269810   4.102   6.159  14.483  0.6514 -0.0739  0.0230
16132TIP3    H169811   4.188   6.143  14.523 -0.0291 -1.4396  1.0073
16132TIP3    H269812   4.079   6.076  14.441 -0.6368 -0.0629  0.6667
16133TIP3   OH269813   1.991   4.603   2.171  0.4699 -0.6665  0.5627
16133TIP3    H169814   2.001   4.673   2.236  0.7152 -1.2781  1.1927
16133TIP3    H269815   1.940   4.643   2.100 -0.4717 -0.2231  1.4777
16134TIP3   OH269816   2.938   0.955  12.817  0.0333  0.1990  0.6581
16134TIP3    H169817   2.959   0.983  12.906  0.0611 -0.0919  0.7442
16134TIP3    H269818   2.983   1.018  12.761  0.1239  0.3052  0.8483
16135TIP3   OH269819   1.547   2.024   6.555  0.2474  0.2848 -0.3433
16135TIP3    H169820   1.500   2.049   6.635  2.2080  2.1497  0.3310
16135TIP3    H269821   1.598   1.948   6.581  1.0123  0.9877  0.2846
16136TIP3   OH269822   6.647   3.997  16.400 -0.0517  0.6789  0.0405
16136TIP3    H169823   6.741   3.984  16.409 -0.0522  0.6655  0.0266
16136TIP3    H269824   6.608   3.931  16.458 -0.1178 -0.8725 -1.6966
16137TIP3   OH269825   0.839   5.813   2.332 -0.0504 -0.3970 -0.3332
16137TIP3    H169826   0.808   5.810   2.423  0.2869 -1.0869 -0.2273
16137TIP3    H269827   0.854   5.721   2.310 -1.9735 -0.4191 -1.7475
16138TIP3   OH269828   1.081   5.318   6.175 -0.1788  0.8270  0.2857
16138TIP3    H169829   1.161   5.364   6.150 -0.6792  1.5992  0.0482
16138TIP3    H269830   1.103   5.274   6.256  0.6453  0.5935 -0.0554
16139TIP3   OH269831   2.726   2.486   1.349 -0.2034 -0.2089  0.6116
16139TIP3    H169832   2.667   2.436   1.406  0.1936 -0.2716  0.9826
16139TIP3    H269833   2.805   2.497   1.402 -0.4329  1.1856  0.6940
16140TIP3   OH269834   3.943   2.708  11.591 -0.3365  0.0965 -0.3839
16140TIP3    H169835   3.978   2.690  11.678 -2.2934  0.0167  0.4269
16140TIP3    H269836   3.912   2.798  11.595  1.3498  0.7969 -1.6707
16141TIP3   OH269837   4.943   0.272   3.900 -0.4745  0.4358  0.2935
16141TIP3    H169838   4.898   0.310   3.975 -1.4312 -1.6721  0.8461
16141TIP3    H269839   5.003   0.208   3.937  0.1426  0.4295 -0.6762
16142TIP3   OH269840   5.933   1.387  11.992  0.6231  0.3523 -0.2662
16142TIP3    H169841   5.983   1.341  11.925 -0.9229 -1.4916 -0.2464
16142TIP3    H269842   5.861   1.428  11.945  0.9308  1.1756 -0.0336
16143TIP3   OH269843   2.310   6.023  12.198  0.5795 -0.0330  0.2796
16143TIP3    H169844   2.305   6.050  12.107  2.1798  0.4871  0.3225
16143TIP3    H269845   2.231   5.970  12.211  0.5677 -0.5435 -1.5398
16144TIP3   OH269846   4.017   4.014  13.559 -0.1089  0.1738  0.0586
16144TIP3    H169847   4.103   4.048  13.586  0.3342  0.8039 -1.9458
16144TIP3    H269848   3.976   4.088  13.514 -1.1974 -0.5056 -0.0900
16145TIP3   OH269849   0.490   2.516  17.099  0.4263 -0.7447 -0.1046
16145TIP3    H169850   0.530   2.545  17.181  1.3187 -0.4948 -0.6245
16145TIP3    H269851   0.532   2.432  17.080  1.6452  0.0995 -1.2921
16146TIP3   OH269852   4.353   2.513  15.944 -0.0990  0.1002 -0.1088
16146TIP3    H169853   4.283   2.575  15.923  0.0249 -0.1289 -1.2014
16146TIP3    H269854   4.308   2.430  15.957 -0.2325  0.3351  1.0899
16147TIP3   OH269855   4.443   2.383  14.571 -0.2516 -0.4810  0.0263
16147TIP3    H169856   4.418   2.292  14.558  1.3827 -0.8273 -1.0223
16147TIP3    H269857   4.379   2.417  14.634 -1.5929 -2.0070 -0.4433
16148TIP3   OH269858   3.663   4.417   1.844  0.0861  0.1849 -0.4687
16148TIP3    H169859   3.573   4.394   1.822 -1.0835  1.1900  2.6396
16148TIP3    H269860   3.701   4.336   1.878 -0.4736  0.2878  0.4357
16149TIP3   OH269861   4.083   4.351   0.181 -0.5544 -0.3760  0.0483
16149TIP3    H169862   4.074   4.383   0.092  2.1701 -1.0056 -0.5493
16149TIP3    H269863   4.121   4.264   0.171  0.2125 -0.2864  1.8218
16150TIP3   OH269864   4.078   4.878  11.300 -0.2873  0.0414  0.0943
16150TIP3    H169865   4.157   4.930  11.316 -1.3757  1.6661  0.4430
16150TIP3    H269866   4.089   4.799  11.353  1.0888  0.2274  0.1223
16151TIP3   OH269867   2.320   1.071  12.366  0.4986 -0.0771 -0.1542
16151TIP3    H169868   2.319   1.143  12.303  0.8273  0.3597  0.3309
16151TIP3    H269869   2.372   1.104  12.440  2.4220 -1.5295 -0.7747
16152TIP3   OH269870   1.077   0.203  13.222  0.1855 -0.1096 -0.0862
16152TIP3    H169871   1.106   0.172  13.136  0.9393  1.6314 -0.4910
16152TIP3    H269872   1.149   0.256  13.255 -0.4430 -0.0348  1.2555
16153TIP3   OH269873   0.485   0.209   0.313 -0.3105  0.0438  0.9913
16153TIP3    H169874   0.408   0.197   0.368 -0.1758 -1.0672  0.9433
16153TIP3    H269875   0.555   0.164   0.359 -0.4432 -1.9585 -0.6416
16154TIP3   OH269876   4.958   4.944  13.859  0.4332  0.5091 -0.4921
16154TIP3    H169877   4.897   4.960  13.787  1.4283 -0.6552 -1.6442
16154TIP3    H269878   5.043   4.931  13.817  0.9115 -0.9586  0.8099
16155TIP3   OH269879   4.559   1.743  16.296 -0.9059 -0.5366  0.0279
16155TIP3    H169880   4.520   1.664  16.332 -1.0109 -0.1936  0.6839
16155TIP3    H269881   4.489   1.808  16.300 -1.0720 -0.6051 -1.2544
16156TIP3   OH269882   1.320   2.944  16.219  0.5377  0.0342 -0.0103
16156TIP3    H169883   1.410   2.913  16.220 -0.1247 -2.0668 -0.4354
16156TIP3    H269884   1.294   2.941  16.127  0.1114  0.8513  0.0802
16157TIP3   OH269885   1.234   3.930  16.097 -0.1567  0.0886  0.8368
16157TIP3    H169886   1.156   3.892  16.136 -0.7712  0.3523 -0.1160
16157TIP3    H269887   1.214   4.024  16.089  0.0674  0.0832  0.1593
16158TIP3   OH269888   2.489   4.450   2.858  0.2150  0.2740  0.2447
16158TIP3    H169889   2.563   4.477   2.803  0.6784 -1.4171 -0.0221
16158TIP3    H269890   2.480   4.520   2.922  0.4221  1.7234 -1.2605
16159TIP3   OH269891   4.160   1.487  12.834  0.2256  0.1952 -0.4001
16159TIP3    H169892   4.221   1.446  12.773  0.7974  0.1150  0.2118
16159TIP3    H269893   4.156   1.426  12.909 -0.3690  0.3485 -0.3008
16160TIP3   OH269894   5.808   1.698   2.178  0.8109  0.1260  0.0946
16160TIP3    H169895   5.712   1.706   2.178  0.6184 -1.3477  1.9376
16160TIP3    H269896   5.835   1.747   2.256  1.5192  0.2333 -0.2153
16161TIP3   OH269897   5.423   0.749  16.805 -0.3842  0.0808  0.2242
16161TIP3    H169898   5.410   0.834  16.848 -3.1615  1.0236 -2.1342
16161TIP3    H269899   5.348   0.696  16.833  1.3152 -1.6962  1.6642
16162TIP3   OH269900   2.337   4.472  14.478  0.1550  0.1345  0.4060
16162TIP3    H169901   2.301   4.558  14.456  0.4447  0.4737  1.1894
16162TIP3    H269902   2.328   4.420  14.398  0.0278  0.9102 -0.0921
16163TIP3   OH269903   2.939   2.779  15.411  0.0500 -0.0920  0.7698
16163TIP3    H169904   3.009   2.817  15.358  0.9330 -0.7881  1.4109
16163TIP3    H269905   2.945   2.824  15.496 -1.4415  1.1182  0.2853
16164TIP3   OH269906   3.654   5.219   4.278 -0.4884 -0.2976  0.3446
16164TIP3    H169907   3.670   5.212   4.373  0.3197 -0.1568  0.2248
16164TIP3    H269908   3.729   5.176   4.238 -0.9087 -0.4975 -0.2399
16165TIP3   OH269909   2.006   6.742  11.927  0.1080  0.3790  0.4390
16165TIP3    H169910   1.988   6.674  11.862 -0.7049  1.6730 -0.7552
16165TIP3    H269911   2.096   6.768  11.911  0.5331 -0.6267  1.1251
16166TIP3   OH269912   2.725   5.577   3.902 -0.8842  0.1344 -0.3365
16166TIP3    H169913   2.637   5.547   3.878 -1.1621  0.0198  0.7636
16166TIP3    H269914   2.784   5.510   3.868 -0.7647  2.0777 -4.6919
16167TIP3   OH269915   6.632   6.101  11.612 -0.5407  0.1333 -0.3370
16167TIP3    H169916   6.623   6.151  11.530  0.4161  2.3395  0.7972
16167TIP3    H269917   6.663   6.166  11.675  0.6563 -1.9327  1.3103
16168TIP3   OH269918   6.222   1.389   5.263 -0.0688 -0.1343  0.1916
16168TIP3    H169919   6.221   1.295   5.281  0.0591 -0.1156  0.2983
16168TIP3    H269920   6.171   1.399   5.183  1.7717 -0.5471 -1.0819
16169TIP3   OH269921   3.253   4.634   1.888 -0.0532  0.3056  0.2768
16169TIP3    H169922   3.204   4.554   1.865 -0.8957  0.9236 -0.1203
16169TIP3    H269923   3.336   4.601   1.923 -1.3345 -0.8591  2.4762
16170TIP3   OH269924   1.234   4.657   5.521  0.3721  0.0600  0.2528
16170TIP3    H169925   1.231   4.565   5.494  0.2818  0.3798 -0.9073
16170TIP3    H269926   1.326   4.681   5.512  0.1909  0.4236 -0.7010
16171TIP3   OH269927   1.823   6.438   3.833  0.6788  0.3471 -0.2078
16171TIP3    H169928   1.787   6.440   3.744  0.3729 -0.3162 -0.1054
16171TIP3    H269929   1.908   6.396   3.824  0.9546  0.9107 -0.2841
16172TIP3   OH269930   2.678   3.555  11.187 -0.1920 -0.5337 -0.0856
16172TIP3    H169931   2.725   3.472  11.186  0.0795 -0.3885  0.5387
16172TIP3    H269932   2.695   3.593  11.101  3.3718  0.9114  1.0628
16173TIP3   OH269933   2.734   6.483  14.225  0.4846  0.3203 -0.1669
16173TIP3    H169934   2.818   6.446  14.248  0.9076  1.2761 -0.1192
16173TIP3    H269935   2.711   6.541  14.298 -0.2169  0.0616 -0.1704
16174TIP3   OH269936   3.964   6.180  13.264 -0.0919  0.0104 -0.8009
16174TIP3    H169937   3.983   6.166  13.356 -0.5355  1.6348 -0.4455
16174TIP3    H269938   3.940   6.272  13.257  0.8815  0.1701 -2.7073
16175TIP3   OH269939   0.425   4.544   5.714 -0.2072  0.3544  0.5602
16175TIP3    H169940   0.409   4.461   5.670 -1.2040  0.2415  1.0916
16175TIP3    H269941   0.482   4.593   5.655 -0.0668 -0.4797 -0.0123
16176TIP3   OH269942   0.782   5.177   1.464 -0.1345 -0.4072 -0.5876
16176TIP3    H169943   0.799   5.102   1.407 -3.4040 -0.7200 -1.3419
16176TIP3    H269944   0.709   5.149   1.520  0.0408  1.4546  0.6675
16177TIP3   OH269945   2.353   6.407   0.227  0.1080  0.5456 -0.6782
16177TIP3    H169946   2.421   6.465   0.262  2.0147 -0.5328 -2.4086
16177TIP3    H269947   2.370   6.323   0.270 -0.7954  0.5055 -0.3838
16178TIP3   OH269948   1.390   2.334   5.754 -0.7536  0.1291 -0.0123
16178TIP3    H169949   1.345   2.348   5.837  0.1169  2.1938  0.1664
16178TIP3    H269950   1.320   2.332   5.689 -1.3477 -0.3120  0.6218
16179TIP3   OH269951   3.797   4.285   1.379 -0.1803 -0.2194 -0.0230
16179TIP3    H169952   3.880   4.241   1.360 -0.0878 -0.5948  1.1532
16179TIP3    H269953   3.816   4.378   1.368  0.5761 -0.2608  0.7982
16180TIP3   OH269954   2.545   6.200   0.090  0.2618  0.2544  0.2530
16180TIP3    H169955   2.591   6.243   0.162  0.4427 -0.5390  0.6315
16180TIP3    H269956   2.490   6.134   0.133 -0.4299  0.4830 -0.2690
16181TIP3   OH269957   5.469   1.281   5.359  0.3356  0.1448 -0.4308
16181TIP3    H169958   5.531   1.286   5.432  0.5247  1.8801 -0.6649
16181TIP3    H269959   5.440   1.189   5.358  1.4179 -0.2456  0.9000
16182TIP3   OH269960   2.014   3.429   0.663 -0.1720 -0.0852  0.4540
16182TIP3    H169961   1.943   3.374   0.695 -0.8849  0.1264 -0.7102
16182TIP3    H269962   2.087   3.368   0.648 -0.5112 -0.4939  0.4778
16183TIP3   OH269963   6.152   4.836  15.815 -0.4067 -0.5755  0.4012
16183TIP3    H169964   6.125   4.800  15.731 -0.4345 -1.5343  0.8045
16183TIP3    H269965   6.078   4.821  15.873  0.2546 -1.5282  1.0372
16184TIP3   OH269966   2.445   5.529  12.848  0.0199 -0.4409 -0.4269
16184TIP3    H169967   2.449   5.471  12.771  0.4042 -0.6686 -0.2368
16184TIP3    H269968   2.478   5.476  12.920 -0.7927 -0.3851  0.0032
16185TIP3   OH269969   1.861   5.564  11.173 -0.3707 -0.0451 -0.9760
16185TIP3    H169970   1.950   5.576  11.206 -0.7607  0.1161  0.0247
16185TIP3    H269971   1.854   5.626  11.100 -0.1002  0.8837 -0.2230
16186TIP3   OH269972   6.422   5.747   1.294 -0.1790 -0.0493  0.8601
16186TIP3    H169973   6.512   5.729   1.268 -0.3260  1.4195 -0.8724
16186TIP3    H269974   6.370   5.730   1.215 -0.8813  2.8883  0.5612
16187TIP3   OH269975   2.371   3.360  13.785  0.4542  0.0728 -0.2474
16187TIP3    H169976   2.421   3.376  13.865  1.4089  0.4706 -0.8978
16187TIP3    H269977   2.398   3.273  13.757 -1.0437 -0.7118  0.6694
16188TIP3   OH269978   0.202   5.796   0.910 -0.0720  0.3150  0.8494
16188TIP3    H169979   0.190   5.732   0.979 -1.1774 -1.0202 -0.5114
16188TIP3    H269980   0.272   5.854   0.942  2.9775 -3.1235  1.1059
16189TIP3   OH269981   2.162   3.314  12.051 -0.4260  0.2855  0.2541
16189TIP3    H169982   2.093   3.295  11.988  0.4350  0.4586 -0.7733
16189TIP3    H269983   2.156   3.408  12.066 -0.4498  0.2935  0.1943
16190TIP3   OH269984   3.262   1.712   2.556 -0.3518 -0.0144  0.9828
16190TIP3    H169985   3.207   1.651   2.507 -0.3148 -0.4636  1.4873
16190TIP3    H269986   3.201   1.759   2.612 -0.1785 -0.9678  2.0212
16191TIP3   OH269987   3.340   5.581   6.011 -0.2747 -0.2781  0.0075
16191TIP3    H169988   3.269   5.587   6.074  0.6465 -1.1280  1.1638
16191TIP3    H269989   3.298   5.590   5.926 -1.4962  1.3299  0.7308
16192TIP3   OH269990   4.558   1.978   2.283 -0.0266 -0.4389  0.2037
16192TIP3    H169991   4.605   1.900   2.311  0.2527 -0.3395  0.0124
16192TIP3    H269992   4.620   2.050   2.298 -0.7238 -0.0886  1.5847
16193TIP3   OH269993   0.132   0.232  16.629  0.0014  0.0045  0.0156
16193TIP3    H169994   0.079   0.213  16.707 -1.4298  1.5211 -0.5309
16193TIP3    H269995   0.141   0.148  16.585 -0.1109 -0.6733  1.2354
16194TIP3   OH269996   5.677   4.517   4.311  0.8541  0.0181 -0.1060
16194TIP3    H169997   5.590   4.499   4.274  0.2370 -1.0410  1.7642
16194TIP3    H269998   5.734   4.523   4.234 -0.7277  0.0018 -1.3405
16195TIP3   OH269999   2.069   0.914  16.509 -0.8398  0.1999 -0.0478
16195TIP3    H170000   2.009   0.967  16.562 -0.9648 -0.8323  0.8788
16195TIP3    H270001   2.133   0.977  16.475 -1.1215  0.9853  0.8270
16196TIP3   OH270002   0.442   6.106   3.058 -0.3375 -0.1485  0.5194
16196TIP3    H170003   0.392   6.024   3.057  0.1034 -0.4316 -1.0597
16196TIP3    H270004   0.469   6.118   2.967 -0.4686  1.8038  0.7005
16197TIP3   OH270005   4.477   1.359  15.738  0.2879 -0.2423 -0.4848
16197TIP3    H170006   4.539   1.287  15.753  0.2190 -0.2531 -0.2500
16197TIP3    H270007   4.529   1.427  15.696  0.2783 -0.5604 -1.0176
16198TIP3   OH270008   3.682   1.684  12.181 -1.1745 -0.1922  0.2889
16198TIP3    H170009   3.622   1.610  12.188 -0.6360 -0.5532  1.2357
16198TIP3    H270010   3.688   1.701  12.087 -2.3360 -0.4931  0.1513
16199TIP3   OH270011   1.187   5.435   3.604  0.2280  0.0684  0.4395
16199TIP3    H170012   1.208   5.502   3.670 -0.7149  1.0942 -0.2716
16199TIP3    H270013   1.268   5.427   3.553  0.0862  1.3830 -0.0482
16200TIP3   OH270014   4.815   1.204  11.236  0.2731  0.4918 -0.2966
16200TIP3    H170015   4.857   1.122  11.263 -1.5713 -0.3787  0.1667
16200TIP3    H270016   4.811   1.256  11.317 -0.3541  0.1746 -0.1146
16201TIP3   OH270017   5.673   6.554   2.355 -0.2752  0.1945 -0.4144
16201TIP3    H170018   5.763   6.568   2.326 -0.4983 -0.3228 -1.3847
16201TIP3    H270019   5.635   6.496   2.289 -1.4800  0.8446 -0.3194
16202TIP3   OH270020   3.625   6.155  14.966  0.7395 -0.2983 -0.3651
16202TIP3    H170021   3.603   6.062  14.975  0.5413 -0.1081  1.8503
16202TIP3    H270022   3.595   6.179  14.879  0.0207 -2.1104 -0.6670
16203TIP3   OH270023   2.732   2.324  15.120 -0.0660 -0.0383  0.0512
16203TIP3    H170024   2.697   2.279  15.043 -0.7128  0.4827  0.0252
16203TIP3    H270025   2.796   2.263  15.156 -0.5739 -0.7725 -0.2498
16204TIP3   OH270026   1.161   6.628   0.213  0.1721  0.7187  0.1548
16204TIP3    H170027   1.099   6.669   0.152 -0.8780  0.0870  0.7739
16204TIP3    H270028   1.128   6.539   0.223 -0.3982  1.1399  2.5725
16205TIP3   OH270029   2.916   1.875  12.542 -0.4820  0.1987  0.2349
16205TIP3    H170030   2.939   1.922  12.622 -0.3964 -1.1606  1.0422
16205TIP3    H270031   2.868   1.939  12.489  1.1839  1.7224  0.4864
16206TIP3   OH270032   5.556   2.377   0.893 -0.2032 -0.1510  0.0452
16206TIP3    H170033   5.571   2.436   0.966  0.3508  1.9602 -1.6466
16206TIP3    H270034   5.490   2.421   0.839 -1.0605 -1.9333 -0.4559
16207TIP3   OH270035   6.726   6.586  11.613  0.1849 -0.4701  0.1275
16207TIP3    H170036   6.759   6.660  11.562 -2.3909  0.7264  0.0308
16207TIP3    H270037   6.688   6.527  11.548  1.0733 -1.2896  0.3207
16208TIP3   OH270038   6.619   3.932   2.718  0.7306 -0.3526 -0.3231
16208TIP3    H170039   6.582   3.906   2.633  0.0416  2.3454 -0.9427
16208TIP3    H270040   6.706   3.967   2.697  1.7494 -2.2595  0.5115
16209TIP3   OH270041   5.693   3.727   3.530 -0.2823 -0.0769 -0.4031
16209TIP3    H170042   5.695   3.636   3.501  0.4804 -0.1902 -0.0413
16209TIP3    H270043   5.738   3.775   3.461  1.0437 -0.2688  0.2850
16210TIP3   OH270044   4.628   3.975   5.591 -0.3566  0.3636 -0.1341
16210TIP3    H170045   4.571   4.012   5.658  1.2806  0.1677  1.4625
16210TIP3    H270046   4.709   4.024   5.599  0.7946 -1.4355 -0.1046
16211TIP3   OH270047   2.563   1.309  17.027 -0.4667  0.3411 -0.2895
16211TIP3    H170048   2.564   1.395  16.985  1.6912  0.5099  0.0015
16211TIP3    H270049   2.472   1.281  17.021 -0.9691  2.0567 -1.5678
16212TIP3   OH270050   2.520   3.238   3.220 -0.3036  0.0780  0.1246
16212TIP3    H170051   2.582   3.213   3.151 -0.4844 -0.6163  0.2030
16212TIP3    H270052   2.434   3.226   3.180 -0.4715 -2.1655  1.0332
16213TIP3   OH270053   2.630   0.539   1.613  0.3488 -0.1168 -0.3110
16213TIP3    H170054   2.720   0.554   1.583  0.7464 -1.3095  0.2267
16213TIP3    H270055   2.613   0.448   1.590  0.0296 -0.5212  1.4624
16214TIP3   OH270056   0.005   6.340   6.356 -0.1373  0.7824 -0.2560
16214TIP3    H170057  -0.044   6.304   6.283  2.1189  0.8523 -1.9067
16214TIP3    H270058   0.035   6.264   6.405 -1.9996  0.7430  0.9330
16215TIP3   OH270059   3.160   1.771   3.915  0.2583  0.0021 -0.5765
16215TIP3    H170060   3.129   1.681   3.908  0.5984 -0.0348 -2.1841
16215TIP3    H270061   3.144   1.796   4.006 -2.3629 -0.7490 -0.7643
16216TIP3   OH270062   5.641   3.725   4.162  0.0805 -0.0065 -0.4477
16216TIP3    H170063   5.628   3.811   4.121 -1.0921 -0.2223 -0.5585
16216TIP3    H270064   5.716   3.688   4.116  0.8446  1.0991 -0.1457
16217TIP3   OH270065   6.637   5.753  14.081 -0.0949  0.1530  0.0269
16217TIP3    H170066   6.562   5.701  14.051 -0.9344  1.3461 -0.0104
16217TIP3    H270067   6.673   5.792  14.001 -1.4840  2.2168  0.3140
16218TIP3   OH270068   3.718   4.626   2.519 -0.3088  0.1795 -0.1293
16218TIP3    H170069   3.759   4.562   2.461 -1.1658  0.8658 -1.5447
16218TIP3    H270070   3.790   4.661   2.571  0.3590 -1.0309 -0.2179
16219TIP3   OH270071   0.654   0.831   1.270 -0.0157  0.6085 -0.0421
16219TIP3    H170072   0.593   0.897   1.237  1.3954  1.5600 -0.8372
16219TIP3    H270073   0.610   0.747   1.254 -1.2856  1.2808 -0.1901
16220TIP3   OH270074   1.470   3.921   0.153  0.1619 -0.4133 -0.4746
16220TIP3    H170075   1.484   3.961   0.067  1.2798  2.6576  0.9573
16220TIP3    H270076   1.529   3.970   0.211 -2.6904 -0.2510  2.5631
16221TIP3   OH270077   3.549   2.234   4.444 -0.5688  0.0684 -0.4618
16221TIP3    H170078   3.454   2.238   4.432 -0.6651 -1.2652 -0.2878
16221TIP3    H270079   3.577   2.161   4.389  0.6804  1.7900 -2.2117
16222TIP3   OH270080   6.604   5.989  12.365  0.3660  0.7146  0.6120
16222TIP3    H170081   6.629   5.978  12.273  1.9444  1.0722  0.9649
16222TIP3    H270082   6.574   5.902  12.393  0.7295  0.3897 -0.0008
16223TIP3   OH270083   0.984   1.184  16.518  0.0209 -0.0857  1.0834
16223TIP3    H170084   1.042   1.109  16.500 -0.9522 -0.8391  1.0024
16223TIP3    H270085   0.926   1.153  16.587 -0.5125  0.5425  0.9271
16224TIP3   OH270086   2.167   1.744  13.100  0.1820  0.2147 -0.1198
16224TIP3    H170087   2.206   1.663  13.067 -1.2914 -1.0442  1.0655
16224TIP3    H270088   2.073   1.734  13.083 -0.0218  1.7204 -0.0088
16225TIP3   OH270089   5.720   2.483  15.712  0.3628  0.7729  1.1724
16225TIP3    H170090   5.740   2.575  15.697  0.5044  0.8376  1.7474
16225TIP3    H270091   5.744   2.440  15.629 -0.4837  1.3594  0.6024
16226TIP3   OH270092   5.589   4.184   1.673  0.4081 -0.2801  0.1113
16226TIP3    H170093   5.677   4.215   1.655  0.3806 -0.8381 -1.0500
16226TIP3    H270094   5.538   4.209   1.595 -0.0005 -1.6804 -0.1005
16227TIP3   OH270095   6.045   0.344   1.009  0.1267 -0.3760 -0.1686
16227TIP3    H170096   6.115   0.280   1.020  0.2015 -0.4202 -0.8446
16227TIP3    H270097   5.966   0.290   1.000  0.0111 -0.3290  0.4934
16228TIP3   OH270098   1.796   2.679  15.272 -0.7043  0.2787 -0.4165
16228TIP3    H170099   1.707   2.675  15.307 -0.1853 -1.1697  0.8669
16228TIP3    H270100   1.848   2.715  15.344  0.0637 -0.8280 -0.3949
16229TIP3   OH270101   6.539   0.962   4.518  0.1956  0.1745 -0.5266
16229TIP3    H170102   6.513   0.870   4.531 -1.3769  0.5841 -0.5395
16229TIP3    H270103   6.519   0.980   4.426  0.9623  0.4095 -0.6577
16230TIP3   OH270104   0.624   6.639  16.561 -0.0052 -0.3686  0.3019
16230TIP3    H170105   0.606   6.729  16.587  0.0558 -0.1458 -0.4267
16230TIP3    H270106   0.548   6.614  16.509 -1.0372 -1.4469  2.2141
16231TIP3   OH270107   3.495   6.602  16.240  0.2940 -0.0476  0.1452
16231TIP3    H170108   3.527   6.513  16.256  0.6068  0.4240  2.3806
16231TIP3    H270109   3.524   6.653  16.316 -2.5283  1.2922  0.4427
16232TIP3   OH270110   2.821   5.127  12.228  0.5036 -0.4973  0.1128
16232TIP3    H170111   2.739   5.161  12.191  0.3581  0.6956  1.4347
16232TIP3    H270112   2.871   5.098  12.152 -0.1815  0.9474 -0.9476
16233TIP3   OH270113   6.166   2.175   3.666 -0.0065 -0.1416 -0.3881
16233TIP3    H170114   6.247   2.125   3.660 -0.2772 -0.5263 -0.8892
16233TIP3    H270115   6.097   2.109   3.677 -0.4475  0.0468 -1.7895
16234TIP3   OH270116   4.468   3.279   3.562 -0.2243 -0.1219 -0.4014
16234TIP3    H170117   4.552   3.234   3.572  0.6995  1.6633  0.3960
16234TIP3    H270118   4.488   3.357   3.511 -2.1244 -1.4029 -3.3814
16235TIP3   OH270119   1.898   1.047  14.618  0.3919  0.1092 -0.4158
16235TIP3    H170120   1.904   0.969  14.673 -0.6323  1.5053  1.8370
16235TIP3    H270121   1.812   1.084  14.637  1.3320  2.4774 -0.3577
16236TIP3   OH270122   3.369   5.199   3.553 -0.3683 -0.7763 -0.4103
16236TIP3    H170123   3.309   5.219   3.481 -0.4005 -0.5799 -0.3278
16236TIP3    H270124   3.328   5.125   3.599 -0.5914 -0.5816 -0.2989
16237TIP3   OH270125   3.072   1.415  10.658  0.2799  0.2545 -0.5786
16237TIP3    H170126   3.157   1.414  10.702 -1.3530  0.7820  2.9205
16237TIP3    H270127   3.055   1.323  10.638  0.6758 -0.1655  0.9001
16238TIP3   OH270128   3.173   6.175   3.493  0.1216  0.1866  0.2736
16238TIP3    H170129   3.110   6.244   3.514 -0.3313 -0.4348  1.0175
16238TIP3    H270130   3.124   6.094   3.505  0.9737 -0.2986  0.5327
16239TIP3   OH270131   4.297   4.613  12.078 -0.2075  0.3802  0.4272
16239TIP3    H170132   4.213   4.565  12.079 -0.1190  0.1759 -0.6941
16239TIP3    H270133   4.328   4.605  11.988  0.5215  1.3402  0.5777
16240TIP3   OH270134   2.929   5.534   5.623  0.1250 -0.3868  0.0727
16240TIP3    H170135   2.936   5.590   5.545 -1.8066  1.1696  0.9275
16240TIP3    H270136   2.858   5.474   5.603 -1.5963  1.1705  1.2197
16241TIP3   OH270137   6.363   3.845   3.298  0.0173 -0.3406  0.0263
16241TIP3    H170138   6.401   3.898   3.369  0.6692 -1.0118  0.1975
16241TIP3    H270139   6.296   3.793   3.340 -2.0332  1.7217 -0.4907
16242TIP3   OH270140   5.181   0.794  15.877  0.1024  0.5141  0.9561
16242TIP3    H170141   5.140   0.844  15.947 -1.3808  0.7544 -0.0447
16242TIP3    H270142   5.237   0.857  15.832  0.7070  0.4682  1.6242
16243TIP3   OH270143   0.697   3.830  11.649 -0.3906  0.3915 -0.3583
16243TIP3    H170144   0.774   3.825  11.592 -0.2963 -0.0684 -0.1943
16243TIP3    H270145   0.714   3.905  11.706  0.9835 -0.9987  1.1656
16244TIP3   OH270146   5.675   2.531   5.218  0.4814 -0.2350 -0.1476
16244TIP3    H170147   5.765   2.521   5.251  0.5043  0.6427  0.0882
16244TIP3    H270148   5.635   2.594   5.279 -0.0580 -0.0351 -0.7041
16245TIP3   OH270149   2.614   5.086  14.450  0.2958 -0.1107 -0.3255
16245TIP3    H170150   2.575   5.171  14.429  1.3616  0.2291 -1.0138
16245TIP3    H270151   2.693   5.082  14.397  0.2969 -1.5200 -0.2623
16246TIP3   OH270152   0.778   4.510   6.186 -0.3365 -0.2271  0.0025
16246TIP3    H170153   0.864   4.531   6.151 -0.7626 -1.0219 -1.6200
16246TIP3    H270154   0.790   4.510   6.281  2.0101 -2.6128 -0.1994
16247TIP3   OH270155   1.716   5.346  12.828  1.1548  0.3263  0.1185
16247TIP3    H170156   1.760   5.266  12.799  0.2889 -0.0863 -0.0761
16247TIP3    H270157   1.707   5.335  12.923  0.7568  0.0568  0.0478
16248TIP3   OH270158   2.775   6.160  16.768 -0.4589  0.0549 -0.0216
16248TIP3    H170159   2.734   6.075  16.785 -0.0736 -0.2289 -0.4801
16248TIP3    H270160   2.864   6.151  16.804 -0.7472  0.6189  0.8550
16249TIP3   OH270161   1.945   5.971  17.099  0.0824  0.1405  0.1396
16249TIP3    H170162   1.899   5.976  17.015 -0.0693 -1.0132  0.1407
16249TIP3    H270163   2.035   5.996  17.078  0.2166 -0.8639 -0.5234
16250TIP3   OH270164   2.601   4.559  14.023  0.4696 -0.0436  0.3623
16250TIP3    H170165   2.593   4.549  14.118  0.2650  1.4679  0.5158
16250TIP3    H270166   2.694   4.544  14.006  0.7148  0.7633  0.9447
16251TIP3   OH270167   3.302   1.804   3.642 -0.3843 -0.2482 -0.5076
16251TIP3    H170168   3.318   1.827   3.734  1.3538  0.6070 -0.9812
16251TIP3    H270169   3.209   1.821   3.629 -0.3124  1.2948  0.6617
16252TIP3   OH270170   0.961   2.419  17.235  0.5909  0.3686 -0.4312
16252TIP3    H170171   0.898   2.466  17.179 -0.6557 -0.6945  0.0153
16252TIP3    H270172   0.906   2.371  17.297  1.8731 -0.4352  0.1239
16253TIP3   OH270173   6.518   0.392   3.251  0.1228  0.0942  0.3266
16253TIP3    H170174   6.470   0.426   3.176 -0.4567 -0.5447  0.4019
16253TIP3    H270175   6.561   0.313   3.218 -0.6586 -0.5503  0.8308
16254TIP3   OH270176   5.091   2.269  14.490 -0.5362 -0.9884  0.4950
16254TIP3    H170177   5.114   2.331  14.559 -1.4406  0.1781 -0.2314
16254TIP3    H270178   5.150   2.290  14.418 -0.1131 -1.6986  0.6269
16255TIP3   OH270179   3.331   3.821  14.591 -0.2521 -0.3669  0.6166
16255TIP3    H170180   3.343   3.860  14.504  0.2298 -1.1881  0.3069
16255TIP3    H270181   3.412   3.839  14.637  1.4759 -3.9446 -0.7086
16256TIP3   OH270182   4.986   1.021  15.277  0.2412  0.1147 -0.8475
16256TIP3    H170183   4.995   0.934  15.239 -0.0947  0.2018 -1.1331
16256TIP3    H270184   5.042   1.077  15.223 -1.1967  0.4783 -2.0338
16257TIP3   OH270185   3.749   0.610   4.883 -0.1672  0.0297  0.3734
16257TIP3    H170186   3.730   0.581   4.972 -1.0230  0.7444  0.4339
16257TIP3    H270187   3.843   0.628   4.883 -0.1009 -0.2776  1.0355
16258TIP3   OH270188   3.276   3.813   5.078 -0.1494 -0.3953  0.3152
16258TIP3    H170189   3.335   3.745   5.109  0.6534  0.4257  0.6552
16258TIP3    H270190   3.195   3.799   5.126  0.3219 -0.5488  1.0875
16259TIP3   OH270191   3.986   1.288   0.057  0.0708 -0.4182  0.1119
16259TIP3    H170192   3.915   1.329   0.009 -0.0575 -1.2882 -0.4597
16259TIP3    H270193   4.065   1.312   0.009 -0.0348 -1.0931 -0.4110
16260TIP3   OH270194   1.194   3.638  14.816  0.1084 -0.6826 -0.2409
16260TIP3    H170195   1.129   3.708  14.824 -0.1072 -0.9542  0.4469
16260TIP3    H270196   1.276   3.685  14.800 -0.4302 -0.3913 -2.5003
16261TIP3   OH270197   5.165   2.304   6.347  0.0303 -0.5003 -0.6409
16261TIP3    H170198   5.253   2.276   6.322  1.7635  1.9882  2.0469
16261TIP3    H270199   5.133   2.235   6.405  1.9451  0.3221  1.5380
16262TIP3   OH270200   0.536   1.668  12.469 -0.9033  0.0484 -0.0614
16262TIP3    H170201   0.600   1.726  12.510  1.9030 -2.1398 -1.0186
16262TIP3    H270202   0.547   1.685  12.375  0.7166 -2.5284 -0.4453
16263TIP3   OH270203   4.131   1.814  14.410  0.0731  0.2400  0.2420
16263TIP3    H170204   4.086   1.791  14.328  0.9079  2.1868 -0.8197
16263TIP3    H270205   4.166   1.731  14.442 -2.2703 -0.9649 -0.0819
16264TIP3   OH270206   4.941   6.675  17.339 -0.0189  0.1805  0.1757
16264TIP3    H170207   4.905   6.764  17.342  0.2309  0.3040 -0.3714
16264TIP3    H270208   4.957   6.653  17.430  0.7138  1.0303  0.2702
16265TIP3   OH270209   0.441   6.538  13.734  1.1354 -0.0161 -0.4621
16265TIP3    H170210   0.376   6.595  13.774 -0.2746 -1.0288 -1.2538
16265TIP3    H270211   0.402   6.510  13.652  2.4464 -0.9166 -0.8105
16266TIP3   OH270212   4.172   2.701   3.371  0.8379 -0.6391  0.0583
16266TIP3    H170213   4.080   2.686   3.392  0.9111 -0.0074  0.8567
16266TIP3    H270214   4.173   2.722   3.278  0.1063 -0.0538  0.1834
16267TIP3   OH270215   2.623   3.295   0.076  0.3948 -0.0650  0.4124
16267TIP3    H170216   2.589   3.283  -0.012  0.8278  1.4727 -0.0009
16267TIP3    H270217   2.705   3.245   0.078  0.5048  0.0888 -0.1441
16268TIP3   OH270218   1.178   4.144  14.029 -0.1998 -0.2859  0.2703
16268TIP3    H170219   1.131   4.183  14.103  1.0228  1.9094 -0.0402
16268TIP3    H270220   1.154   4.199  13.954  1.1636 -0.4567 -0.3076
16269TIP3   OH270221   1.783   6.747  16.159  0.0993 -0.1313 -0.2758
16269TIP3    H170222   1.689   6.734  16.170  0.1591  0.0457  0.5533
16269TIP3    H270223   1.817   6.749  16.249  1.3927 -3.6394 -0.5438
16270TIP3   OH270224   6.694   1.769  15.728 -0.4548 -0.2546  0.0064
16270TIP3    H170225   6.689   1.851  15.679  0.9032 -0.2270 -0.1347
16270TIP3    H270226   6.661   1.703  15.667 -0.7786  0.0718 -0.1769
16271TIP3   OH270227   6.190   1.140   2.384 -0.4276  0.2010  0.9097
16271TIP3    H170228   6.228   1.227   2.370  0.1470 -0.1317  0.3867
16271TIP3    H270229   6.223   1.113   2.470  1.6139 -0.6274 -0.0763
16272TIP3   OH270230   1.084   0.963  14.694 -0.4209 -0.0012  0.1955
16272TIP3    H170231   0.996   0.953  14.656 -0.9732  1.9404  0.8774
16272TIP3    H270232   1.129   1.022  14.634 -0.1981  0.4425  0.7937
16273TIP3   OH270233   4.076   4.532  14.108  0.1348  0.4393 -0.0755
16273TIP3    H170234   4.171   4.528  14.099  0.0864 -1.3539 -0.0985
16273TIP3    H270235   4.061   4.598  14.176  1.4737 -0.2898  0.9845
16274TIP3   OH270236   4.042   3.292  15.967  0.5342 -0.2912  0.0739
16274TIP3    H170237   4.019   3.372  16.013 -0.7550  0.5674 -1.9227
16274TIP3    H270238   4.096   3.243  16.028 -0.1405  1.2839  2.0139
16275TIP3   OH270239   2.430   2.570  12.574  0.3757  0.3211 -0.0149
16275TIP3    H170240   2.400   2.521  12.498  0.0808 -0.3328  0.5135
16275TIP3    H270241   2.422   2.662  12.549 -0.1382  0.1144 -0.6076
16276TIP3   OH270242   3.660   3.856  12.419  0.3129 -0.1428  0.2147
16276TIP3    H170243   3.568   3.882  12.414  0.5331  0.5692 -0.2563
16276TIP3    H270244   3.663   3.769  12.379  0.0515  0.3767 -0.9735
16277TIP3   OH270245   1.161   2.332  12.995 -0.1748 -0.1849 -0.3343
16277TIP3    H170246   1.244   2.345  12.950 -0.5387 -0.6286 -1.1628
16277TIP3    H270247   1.167   2.244  13.033 -0.8594 -0.8776 -1.7624
16278TIP3   OH270248   2.029   4.226  11.678  0.3803 -0.1326  0.7449
16278TIP3    H170249   2.112   4.195  11.712  0.4868 -2.0567 -1.0722
16278TIP3    H270250   2.049   4.313  11.643  1.2914 -0.0186  1.5181
16279TIP3   OH270251   2.358   5.791  13.458 -0.3308  0.1877  0.2898
16279TIP3    H170252   2.364   5.857  13.528 -2.1561 -1.5782  2.2446
16279TIP3    H270253   2.385   5.838  13.379  3.3079  1.9630  2.2865
16280TIP3   OH270254   6.732   1.723   2.481 -0.4345  0.3873  0.2432
16280TIP3    H170255   6.743   1.815   2.504  1.3205  0.2302  0.1928
16280TIP3    H270256   6.816   1.683   2.503 -0.8890 -1.0328 -0.4969
16281TIP3   OH270257   3.370   2.151  15.172  0.0522 -0.0236  0.8520
16281TIP3    H170258   3.426   2.223  15.202  0.2244  0.0695  0.3342
16281TIP3    H270259   3.369   2.161  15.076 -0.9252  0.0260  0.8597
16282TIP3   OH270260   2.075   1.113   3.247  0.1700  0.5239  0.1614
16282TIP3    H170261   2.117   1.027   3.248 -0.8755 -0.0457  2.4136
16282TIP3    H270262   1.982   1.094   3.242 -0.2966  1.2686  3.4762
16283TIP3   OH270263   4.841   2.494  13.966  0.3125 -0.2452 -0.0499
16283TIP3    H170264   4.818   2.525  13.878  0.1410 -1.1882 -0.3533
16283TIP3    H270265   4.918   2.439  13.952 -0.0426 -0.8472  0.3079
16284TIP3   OH270266   3.473   0.752  15.206  0.6026 -0.1637  0.0883
16284TIP3    H170267   3.458   0.690  15.277 -0.8176 -0.7648 -0.7076
16284TIP3    H270268   3.540   0.710  15.151 -0.2948 -0.9674 -0.4038
16285TIP3   OH270269   0.099   3.590  15.199  0.1977  0.4404  0.2006
16285TIP3    H170270   0.153   3.611  15.122  2.0651  0.0795  1.3557
16285TIP3    H270271   0.038   3.664  15.206 -1.1960 -0.3151 -2.5645
16286TIP3   OH270272   1.059   6.734  15.451  0.0121  0.0612  0.0199
16286TIP3    H170273   1.146   6.716  15.415  0.2768  0.6164  0.3579
16286TIP3    H270274   1.008   6.656  15.431  0.8092 -0.6043  0.5115
16287TIP3   OH270275   2.063   1.559  14.156 -0.3855  0.4814  0.3416
16287TIP3    H170276   2.069   1.536  14.064 -0.4346  0.6446  0.2972
16287TIP3    H270277   2.141   1.520  14.196  1.1960  2.8193 -0.2575
16288TIP3   OH270278   3.880   3.915  12.559  0.0062  0.2015 -0.1561
16288TIP3    H170279   3.801   3.904  12.507 -1.5122  2.4677  1.4907
16288TIP3    H270280   3.910   3.826  12.576 -3.2541 -0.8766  0.6591
16289TIP3   OH270281   6.506   2.369   2.740 -0.1161 -0.0337  0.2685
16289TIP3    H170282   6.534   2.384   2.830  1.7762  0.4597 -0.3511
16289TIP3    H270283   6.436   2.433   2.726 -0.4939 -0.1724  1.4019
16290TIP3   OH270284   4.022   4.493   1.141 -0.0407 -0.5037 -0.2906
16290TIP3    H170285   4.008   4.504   1.235 -0.1970  0.5819 -0.4215
16290TIP3    H270286   3.990   4.405   1.121  1.0779 -1.2100  0.8692
16291TIP3   OH270287   1.237   3.984   0.987 -0.1469 -0.2605 -0.1665
16291TIP3    H170288   1.154   3.936   0.991  0.1779 -0.9069 -0.8913
16291TIP3    H270289   1.226   4.056   1.049 -1.1136 -0.5497  0.0178
16292TIP3   OH270290   2.461   1.962  15.827  0.3518  0.0954  0.1677
16292TIP3    H170291   2.408   2.042  15.824  1.4662  0.9159  1.1910
16292TIP3    H270292   2.398   1.892  15.844 -0.7001  0.6812 -1.1118
16293TIP3   OH270293   6.385   3.087  11.711  0.3240  0.2666  0.3869
16293TIP3    H170294   6.376   3.126  11.624 -2.5562 -0.1320  0.4310
16293TIP3    H270295   6.350   3.154  11.771 -0.6401 -0.6539  0.8897
16294TIP3   OH270296   2.570   1.451   0.191 -0.4145 -0.0848  0.4200
16294TIP3    H170297   2.649   1.488   0.232 -2.0461  0.7808  2.9912
16294TIP3    H270298   2.602   1.414   0.109  2.1960  2.6894 -0.0093
16295TIP3   OH270299   1.649   4.328   5.954 -0.2497 -0.4852  0.0108
16295TIP3    H170300   1.602   4.263   5.901  0.6576 -2.1109  1.0923
16295TIP3    H270301   1.601   4.330   6.037  0.3239 -0.5384  0.3459
16296TIP3   OH270302   5.260   6.499  12.066 -0.4590 -0.3115  0.1566
16296TIP3    H170303   5.187   6.472  12.122 -1.3253  2.0070  0.2489
16296TIP3    H270304   5.334   6.509  12.126 -0.9090  0.4070  0.5969
16297TIP3   OH270305   3.932   5.569   2.453  0.4859 -0.1228  0.0845
16297TIP3    H170306   3.853   5.558   2.400 -1.2622 -1.7038  2.7559
16297TIP3    H270307   3.980   5.640   2.411 -1.2700 -0.5598 -2.9024
16298TIP3   OH270308   0.308   5.740  11.401 -0.3885 -0.3737  0.2915
16298TIP3    H170309   0.331   5.722  11.310  0.5647  1.1659  0.1947
16298TIP3    H270310   0.219   5.775  11.397  0.1054  0.8954 -0.2245
16299TIP3   OH270311   5.110   2.811  15.906 -0.8969  0.3159 -0.7022
16299TIP3    H170312   5.095   2.718  15.922 -0.7211  0.3150 -0.5339
16299TIP3    H270313   5.118   2.849  15.993 -0.7550  0.4514 -0.7737
16300TIP3   OH270314   3.063   3.643   2.684 -0.4500  0.4578 -0.1262
16300TIP3    H170315   3.073   3.548   2.679 -1.6305  0.2799  0.4876
16300TIP3    H270316   3.147   3.674   2.718  0.1588 -0.2957 -0.8916
16301TIP3   OH270317   3.163   2.534   0.102 -0.2169  0.4322  0.3710
16301TIP3    H170318   3.205   2.595   0.163  1.3462 -0.4026  0.1906
16301TIP3    H270319   3.204   2.554   0.018 -0.3463 -0.2573  0.1422
16302TIP3   OH270320   0.671   4.428   1.564 -0.0640  0.1347  0.1344
16302TIP3    H170321   0.690   4.428   1.658 -1.4203 -0.1925  0.4354
16302TIP3    H270322   0.632   4.514   1.548 -2.6842 -0.9016  0.5402
16303TIP3   OH270323   2.641   3.004  13.029 -0.3560 -0.0492  0.9160
16303TIP3    H170324   2.676   3.082  12.987 -0.6128  0.4259  1.5700
16303TIP3    H270325   2.555   3.031  13.061 -1.5535 -1.2891 -1.0000
16304TIP3   OH270326   3.506   3.755  17.156 -0.4110 -0.1676 -0.1320
16304TIP3    H170327   3.450   3.685  17.122 -2.1781  1.4151 -0.6813
16304TIP3    H270328   3.461   3.786  17.235 -0.0374  0.7729 -0.2681
16305TIP3   OH270329   2.660   3.567   4.125  0.0070 -0.1514 -0.1121
16305TIP3    H170330   2.615   3.570   4.210  0.8824 -1.9994  0.4689
16305TIP3    H270331   2.724   3.497   4.134  0.6388  0.1054 -2.0747
16306TIP3   OH270332   4.719   5.938  12.627 -0.3792  0.0433 -0.2377
16306TIP3    H170333   4.750   5.918  12.538  0.7751 -2.1998  0.6079
16306TIP3    H270334   4.654   6.007  12.614  0.2313  0.2534 -2.7586
16307TIP3   OH270335   1.306   4.042  12.313  0.2618  0.3164  0.5824
16307TIP3    H170336   1.217   4.018  12.339 -0.2282  3.0680  1.8250
16307TIP3    H270337   1.296   4.082  12.227  0.7184 -1.5122 -0.3756
16308TIP3   OH270338   5.430   2.772   1.646 -0.0718 -0.3117 -0.0193
16308TIP3    H170339   5.408   2.696   1.592 -0.1151 -0.2044 -0.1534
16308TIP3    H270340   5.510   2.808   1.607 -0.4342  0.1147 -0.3706
16309TIP3   OH270341   3.308   0.938   1.636 -0.0867 -0.4666  0.1562
16309TIP3    H170342   3.368   1.005   1.668 -1.3762  0.0524  1.6399
16309TIP3    H270343   3.260   0.981   1.565 -0.6657  0.1093  0.8731
16310TIP3   OH270344   5.566   4.262   0.233  0.3985 -0.6726  0.1894
16310TIP3    H170345   5.545   4.206   0.308 -0.3324 -0.9608 -0.2214
16310TIP3    H270346   5.607   4.339   0.272 -1.2671 -0.1655  1.0218
16311TIP3   OH270347   4.711   1.292   2.846  0.4015  0.2939  0.4320
16311TIP3    H170348   4.641   1.237   2.882  0.9282  0.6423  2.0608
16311TIP3    H270349   4.665   1.354   2.789 -0.5449  0.0821  0.9334
16312TIP3   OH270350   5.840   3.226   5.671  0.5195  0.3052 -0.0583
16312TIP3    H170351   5.874   3.147   5.629  1.2711  0.3636  0.4244
16312TIP3    H270352   5.914   3.262   5.719  0.1218  1.1777 -0.0707
16313TIP3   OH270353   5.445   5.603  13.458 -0.1204  0.0614 -0.0575
16313TIP3    H170354   5.489   5.548  13.523  0.3097 -0.4758 -0.7828
16313TIP3    H270355   5.495   5.684  13.457 -1.0467  0.6859  1.3680
16314TIP3   OH270356   5.559   1.071  12.578 -0.0606  0.3089 -0.5207
16314TIP3    H170357   5.552   1.142  12.514  1.8279  1.3584  0.3312
16314TIP3    H270358   5.640   1.026  12.556  1.0086  1.1141  1.4206
16315TIP3   OH270359   1.653   6.330   5.767  0.2661  0.2886 -0.0760
16315TIP3    H170360   1.726   6.392   5.771  0.1960  0.4986 -1.5046
16315TIP3    H270361   1.612   6.336   5.853  0.1026  2.4079 -0.2491
16316TIP3   OH270362   5.981   3.844   5.578 -0.2892 -0.1265 -0.2978
16316TIP3    H170363   5.987   3.749   5.587 -0.1868 -0.0266  0.8272
16316TIP3    H270364   6.071   3.875   5.584 -0.3943  0.0993  0.2064
16317TIP3   OH270365   4.190   1.652   1.744  0.0797 -0.1511 -0.0656
16317TIP3    H170366   4.202   1.696   1.828  0.9097 -2.2533  1.0018
16317TIP3    H270367   4.096   1.657   1.728  0.1004  1.6336  0.1836
16318TIP3   OH270368   3.789   5.419  13.467  0.7208  0.4169 -0.2919
16318TIP3    H170369   3.704   5.425  13.511  0.4982 -1.3612 -0.3848
16318TIP3    H270370   3.800   5.325  13.449  2.8183  0.5791 -0.0872
16319TIP3   OH270371   4.656   5.646   5.658 -0.4816  0.5091 -0.6006
16319TIP3    H170372   4.746   5.611   5.654 -0.3843  0.7613 -0.6360
16319TIP3    H270373   4.615   5.614   5.578  0.2707  2.2722 -1.7627
16320TIP3   OH270374   1.881   3.018   4.923 -0.2609  0.8071 -0.5193
16320TIP3    H170375   1.933   2.970   4.858 -0.5960 -1.0487  0.5319
16320TIP3    H270376   1.790   3.005   4.895 -0.3630  0.7165 -0.1452
16321TIP3   OH270377   0.920   2.023  12.617  0.0996 -0.3443  0.1761
16321TIP3    H170378   0.940   2.116  12.606 -0.5203 -0.4377 -2.4744
16321TIP3    H270379   0.996   1.978  12.581 -1.2458 -0.7451 -2.4292
16322TIP3   OH270380   2.933   6.554  10.939 -0.5415 -0.5530  0.0162
16322TIP3    H170381   2.890   6.470  10.955 -0.6966 -0.4921 -0.0812
16322TIP3    H270382   2.878   6.618  10.984  0.0421 -0.6030  0.8174
16323TIP3   OH270383   3.885   4.916  16.566 -0.3095 -0.3483 -0.0923
16323TIP3    H170384   3.866   4.961  16.648 -0.2393 -1.5284  0.5957
16323TIP3    H270385   3.884   4.985  16.500 -1.8353  0.4245  0.6740
16324TIP3   OH270386   4.491   1.199   3.145  0.2009 -0.0848  0.6199
16324TIP3    H170387   4.568   1.167   3.194  0.2128  0.4998  0.9873
16324TIP3    H270388   4.522   1.277   3.100  0.3957 -1.0039 -0.9393
16325TIP3   OH270389   6.415   3.600  16.857 -0.3615 -0.3173  0.2006
16325TIP3    H170390   6.384   3.523  16.905 -0.7702  0.0597  0.5543
16325TIP3    H270391   6.335   3.650  16.838 -0.1611 -0.2633 -0.5326
16326TIP3   OH270392   2.265   5.305  13.930 -0.2732  0.9779  0.2617
16326TIP3    H170393   2.331   5.237  13.941 -1.7514 -0.6669 -0.5330
16326TIP3    H270394   2.222   5.283  13.847 -0.7181  2.9797 -0.0904
16327TIP3   OH270395   1.233   2.632   4.704 -0.1903  0.1964  0.8338
16327TIP3    H170396   1.193   2.556   4.661 -0.6975 -0.1076  1.8004
16327TIP3    H270397   1.271   2.683   4.633 -2.0583  0.3548 -0.1137
16328TIP3   OH270398   5.238   2.926   2.680 -0.1696 -0.0846 -0.1907
16328TIP3    H170399   5.299   2.916   2.753  0.2497  0.6638 -0.4215
16328TIP3    H270400   5.156   2.890   2.712  0.1654 -0.3037  0.4390
16329TIP3   OH270401   4.442   4.526   1.635  0.3510 -0.3083 -0.0131
16329TIP3    H170402   4.357   4.562   1.610  0.1494 -1.5678 -1.2500
16329TIP3    H270403   4.506   4.577   1.586  0.1840 -0.4999 -0.4326
16330TIP3   OH270404   3.638   1.912  17.043  0.1339  0.2869  0.4837
16330TIP3    H170405   3.609   1.986  17.096  0.9338  0.4954  0.6453
16330TIP3    H270406   3.673   1.952  16.963 -0.4344  0.0160  0.0953
16331TIP3   OH270407   0.257   3.760   0.670 -0.1403 -0.3588  0.7524
16331TIP3    H170408   0.218   3.806   0.744 -2.7036 -1.0671 -0.0474
16331TIP3    H270409   0.200   3.685   0.656  1.4691 -1.3875 -0.6776
16332TIP3   OH270410   3.696   3.670  11.783 -0.8732  0.4071 -0.6607
16332TIP3    H170411   3.765   3.722  11.825 -0.8664  0.5201 -0.8131
16332TIP3    H270412   3.739   3.626  11.710 -0.4690 -1.1573  0.4559
16333TIP3   OH270413   3.946   2.137  11.202 -0.8018  0.1153  0.0323
16333TIP3    H170414   3.861   2.179  11.213 -1.0428  0.2176 -1.8613
16333TIP3    H270415   3.959   2.134  11.107  1.1867 -0.1474  0.2663
16334TIP3   OH270416   5.376   4.851  14.321  0.3920  1.0130  0.2678
16334TIP3    H170417   5.402   4.822  14.409  1.8251 -4.3917 -1.5706
16334TIP3    H270418   5.290   4.812  14.308  0.0925  1.9592 -0.7348
16335TIP3   OH270419   4.836   0.110   4.839 -0.6833 -0.1958 -0.2664
16335TIP3    H170420   4.861   0.134   4.928 -0.3367 -0.3121 -0.3303
16335TIP3    H270421   4.893   0.162   4.782  0.3420 -1.4074 -0.4029
16336TIP3   OH270422   4.664   5.537   5.392  0.4501 -0.1110 -0.0942
16336TIP3    H170423   4.740   5.560   5.339  0.7097  0.1354  0.3824
16336TIP3    H270424   4.590   5.576   5.346  0.8318  1.3277  0.4652
16337TIP3   OH270425   5.945   1.913   3.319 -0.5880 -0.3079  0.1697
16337TIP3    H170426   5.951   1.951   3.406  0.2171 -2.1212  0.9660
16337TIP3    H270427   6.006   1.965   3.266  2.8644 -2.1865  1.9411
16338TIP3   OH270428   4.341   2.142   2.340 -0.0153 -0.7216 -0.4190
16338TIP3    H170429   4.418   2.094   2.309 -0.0280  0.1159 -1.8137
16338TIP3    H270430   4.280   2.074   2.368  0.8923 -1.4230 -0.1047
16339TIP3   OH270431   2.629   0.384   1.097  0.0827  0.2881  0.4842
16339TIP3    H170432   2.545   0.385   1.143  0.3868 -0.8190  1.1105
16339TIP3    H270433   2.606   0.381   1.004 -0.6693 -2.4598  0.6586
16340TIP3   OH270434   2.712   3.357   2.701  0.0701 -0.2831  0.1074
16340TIP3    H170435   2.683   3.368   2.792 -1.3413 -0.4851 -0.2915
16340TIP3    H270436   2.658   3.418   2.651 -0.2300 -1.2411 -0.7759
16341TIP3   OH270437   6.553   5.354  12.532 -0.4169 -0.3126  0.1360
16341TIP3    H170438   6.638   5.389  12.507 -1.0587  0.8751 -0.4865
16341TIP3    H270439   6.509   5.334  12.450 -1.0439 -0.1439  0.4189
16342TIP3   OH270440   1.475   4.861   3.424 -0.2936 -0.6046 -0.1234
16342TIP3    H170441   1.549   4.919   3.442 -0.2322 -0.0576 -1.9730
16342TIP3    H270442   1.403   4.920   3.400 -0.0354 -1.2196 -2.7614
16343TIP3   OH270443   6.442   3.578  13.964  0.0071  0.6006  0.4201
16343TIP3    H170444   6.502   3.519  13.918 -0.4857  0.3042  0.1503
16343TIP3    H270445   6.488   3.601  14.045 -0.0139 -0.6015  0.7936
16344TIP3   OH270446   4.691   1.033  13.178 -0.0440 -0.2275  0.5656
16344TIP3    H170447   4.773   1.063  13.139  0.8545  0.8976  3.0791
16344TIP3    H270448   4.625   1.050  13.111  1.2065  2.6015 -0.1137
16345TIP3   OH270449   6.083   4.691  15.593 -0.2911  0.3283  0.9635
16345TIP3    H170450   5.990   4.687  15.569 -0.2007  1.0954  0.4218
16345TIP3    H270451   6.129   4.659  15.515 -0.0397  1.7183  0.5125
16346TIP3   OH270452   6.540   3.183  15.714  0.1098 -0.2171  0.3562
16346TIP3    H170453   6.510   3.093  15.725  0.3604 -0.5825 -1.6531
16346TIP3    H270454   6.632   3.181  15.739  0.1706 -0.5804  0.1147
16347TIP3   OH270455   0.068   6.168   0.030  0.3612 -0.1417 -0.2581
16347TIP3    H170456   0.157   6.137   0.040  0.0379 -0.7925  0.7300
16347TIP3    H270457   0.019   6.093  -0.005 -0.3613 -0.7170  1.8616
16348TIP3   OH270458   1.673   6.505  14.473  0.5900  0.6880 -0.2557
16348TIP3    H170459   1.743   6.513  14.408  1.4037 -0.1943  0.4878
16348TIP3    H270460   1.706   6.440  14.535 -1.5465 -0.9986 -0.7633
16349TIP3   OH270461   2.461   1.501  14.442  0.3121  0.2443 -0.1353
16349TIP3    H170462   2.463   1.572  14.506  0.0717  0.2206 -0.0999
16349TIP3    H270463   2.495   1.425  14.489  0.6435  0.3545 -0.1961
16350TIP3   OH270464   6.399   0.571   3.731  0.6885 -0.2962  0.2998
16350TIP3    H170465   6.352   0.584   3.649  0.1145  0.1020  0.6855
16350TIP3    H270466   6.439   0.484   3.722 -1.1391 -1.1944  0.4419
16351TIP3   OH270467   4.957   2.572   3.457 -0.2102  0.4687 -0.1564
16351TIP3    H170468   4.910   2.526   3.526 -0.9233  1.4505  0.0447
16351TIP3    H270469   4.888   2.607   3.401  0.3063 -2.3488 -2.8537
16352TIP3   OH270470   3.249   3.865   3.118 -0.1688  0.3501  0.0214
16352TIP3    H170471   3.217   3.830   3.201 -0.5797  1.0840  0.1877
16352TIP3    H270472   3.180   3.926   3.090  0.4753  0.9504 -0.2922
16353TIP3   OH270473   4.463   2.852   4.212  0.1919  0.1067 -0.3965
16353TIP3    H170474   4.527   2.914   4.247  1.7217 -1.9451  0.6321
16353TIP3    H270475   4.411   2.826   4.289 -1.2926  1.0320 -1.0511
16354TIP3   OH270476   2.737   0.128  14.803  0.1301 -0.2208 -0.5040
16354TIP3    H170477   2.814   0.124  14.746  1.2322 -1.1513  0.9542
16354TIP3    H270478   2.768   0.171  14.882 -1.6173  1.9262 -0.8904
16355TIP3   OH270479   2.591   4.424  15.155 -0.0096  0.2571 -0.2042
16355TIP3    H170480   2.524   4.410  15.088 -0.0010 -0.0779 -0.1472
16355TIP3    H270481   2.545   4.469  15.226 -0.1929 -0.0257 -0.1404
16356TIP3   OH270482   2.283   5.101   4.491  0.2226 -0.6136 -0.0018
16356TIP3    H170483   2.290   5.035   4.422  0.5966 -0.3635 -0.2093
16356TIP3    H270484   2.366   5.150   4.485  0.0654 -0.3070  0.3295
16357TIP3   OH270485   0.780   0.241   0.609 -0.4122  0.3122 -0.0533
16357TIP3    H170486   0.820   0.328   0.613 -0.0753  0.1265  0.8415
16357TIP3    H270487   0.735   0.231   0.692 -0.6390 -0.2852 -0.2431
16358TIP3   OH270488   0.422   0.112   0.634  0.6421  0.1716  0.1140
16358TIP3    H170489   0.448   0.197   0.669 -2.4233  1.2240  0.0937
16358TIP3    H270490   0.389   0.064   0.710 -1.1218  0.4772 -0.4093
16359TIP3   OH270491   0.221   2.984  13.842 -0.3569 -0.0333  0.0110
16359TIP3    H170492   0.161   3.026  13.779  1.3830  1.3636 -0.8113
16359TIP3    H270493   0.195   2.892  13.842 -3.4315  0.7166  0.8108
16360TIP3   OH270494   0.688   2.168  11.883 -0.4280 -0.3136 -0.5895
16360TIP3    H170495   0.651   2.102  11.825 -0.8312 -0.5313 -0.0938
16360TIP3    H270496   0.703   2.121  11.965 -2.0054  0.5307  0.2149
16361TIP3   OH270497   0.399   2.978   2.564 -0.6193  0.1461 -0.1426
16361TIP3    H170498   0.457   2.942   2.632 -2.1258 -0.3452  0.9610
16361TIP3    H270499   0.398   3.072   2.581 -3.3239 -0.1815  2.6698
16362TIP3   OH270500   3.460   0.119  12.988 -0.0803  0.3156 -0.5130
16362TIP3    H170501   3.496   0.061  13.055  1.3897  0.1154 -1.4494
16362TIP3    H270502   3.365   0.102  12.991  0.0098 -0.0637  1.1358
16363TIP3   OH270503   6.369   0.628  14.561  0.0796 -0.1681  0.7283
16363TIP3    H170504   6.322   0.631  14.644  0.0691 -0.0450  0.7183
16363TIP3    H270505   6.433   0.558  14.572 -1.6706 -1.9843 -0.0891
16364TIP3   OH270506   0.312   4.496  14.743  0.0145  0.3194 -0.6779
16364TIP3    H170507   0.386   4.546  14.706  1.1347 -0.6213  0.2100
16364TIP3    H270508   0.264   4.466  14.666 -0.8419  2.8906 -1.2614
16365TIP3   OH270509   2.213   2.094   0.827 -0.9329 -0.3201  0.5942
16365TIP3    H170510   2.216   2.020   0.889 -1.3754 -0.9383 -0.1130
16365TIP3    H270511   2.243   2.057   0.744  1.5983  0.9529  0.8278
16366TIP3   OH270512   4.623   4.745  13.594 -0.0500  0.1096  0.4915
16366TIP3    H170513   4.552   4.788  13.641 -1.7275 -0.9698 -0.9165
16366TIP3    H270514   4.614   4.775  13.503  2.9323  1.9373  0.6371
16367TIP3   OH270515   3.561   2.473  13.361 -0.3189 -0.1914  0.0835
16367TIP3    H170516   3.480   2.511  13.395  0.2090  0.8209  0.2697
16367TIP3    H270517   3.629   2.534  13.389  0.2255  0.3380 -2.1909
16368TIP3   OH270518   3.830   1.047   3.882 -0.0046 -0.5455 -0.2796
16368TIP3    H170519   3.859   0.993   3.956  1.1709  0.6041  0.1281
16368TIP3    H270520   3.844   0.992   3.805  2.1355 -0.5045  0.0306
16369TIP3   OH270521   4.433   5.098   2.103  0.1889 -0.4092  0.3877
16369TIP3    H170522   4.528   5.112   2.106  0.2069 -0.7139  1.6988
16369TIP3    H270523   4.397   5.162   2.165 -0.5450  0.2045 -0.6355
16370TIP3   OH270524   5.262   5.448  11.499  0.0728 -0.1421  0.0765
16370TIP3    H170525   5.256   5.391  11.423  1.2414 -0.5883  0.2915
16370TIP3    H270526   5.175   5.486  11.509 -0.4545 -1.1458 -0.6509
16371TIP3   OH270527   5.731   6.383  12.341  0.0742  0.6312 -0.3065
16371TIP3    H170528   5.800   6.400  12.405 -0.0527  0.1214 -0.0228
16371TIP3    H270529   5.751   6.296  12.306 -0.6632  0.2865  0.0973
16372TIP3   OH270530   3.720   6.252   0.411  0.0903 -0.1531  0.6674
16372TIP3    H170531   3.672   6.333   0.398  1.6325  1.0723  2.1168
16372TIP3    H270532   3.746   6.225   0.322  0.6007  1.6315  0.2290
16373TIP3   OH270533   6.080   0.426  13.046 -0.6461 -0.0108  0.2085
16373TIP3    H170534   6.018   0.447  13.116 -1.3700  0.4420 -0.5453
16373TIP3    H270535   6.157   0.479  13.065 -1.0797  0.5828  0.3165
16374TIP3   OH270536   4.046   2.921  11.339  0.9329 -0.2683 -0.1307
16374TIP3    H170537   4.103   2.879  11.275  2.4899  0.3106  0.8156
16374TIP3    H270538   3.973   2.860  11.351  1.0340 -0.7486 -1.8223
16375TIP3   OH270539   2.935   1.661  12.309 -0.3856  0.6472  0.0037
16375TIP3    H170540   2.901   1.626  12.227 -1.5173 -0.8918  1.0646
16375TIP3    H270541   2.894   1.748  12.317  0.2881  1.1197 -1.3491
16376TIP3   OH270542   4.271   3.241   1.248 -0.6148  0.0305  0.1803
16376TIP3    H170543   4.238   3.273   1.163  0.1598 -2.1547 -1.0270
16376TIP3    H270544   4.366   3.236   1.236 -0.5249 -0.5672  1.0896
16377TIP3   OH270545   3.761   4.766  17.255 -0.3005 -0.1368 -0.2331
16377TIP3    H170546   3.802   4.818  17.186  0.8808  0.7981  1.1074
16377TIP3    H270547   3.668   4.789  17.250 -0.0311  0.9058 -0.6817
16378TIP3   OH270548   0.481   2.904   1.836  0.1793  0.3856 -0.0961
16378TIP3    H170549   0.573   2.923   1.856  0.1231  1.5307 -0.8089
16378TIP3    H270550   0.459   2.966   1.766 -0.7988 -0.6780 -0.7581
16379TIP3   OH270551   5.497   3.921  13.652 -0.0465  0.1212  0.2706
16379TIP3    H170552   5.524   3.963  13.733 -0.1782  0.7544 -0.0083
16379TIP3    H270553   5.402   3.909  13.661  0.0844 -0.7225  0.6199
16380TIP3   OH270554   6.486   1.142  16.432 -0.3145 -1.0004 -0.5484
16380TIP3    H170555   6.493   1.181  16.519 -1.7600 -0.2925 -0.7221
16380TIP3    H270556   6.465   1.215  16.374  1.5630 -1.2969 -1.6876
16381TIP3   OH270557   1.791   1.287   1.910  0.2980 -0.5881  0.4702
16381TIP3    H170558   1.733   1.352   1.871  0.3561 -0.8202 -0.0071
16381TIP3    H270559   1.864   1.280   1.849 -0.0368 -1.5969  0.1658
16382TIP3   OH270560   0.670   6.001  13.355  0.2453  0.5698 -0.2344
16382TIP3    H170561   0.733   6.066  13.388  0.1104 -0.0959  1.4232
16382TIP3    H270562   0.718   5.954  13.287  0.9798  1.1695 -0.1447
16383TIP3   OH270563   0.072   0.298   3.569  0.3575  0.6901  0.7404
16383TIP3    H170564   0.065   0.204   3.558  0.2922  0.6972  0.7197
16383TIP3    H270565   0.161   0.313   3.600  0.4757  0.6498  0.4237
16384TIP3   OH270566   1.485   0.873  17.083  0.4321 -0.3525 -0.7350
16384TIP3    H170567   1.568   0.892  17.039  1.6936 -1.2717  1.1252
16384TIP3    H270568   1.462   0.785  17.054  1.9075 -1.4759  1.2051
16385TIP3   OH270569   0.688   1.237   2.503  0.1843  0.3799  0.0053
16385TIP3    H170570   0.684   1.331   2.521  1.0625  0.4721 -0.2546
16385TIP3    H270571   0.746   1.229   2.428  0.2526 -0.3868  0.1324
16386TIP3   OH270572   2.548   3.762   3.117 -0.1186  0.1117 -0.9838
16386TIP3    H170573   2.597   3.751   3.035 -0.3808 -0.7966 -1.0242
16386TIP3    H270574   2.522   3.673   3.142 -3.5207  0.6443 -2.0510
16387TIP3   OH270575   4.097   2.650  14.511 -0.1297 -0.2592 -0.7839
16387TIP3    H170576   4.161   2.650  14.582 -0.1955  1.1980 -0.6972
16387TIP3    H270577   4.104   2.563  14.472  1.7108 -0.2211 -0.5990
16388TIP3   OH270578   4.430   3.871  11.814  0.2903  0.5675 -0.0736
16388TIP3    H170579   4.341   3.899  11.797  0.4142 -0.2553 -2.4753
16388TIP3    H270580   4.485   3.944  11.785  0.4712 -0.5451 -2.9271
16389TIP3   OH270581   6.186   0.731   1.311  0.6369  0.3694 -0.0503
16389TIP3    H170582   6.194   0.709   1.218  0.1649  0.1228 -0.0367
16389TIP3    H270583   6.093   0.716   1.331  0.0054  3.3046 -0.2909
16390TIP3   OH270584   4.263   6.623   4.890  0.3210  0.7358 -0.8810
16390TIP3    H170585   4.193   6.618   4.955 -0.8787  3.0544 -1.8472
16390TIP3    H270586   4.259   6.539   4.845  0.4005 -0.4509  1.2225
16391TIP3   OH270587   5.964   1.729   4.711 -0.0642  0.1903 -0.4964
16391TIP3    H170588   5.983   1.822   4.715  1.5389 -0.0756 -1.2786
16391TIP3    H270589   5.936   1.706   4.799  0.3842  1.2383 -0.0701
16392TIP3   OH270590   4.327   4.152  17.000  0.1903  0.2403  0.0396
16392TIP3    H170591   4.298   4.154  17.092  0.3936  0.5405  0.0974
16392TIP3    H270592   4.356   4.062  16.986  0.4728  0.2782  0.3696
16393TIP3   OH270593   0.398   6.689  16.101 -0.1880 -0.1335 -0.3474
16393TIP3    H170594   0.426   6.626  16.034  1.1659  0.4677 -0.3942
16393TIP3    H270595   0.430   6.774  16.068 -0.4207  0.3188  0.5574
16394TIP3   OH270596   6.459   6.736   1.079 -0.5589  0.2931 -0.0719
16394TIP3    H170597   6.524   6.807   1.075 -1.6825  1.3520 -0.4219
16394TIP3    H270598   6.463   6.695   0.993  2.2885 -2.1984  1.0867
16395TIP3   OH270599   2.024   3.083  14.420  0.4715  0.7529  0.3890
16395TIP3    H170600   2.024   3.178  14.415  0.1667  0.7872  0.9360
16395TIP3    H270601   1.978   3.054  14.342 -0.2513  1.0868  0.6815
16396TIP3   OH270602   2.728   6.094   2.996  0.0204 -0.3474 -0.1178
16396TIP3    H170603   2.659   6.159   2.989 -0.7424 -1.0996  0.1562
16396TIP3    H270604   2.704   6.026   2.934 -0.2451 -1.2672  0.9446
16397TIP3   OH270605   6.365   3.288  17.258 -0.0237  0.2739  0.2160
16397TIP3    H170606   6.336   3.201  17.286  1.9189 -0.3887  0.3705
16397TIP3    H270607   6.370   3.339  17.339 -1.4967  0.6662  0.0828
16398TIP3   OH270608   4.848   0.546   1.875  0.8109 -0.2760  0.0071
16398TIP3    H170609   4.829   0.624   1.927  0.4308  1.4774 -2.5441
16398TIP3    H270610   4.860   0.476   1.939 -1.5239  1.2807  2.3295
16399TIP3   OH270611   4.859   4.539   1.030 -0.0900  0.7853 -0.5433
16399TIP3    H170612   4.788   4.603   1.023 -1.0011 -0.2183 -0.7521
16399TIP3    H270613   4.837   4.472   0.965  1.0263  0.4233 -0.5690
16400TIP3   OH270614   6.436   5.679   6.131 -0.0228  0.3159 -0.1084
16400TIP3    H170615   6.349   5.658   6.166 -1.0990  1.6354 -1.8394
16400TIP3    H270616   6.434   5.646   6.041  1.2424  0.4622 -0.2014
16401TIP3   OH270617   1.572   5.442   1.868 -0.3789  0.2211  0.3713
16401TIP3    H170618   1.656   5.403   1.894 -0.4412  0.6148  1.1820
16401TIP3    H270619   1.577   5.533   1.899 -0.4059  0.7713 -1.1150
16402TIP3   OH270620   4.881   3.026   1.540 -0.1735 -0.2135 -0.5733
16402TIP3    H170621   4.899   3.094   1.476 -0.2235 -0.6347 -1.0414
16402TIP3    H270622   4.885   3.071   1.624  0.8130  0.1608 -0.8079
16403TIP3   OH270623   5.555   0.597   2.420 -0.2382 -0.0434 -0.3447
16403TIP3    H170624   5.637   0.643   2.437  0.5587 -0.2964 -3.0000
16403TIP3    H270625   5.572   0.507   2.445  0.5426 -0.2128 -1.4050
16404TIP3   OH270626   3.121   2.443  11.518 -0.1887  0.3438 -0.8714
16404TIP3    H170627   3.051   2.476  11.576  0.3075 -1.2523  0.7255
16404TIP3    H270628   3.101   2.482  11.433 -0.3316  3.7636  0.5351
16405TIP3   OH270629   4.636   4.573  16.098 -0.3576 -0.0572  0.3445
16405TIP3    H170630   4.622   4.504  16.033 -0.1681 -0.1478  0.3987
16405TIP3    H270631   4.548   4.595  16.128 -0.4251 -0.2285  0.2759
16406TIP3   OH270632   4.940   3.886  10.830 -0.4301  0.1428  0.0426
16406TIP3    H170633   4.924   3.799  10.866 -1.7086  0.2613 -0.1826
16406TIP3    H270634   4.904   3.882  10.742 -2.1628  1.4161  0.6510
16407TIP3   OH270635   5.059   5.479   2.526 -0.8188 -0.1658  0.3845
16407TIP3    H170636   5.016   5.559   2.495 -1.0249  0.9324  3.1688
16407TIP3    H270637   5.129   5.510   2.583 -0.5263 -1.9592  1.0684
16408TIP3   OH270638   0.031   1.270  16.629 -0.1699  0.3506 -0.2605
16408TIP3    H170639   0.085   1.336  16.673 -1.7509 -0.0493  2.4845
16408TIP3    H270640  -0.059   1.292  16.653 -0.9110 -1.4985 -1.1483
16409TIP3   OH270641   0.647   5.387  14.587 -0.1601 -0.3691 -0.0501
16409TIP3    H170642   0.632   5.319  14.653 -1.8239 -1.0753 -1.0981
16409TIP3    H270643   0.564   5.395  14.541  0.7296  0.6314 -1.5807
16410TIP3   OH270644   5.197   6.524  13.692 -0.7295  0.2065 -0.2541
16410TIP3    H170645   5.202   6.566  13.778 -0.1166 -1.4418  0.5557
16410TIP3    H270646   5.111   6.481  13.692  0.4007 -2.2470  0.7900
16411TIP3   OH270647   5.943   1.556   5.689  0.1277  0.3073 -0.5444
16411TIP3    H170648   5.936   1.487   5.755  0.3121 -0.2105 -1.0607
16411TIP3    H270649   6.032   1.549   5.655  0.7853  2.0098  0.6924
16412TIP3   OH270650   1.048   1.746   0.745  0.2450 -0.4079  0.4063
16412TIP3    H170651   1.098   1.723   0.824  0.9986  0.5265  0.2187
16412TIP3    H270652   0.958   1.719   0.765  0.0934  1.1799  2.2220
16413TIP3   OH270653   5.547   4.863   3.028  0.6309 -0.2496  0.0442
16413TIP3    H170654   5.590   4.790   2.983  2.2259 -0.8841  2.4290
16413TIP3    H270655   5.468   4.824   3.066 -0.4587  0.1762 -1.6870
16414TIP3   OH270656   0.496   1.467   4.871  0.2133 -0.0021 -0.0921
16414TIP3    H170657   0.505   1.562   4.863  0.2573 -0.1129 -1.4868
16414TIP3    H270658   0.509   1.451   4.965 -1.3221  1.5123  0.4434
16415TIP3   OH270659   1.886   2.865  12.890  0.0558 -0.3459 -0.6334
16415TIP3    H170660   1.926   2.779  12.877 -1.2598 -1.2239  0.8086
16415TIP3    H270661   1.818   2.871  12.824  0.0147 -0.4900 -0.6032
16416TIP3   OH270662   2.043   4.572   1.520 -0.0438  0.0396 -0.1929
16416TIP3    H170663   2.008   4.660   1.510 -0.4901 -0.1074  0.0631
16416TIP3    H270664   2.097   4.558   1.442 -1.7206 -0.2794 -1.3446
16417TIP3   OH270665   3.246   1.597  17.183  0.0474 -0.5128  0.4324
16417TIP3    H170666   3.232   1.528  17.119 -0.2630 -0.3130  0.2808
16417TIP3    H270667   3.336   1.626  17.169 -0.6817  1.0752 -1.4504
16418TIP3   OH270668   3.507   5.350  16.514 -0.2954  0.1344 -0.1851
16418TIP3    H170669   3.540   5.440  16.509  1.2912 -0.4518 -1.0475
16418TIP3    H270670   3.570   5.305  16.571 -0.9585 -0.4900  0.0697
16419TIP3   OH270671   3.008   4.162   0.009  0.9096 -0.2462  0.2770
16419TIP3    H170672   3.080   4.198   0.061  0.9916 -0.2302  0.1529
16419TIP3    H270673   2.936   4.154   0.071  0.3173  1.8331 -0.0419
16420TIP3   OH270674   1.097   6.318  13.369  0.5046  0.0895 -0.0240
16420TIP3    H170675   1.139   6.400  13.342 -0.5739  0.5629 -0.3157
16420TIP3    H270676   1.081   6.271  13.286  2.5161 -1.1543  0.2265
16421TIP3   OH270677   3.781   1.458  12.422  0.5021 -0.2664  0.4132
16421TIP3    H170678   3.839   1.428  12.492  0.0785 -0.8343  0.5284
16421TIP3    H270679   3.751   1.544  12.452 -2.9263 -2.0899  3.0441
16422TIP3   OH270680   4.118   5.482  15.025 -0.2263 -0.1909  0.2251
16422TIP3    H170681   4.096   5.508  14.935 -1.1534 -0.3748  0.3888
16422TIP3    H270682   4.088   5.391  15.031  3.9206 -1.8853 -0.7148
16423TIP3   OH270683   0.525   2.434   2.281 -0.0192 -0.3870 -0.2403
16423TIP3    H170684   0.472   2.435   2.360 -0.0235  0.6332 -0.2420
16423TIP3    H270685   0.461   2.435   2.209 -0.0119  0.7036 -0.2426
16424TIP3   OH270686   5.569   5.947   3.910  0.4339 -0.5228 -0.2841
16424TIP3    H170687   5.527   5.971   3.828 -0.3711  0.7069  0.4397
16424TIP3    H270688   5.608   5.861   3.894  1.2603  0.1592 -2.2830
16425TIP3   OH270689   4.123   2.482   4.155  0.4387 -0.4258  0.0124
16425TIP3    H170690   4.122   2.431   4.236 -1.2975 -0.5512 -0.0567
16425TIP3    H270691   4.145   2.419   4.087  1.7554 -0.3518  0.3418
16426TIP3   OH270692   4.015   0.757  13.739  0.1495 -0.6103 -0.4465
16426TIP3    H170693   4.027   0.809  13.818 -0.8765  0.1446 -0.7661
16426TIP3    H270694   3.945   0.695  13.762  0.5755 -1.0974 -0.4355
16427TIP3   OH270695   1.582   5.144  11.707  0.6916  0.2574  0.1674
16427TIP3    H170696   1.555   5.162  11.617  0.2588 -0.5176  0.1293
16427TIP3    H270697   1.526   5.200  11.761  1.1612  0.9505 -0.0477
16428TIP3   OH270698   6.188   3.494  14.284  0.0484  0.5431  0.0535
16428TIP3    H170699   6.193   3.589  14.284  0.1481  0.5635 -1.5884
16428TIP3    H270700   6.161   3.471  14.195 -0.2856 -0.9521  0.5038
16429TIP3   OH270701   5.768   1.263  13.871  0.0178  0.2806 -0.2004
16429TIP3    H170702   5.752   1.214  13.790 -2.6419  0.5619  0.0676
16429TIP3    H270703   5.773   1.354  13.842 -1.4893  0.4396 -0.0456
16430TIP3   OH270704   1.349   1.126  15.577  0.3643 -0.0935  0.0785
16430TIP3    H170705   1.365   1.162  15.664  1.3896  0.0419 -0.1510
16430TIP3    H270706   1.433   1.136  15.532  0.5222 -2.2303 -0.1858
16431TIP3   OH270707   1.353   0.043   2.426 -0.0437 -0.5824  0.5904
16431TIP3    H170708   1.295   0.053   2.501 -1.4125  0.0657 -0.5154
16431TIP3    H270709   1.387   0.131   2.410 -2.4565  0.0688 -1.5936
16432TIP3   OH270710   5.552   2.998  14.292  0.0934  0.4104 -0.0170
16432TIP3    H170711   5.534   3.029  14.203 -0.8281  2.2354  0.7602
16432TIP3    H270712   5.645   2.974  14.290  0.1324  0.5724 -1.4164
16433TIP3   OH270713   0.124   1.047  15.396  0.1872  0.5694  0.0487
16433TIP3    H170714   0.158   1.058  15.308 -4.1825  2.0002 -1.7642
16433TIP3    H270715   0.133   1.134  15.436 -1.0214  0.9273 -0.4032
16434TIP3   OH270716   2.328   0.459  14.976 -0.4121  0.0694  0.0349
16434TIP3    H170717   2.382   0.393  14.932  0.4817  0.2842  0.7801
16434TIP3    H270718   2.238   0.433  14.956 -0.0528 -0.6658 -0.7048
16435TIP3   OH270719   2.949   4.361  14.602 -0.0862 -0.2859  0.1350
16435TIP3    H170720   2.943   4.378  14.696  2.3603  0.3349  0.2403
16435TIP3    H270721   2.996   4.278  14.596 -0.3774 -0.4044 -0.5512
16436TIP3   OH270722   0.041   1.322  17.051 -0.1491  0.2769  0.1603
16436TIP3    H170723   0.039   1.228  17.068 -2.8938  0.3864  0.9230
16436TIP3    H270724  -0.034   1.339  16.994  1.4332  1.7925 -1.6323
16437TIP3   OH270725   4.059   0.604  16.656 -0.1728  0.1684  0.7207
16437TIP3    H170726   4.100   0.686  16.685  1.1554  0.2487 -1.2305
16437TIP3    H270727   3.977   0.632  16.615 -0.7368  0.2891  1.8737
16438TIP3   OH270728   0.942   6.481  14.595 -0.1886 -0.4761  0.3675
16438TIP3    H170729   0.970   6.481  14.504 -0.9205  0.9247  0.1124
16438TIP3    H270730   0.918   6.390  14.613  0.1959 -0.8158 -0.7608
16439TIP3   OH270731   0.396   0.846  11.920 -0.1925 -0.2303  0.1523
16439TIP3    H170732   0.352   0.926  11.890 -1.8194 -0.8286  0.8449
16439TIP3    H270733   0.464   0.831  11.854 -1.0087  0.7388 -0.9756
16440TIP3   OH270734   4.272   1.064  13.731 -0.1291 -0.3223 -0.4353
16440TIP3    H170735   4.248   0.985  13.779 -0.0768 -1.6370 -2.4643
16440TIP3    H270736   4.211   1.069  13.659  0.4421  1.0107 -0.8709
16441TIP3   OH270737   4.866   6.414  15.477 -0.2823 -0.5209  0.4189
16441TIP3    H170738   4.907   6.459  15.403 -0.7053 -1.2013 -0.2453
16441TIP3    H270739   4.937   6.363  15.516 -0.3411 -1.2482 -0.3785
16442TIP3   OH270740   6.515   6.751   3.039  0.3489  0.2108 -0.3517
16442TIP3    H170741   6.558   6.765   3.123 -0.2342 -3.9540  0.8840
16442TIP3    H270742   6.579   6.704   2.987 -1.1106 -2.3119 -0.0272
16443TIP3   OH270743   3.550   1.973  14.993  0.3826  0.0012 -0.2283
16443TIP3    H170744   3.601   2.027  15.053 -0.4465  0.1626  0.3344
16443TIP3    H270745   3.473   2.025  14.972  0.4232 -0.2508 -1.0668
16444TIP3   OH270746   5.648   4.322  11.802  0.4123  0.1150 -0.6956
16444TIP3    H170747   5.733   4.356  11.828  0.0917  2.5983 -2.5648
16444TIP3    H270748   5.585   4.368  11.858  0.1220  0.5390 -1.3701
16445TIP3   OH270749   4.115   4.741  16.495  0.7961 -0.5974 -0.1735
16445TIP3    H170750   4.044   4.795  16.530  1.4632 -0.5732  1.2442
16445TIP3    H270751   4.074   4.686  16.428 -1.0291 -2.0404  1.9925
16446TIP3   OH270752   1.945   1.706   3.176  0.2633  0.2257  0.2277
16446TIP3    H170753   1.952   1.683   3.268 -0.6894 -1.6337 -0.1251
16446TIP3    H270754   1.852   1.723   3.162  0.2467 -0.5095 -0.6002
16447TIP3   OH270755   0.247   0.686  14.397 -0.6615 -0.2398 -0.0028
16447TIP3    H170756   0.281   0.750  14.334 -1.6520 -1.1726 -1.5437
16447TIP3    H270757   0.219   0.739  14.472  0.0196  0.9628 -0.5726
16448TIP3   OH270758   2.707   3.444  14.866 -0.4235  0.1669  0.0669
16448TIP3    H170759   2.766   3.513  14.899  0.1013 -0.2899  0.0963
16448TIP3    H270760   2.672   3.481  14.784 -2.4343  1.6826  1.5067
16449TIP3   OH270761   4.666   6.548  16.218  0.4551  0.1242  0.3771
16449TIP3    H170762   4.673   6.491  16.294  2.2673  0.2743  0.3521
16449TIP3    H270763   4.638   6.490  16.147  0.1839 -0.3054  0.8305
16450TIP3   OH270764   4.067   5.902  13.366  0.4489  0.4688  0.8197
16450TIP3    H170765   4.059   5.823  13.419 -1.5136  1.9000  2.8311
16450TIP3    H270766   4.135   5.954  13.409  0.3988  0.7041  0.6193
16451TIP3   OH270767   5.528   5.918   3.012  0.1546  0.0588 -0.6296
16451TIP3    H170768   5.455   5.867   3.048 -0.3472  0.3837 -1.1629
16451TIP3    H270769   5.591   5.924   3.084  0.0871 -1.0407 -0.4567
16452TIP3   OH270770   1.824   5.213  16.195  0.3584 -0.0554  0.1223
16452TIP3    H170771   1.871   5.234  16.276 -0.4768 -2.7723  1.4320
16452TIP3    H270772   1.872   5.138  16.159 -0.8875 -0.6155 -0.4114
16453TIP3   OH270773   6.731   2.995   1.178 -0.0205  0.2351 -0.3495
16453TIP3    H170774   6.730   2.949   1.262  2.4947  0.9516  0.1611
16453TIP3    H270775   6.719   3.087   1.199  1.0708  0.4760 -0.6780
16454TIP3   OH270776   2.190   0.171  15.471  0.0289 -0.8547  0.4471
16454TIP3    H170777   2.270   0.124  15.447 -0.5490 -1.1657 -0.9767
16454TIP3    H270778   2.208   0.262  15.448 -0.1681 -0.9962 -0.3101
16455TIP3   OH270779   5.751   1.036   6.217 -0.3492 -0.2403 -0.5647
16455TIP3    H170780   5.670   1.081   6.196 -0.5364 -1.1419 -1.9125
16455TIP3    H270781   5.820   1.100   6.198 -0.7124  0.4118  0.2638
16456TIP3   OH270782   4.440   3.654   1.674  0.3133 -0.8517 -0.5243
16456TIP3    H170783   4.467   3.575   1.721  2.2617 -0.3906 -0.7644
16456TIP3    H270784   4.523   3.698   1.652 -0.6892  0.8392 -1.1083
16457TIP3   OH270785   3.681   3.588  11.410  0.1909  0.2940  0.0975
16457TIP3    H170786   3.758   3.596  11.353  0.7889 -0.2174  0.8201
16457TIP3    H270787   3.717   3.568  11.496 -0.8374 -1.7461  0.0941
16458TIP3   OH270788   0.290   4.537   6.378  0.0209  0.6949 -0.3590
16458TIP3    H170789   0.226   4.558   6.446  0.0252  2.5189 -0.8557
16458TIP3    H270790   0.365   4.593   6.397  0.8221 -0.2361 -0.7218
16459TIP3   OH270791   4.033   6.421  13.145 -0.2463 -0.9576  0.0256
16459TIP3    H170792   3.961   6.438  13.207  1.1459  2.4595  0.9511
16459TIP3    H270793   4.011   6.474  13.068 -0.4670 -2.8282 -1.2594
16460TIP3   OH270794   1.784   4.790   0.891 -0.1415  0.5059 -0.7968
16460TIP3    H170795   1.799   4.799   0.796 -0.6885 -0.3433 -0.9809
16460TIP3    H270796   1.746   4.702   0.900 -2.4157  1.5110 -0.0549
16461TIP3   OH270797   3.721   1.982   2.541  0.1977 -0.3375  0.0768
16461TIP3    H170798   3.660   1.937   2.484 -0.4558  0.1273  0.3955
16461TIP3    H270799   3.742   1.918   2.609  0.3246 -0.6083 -0.2175
16462TIP3   OH270800   0.324   5.721  12.437  0.5202 -0.1431 -0.2729
16462TIP3    H170801   0.299   5.719  12.344  1.6087  2.0343 -0.6829
16462TIP3    H270802   0.418   5.704  12.437  1.3008  3.3569 -0.0461
16463TIP3   OH270803   0.558   0.893   2.923 -0.3460 -0.3413  0.3370
16463TIP3    H170804   0.465   0.917   2.915 -0.2004  0.0873 -0.1227
16463TIP3    H270805   0.588   0.883   2.832  0.4955  1.2617  0.4037
16464TIP3   OH270806   3.288   4.061   1.929  0.0306  0.2688 -0.2213
16464TIP3    H170807   3.319   4.023   2.011  0.8992 -1.2276 -1.1876
16464TIP3    H270808   3.295   3.990   1.865 -2.0255  0.9440 -1.3023
16465TIP3   OH270809   5.247   0.442  11.406 -0.9339 -0.0410 -0.2323
16465TIP3    H170810   5.191   0.504  11.358  0.9400  1.1399 -1.0114
16465TIP3    H270811   5.288   0.389  11.338  1.4402  1.3719 -0.0104
16466TIP3   OH270812   3.543   2.764  13.622 -0.0982 -0.2347  0.4623
16466TIP3    H170813   3.580   2.764  13.534  0.6862 -0.3736  0.7873
16466TIP3    H270814   3.614   2.792  13.679 -0.5706 -0.2362  1.0666
16467TIP3   OH270815   2.818   0.944  16.650 -0.1860  0.3098  0.2749
16467TIP3    H170816   2.775   0.866  16.685 -1.3296  1.0812  0.6292
16467TIP3    H270817   2.890   0.961  16.711  1.4218 -1.6228 -0.9192
16468TIP3   OH270818   0.574   0.522   2.449 -0.0156  0.0327 -0.3425
16468TIP3    H170819   0.632   0.507   2.523  0.1697  0.0903 -0.4755
16468TIP3    H270820   0.558   0.617   2.450 -0.2868 -0.0151 -0.1717
16469TIP3   OH270821   2.108   2.371   4.830  0.2965 -0.8527  0.3178
16469TIP3    H170822   2.048   2.303   4.800  1.6686 -0.9904 -2.3946
16469TIP3    H270823   2.051   2.439   4.867 -1.5519 -1.0862 -1.8949
16470TIP3   OH270824   6.040   1.107   5.213 -0.2042  0.2023  1.0560
16470TIP3    H170825   6.070   1.049   5.283 -1.6770 -0.5774  1.0911
16470TIP3    H270826   6.066   1.062   5.132 -0.0307  0.2450  1.0868
16471TIP3   OH270827   6.545   1.460  11.174 -0.0650 -0.2204 -0.3971
16471TIP3    H170828   6.620   1.465  11.115  0.3856  2.0065  0.2427
16471TIP3    H270829   6.481   1.520  11.135 -1.3448 -1.6781 -0.6441
16472TIP3   OH270830   4.278   2.472  16.947 -0.2917  0.5487 -0.1751
16472TIP3    H170831   4.360   2.498  16.989  0.0502 -0.0827 -0.4312
16472TIP3    H270832   4.254   2.391  16.992 -0.3203  0.2763 -0.6791
16473TIP3   OH270833   3.636   5.662  11.803  0.1945 -0.3522 -0.0263
16473TIP3    H170834   3.651   5.747  11.761  1.3803 -0.6088 -0.1555
16473TIP3    H270835   3.547   5.667  11.836 -0.1500  0.5160 -1.0412
16474TIP3   OH270836   2.686   4.386   3.967 -0.0520 -0.0903  0.2417
16474TIP3    H170837   2.701   4.294   3.993 -1.3499 -0.4046 -0.0546
16474TIP3    H270838   2.650   4.427   4.046 -0.3455 -0.0726  0.0998
16475TIP3   OH270839   3.288   1.694  11.805 -0.2539  0.3781 -0.1536
16475TIP3    H170840   3.252   1.631  11.868  1.5310  0.7144  1.2690
16475TIP3    H270841   3.232   1.771  11.814 -0.9103 -0.0950 -0.0755
16476TIP3   OH270842   2.545   5.928  13.178 -0.2079  0.1935 -0.3461
16476TIP3    H170843   2.578   5.839  13.161  2.2115  1.0976 -0.8154
16476TIP3    H270844   2.617   5.972  13.222 -0.5464  2.5250 -1.9519
16477TIP3   OH270845   6.107   6.305  17.104  0.1215 -0.4557 -0.0628
16477TIP3    H170846   6.142   6.216  17.098 -0.3966 -0.5996 -1.0758
16477TIP3    H270847   6.182   6.357  17.135  0.0989 -1.4159  1.7454
16478TIP3   OH270848   3.544   4.477  12.315 -0.2989  0.4471  0.8624
16478TIP3    H170849   3.460   4.468  12.271  0.0480  1.6307 -0.0984
16478TIP3    H270850   3.559   4.392  12.357 -1.2304 -0.3000 -0.2751
16479TIP3   OH270851   2.271   3.714  16.926  0.4097 -0.6240 -0.1900
16479TIP3    H170852   2.289   3.659  16.850  0.6564 -0.8791  0.0496
16479TIP3    H270853   2.323   3.675  16.996  3.7110  2.0919 -0.8517
16480TIP3   OH270854   0.654   0.080   1.097 -0.8952  0.3721 -0.3331
16480TIP3    H170855   0.599   0.137   1.151  0.1405  0.2460  0.9062
16480TIP3    H270856   0.629  -0.008   1.122 -0.2014  0.3137  0.1855
16481TIP3   OH270857   5.517   0.123   2.378 -0.5563  0.0595 -0.3226
16481TIP3    H170858   5.556   0.118   2.291  0.3318 -0.2721  0.0716
16481TIP3    H270859   5.561   0.054   2.427 -0.7622  0.4963  0.4977
16482TIP3   OH270860   0.434   1.493  11.230  0.0351  0.0895 -0.2148
16482TIP3    H170861   0.389   1.485  11.315 -1.0069 -1.4087 -0.8769
16482TIP3    H270862   0.470   1.582  11.231 -2.5123  1.2105  0.5884
16483TIP3   OH270863   1.467   1.791  14.783  0.0053 -0.3141 -0.1119
16483TIP3    H170864   1.452   1.771  14.690  0.3781  0.9780 -0.4763
16483TIP3    H270865   1.542   1.737  14.807  0.4795  0.0095 -0.8245
16484TIP3   OH270866   0.018   0.515   4.641 -0.0339  0.5574  0.2939
16484TIP3    H170867  -0.065   0.503   4.594 -0.3350  0.3171  0.8761
16484TIP3    H270868   0.003   0.591   4.697  0.5407  1.2431 -0.4568
16485TIP3   OH270869   1.152   2.806   3.832 -0.2093 -0.3771 -0.5504
16485TIP3    H170870   1.080   2.855   3.871 -0.3592  1.0828 -2.5318
16485TIP3    H270871   1.120   2.778   3.747  1.2398 -0.5198 -1.0876
16486TIP3   OH270872   0.978   5.171   2.697 -0.1694 -0.4696 -0.9760
16486TIP3    H170873   0.965   5.265   2.685  1.3574 -0.0782  0.1023
16486TIP3    H270874   0.895   5.140   2.733 -1.1201  0.2115 -2.4932
16487TIP3   OH270875   3.481   0.299  16.061 -0.2439 -0.0771 -0.3551
16487TIP3    H170876   3.473   0.393  16.043  1.7199  0.4298  1.0421
16487TIP3    H270877   3.532   0.265  15.988 -2.7554 -0.5545 -1.9909
16488TIP3   OH270878   6.208   1.751   1.678  0.2561  0.1979  0.1137
16488TIP3    H170879   6.259   1.761   1.759  0.8722 -2.1942  0.1175
16488TIP3    H270880   6.189   1.657   1.674 -0.8386  0.4558 -1.9042
16489TIP3   OH270881   2.280   2.910  17.344 -0.4620 -0.1556 -0.0015
16489TIP3    H170882   2.357   2.942  17.392 -1.1429 -0.6836  1.5004
16489TIP3    H270883   2.209   2.966  17.375 -1.0348 -0.9285  0.1037
16490TIP3   OH270884   0.966   5.652   1.123 -0.0714 -0.5517 -0.4567
16490TIP3    H170885   1.038   5.590   1.117 -0.6042 -1.0952 -1.8282
16490TIP3    H270886   0.937   5.664   1.032 -2.0308 -0.7649  0.0829
16491TIP3   OH270887   5.410   4.299   4.538  0.1717  0.0746 -0.2727
16491TIP3    H170888   5.327   4.261   4.566  1.2153 -0.3658  2.4873
16491TIP3    H270889   5.394   4.393   4.535 -0.3080  0.0385  0.7896
16492TIP3   OH270890   1.146   2.300  15.480  0.0338 -0.2887  0.3628
16492TIP3    H170891   1.098   2.243  15.419  0.8461 -1.9717  1.2447
16492TIP3    H270892   1.207   2.348  15.424 -0.6343 -0.3013 -0.4012
16493TIP3   OH270893   2.678   4.701  11.314 -0.5679 -1.0174 -0.5461
16493TIP3    H170894   2.587   4.730  11.302 -0.7890 -1.3319  0.2508
16493TIP3    H270895   2.705   4.742  11.396  0.0563 -0.8308 -0.8392
16494TIP3   OH270896   1.395   1.759  12.068  0.3241 -0.0389 -0.2361
16494TIP3    H170897   1.358   1.782  11.983  0.1107 -0.5058 -0.2681
16494TIP3    H270898   1.472   1.706  12.047  0.5132  0.1983 -0.1474
16495TIP3   OH270899   6.576   5.011   2.351 -0.0967  0.8823  0.0625
16495TIP3    H170900   6.664   5.045   2.367  0.0213  0.3211  0.6349
16495TIP3    H270901   6.521   5.057   2.415  0.1160 -0.2141  1.0554
16496TIP3   OH270902   4.271   0.040   0.390  0.8184 -0.2804  0.1420
16496TIP3    H170903   4.273   0.075   0.301 -0.4718  0.2409  0.2971
16496TIP3    H270904   4.258  -0.054   0.379  3.0879 -0.6091 -0.2514
16497TIP3   OH270905   6.666   0.160   5.824 -0.6028  0.0496 -0.6822
16497TIP3    H170906   6.608   0.088   5.850 -1.6612  0.8380 -0.7570
16497TIP3    H270907   6.639   0.233   5.880  0.8956  0.2158 -0.1486
16498TIP3   OH270908   5.620   0.002   0.962 -0.3466 -0.2756  0.2929
16498TIP3    H170909   5.572   0.026   1.041 -0.2123  1.7392 -0.1804
16498TIP3    H270910   5.565  -0.065   0.921 -1.1382 -0.3212  1.3618
16499TIP3   OH270911   2.830   2.642   4.323 -0.1193 -0.3614  0.0377
16499TIP3    H170912   2.784   2.719   4.289  1.0997 -0.2050 -1.3543
16499TIP3    H270913   2.864   2.599   4.245 -0.4792 -2.1439  0.8218
16500TIP3   OH270914   5.618   1.184   1.165  0.9298  0.2093 -0.4251
16500TIP3    H170915   5.564   1.252   1.206  2.5524  1.4038 -0.1831
16500TIP3    H270916   5.558   1.111   1.153 -0.5543  1.1991  0.5440
16501TIP3   OH270917   1.624   3.733   4.942  0.4307 -0.5335 -0.4087
16501TIP3    H170918   1.630   3.795   5.015  3.0311 -1.0645 -0.0545
16501TIP3    H270919   1.530   3.721   4.927 -0.2212  3.4540 -0.5119
16502TIP3   OH270920   3.251   4.424  14.700 -0.2421  0.9601  0.5261
16502TIP3    H170921   3.197   4.436  14.778 -2.0640  2.0692 -0.8160
16502TIP3    H270922   3.301   4.505  14.693  0.7275  0.4316  1.0829
16503TIP3   OH270923   1.186   2.498   2.231  0.3104  0.1626 -0.4592
16503TIP3    H170924   1.154   2.587   2.218  0.0416  0.2337  0.5827
16503TIP3    H270925   1.175   2.455   2.146 -1.3185  0.5734 -0.4721
16504TIP3   OH270926   4.502   2.570   4.078 -0.2416  0.1867  0.6504
16504TIP3    H170927   4.444   2.638   4.112 -0.8399  1.4443 -2.5911
16504TIP3    H270928   4.589   2.609   4.082 -0.3661  0.4994  0.3014
16505TIP3   OH270929   2.632   1.482   2.506  0.0426  0.5810 -0.5716
16505TIP3    H170930   2.594   1.529   2.580 -1.5344 -0.6957 -0.5354
16505TIP3    H270931   2.693   1.420   2.545  1.6285  2.0607 -0.5810
16506TIP3   OH270932   2.859   0.802  14.410  0.0920  0.3138  0.2514
16506TIP3    H170933   2.787   0.823  14.469  1.7052  0.9954  2.0733
16506TIP3    H270934   2.898   0.722  14.446  0.4669  0.1253 -0.5349
16507TIP3   OH270935   3.833   1.879  14.953 -0.1688 -0.0651 -0.0087
16507TIP3    H170936   3.745   1.910  14.932 -0.5852  0.5488  2.3831
16507TIP3    H270937   3.829   1.784  14.939 -1.5785 -0.2059  1.1216
16508TIP3   OH270938   0.966   0.514  13.903 -0.0973  0.6136  0.0118
16508TIP3    H170939   0.938   0.606  13.907 -3.4053 -0.2850 -0.1292
16508TIP3    H270940   0.914   0.470  13.970  2.0015 -1.1029  0.6148
16509TIP3   OH270941   1.430   6.010  15.907 -0.3078  0.1072  0.0347
16509TIP3    H170942   1.352   5.988  15.958  0.0635  1.5203  1.3041
16509TIP3    H270943   1.503   5.983  15.963  0.2688 -3.2180 -2.0069
16510TIP3   OH270944   4.036   6.731  14.669  0.0774 -0.2843  0.6717
16510TIP3    H170945   4.003   6.765  14.753  2.1472  3.6769  0.1413
16510TIP3    H270946   4.001   6.791  14.603  2.3373 -0.3412 -0.6792
16511TIP3   OH270947   2.602   3.456   0.751 -0.1912 -0.1736 -0.7754
16511TIP3    H170948   2.508   3.448   0.733 -0.3264 -1.5259  0.4215
16511TIP3    H270949   2.635   3.367   0.750  1.1136  0.2938 -1.2369
16512TIP3   OH270950   5.329   2.738  15.214 -0.0091  1.2201  0.8977
16512TIP3    H170951   5.285   2.764  15.133 -0.0190 -0.5341  0.2949
16512TIP3    H270952   5.293   2.652  15.234  0.9158  1.0876  2.0844
16513TIP3   OH270953   5.988   3.252  14.886 -0.2104  0.2957  0.0609
16513TIP3    H170954   5.953   3.237  14.974 -0.9567 -0.3061 -0.3198
16513TIP3    H270955   6.034   3.171  14.864 -1.0186 -0.0259 -0.5357
16514TIP3   OH270956   2.359   0.621   0.611 -0.2301  0.1789 -0.4482
16514TIP3    H170957   2.265   0.608   0.599 -0.0759 -1.2981 -0.2308
16514TIP3    H270958   2.386   0.675   0.537 -1.5411  2.1507  0.4402
16515TIP3   OH270959   4.014   2.633  15.223 -0.3274  0.2123  0.1096
16515TIP3    H170960   4.096   2.622  15.175 -0.7927  0.1883 -0.6959
16515TIP3    H270961   4.027   2.711  15.277  0.1809  0.2665 -0.0905
16516TIP3   OH270962   0.858   2.824   5.333 -0.0586 -0.2367  0.3057
16516TIP3    H170963   0.900   2.910   5.329  0.7285 -0.5501  1.3459
16516TIP3    H270964   0.883   2.789   5.419 -0.8581 -1.2562  0.1449
16517TIP3   OH270965   0.495   3.205  15.752 -0.1689  0.5022  0.6484
16517TIP3    H170966   0.542   3.201  15.835 -1.3995  0.8503  1.3946
16517TIP3    H270967   0.433   3.132  15.757 -1.2744  1.4280  0.6958
16518TIP3   OH270968   0.667   1.164   5.049 -0.2059 -0.0710  0.1415
16518TIP3    H170969   0.615   1.239   5.079 -1.6314 -1.4318  1.2436
16518TIP3    H270970   0.671   1.173   4.954 -0.7002  1.1829  0.2276
16519TIP3   OH270971   2.700   2.014   2.924 -0.2723  0.0549 -0.1980
16519TIP3    H170972   2.699   1.933   2.975  0.7795 -0.0254 -0.2659
16519TIP3    H270973   2.788   2.050   2.939 -0.6314  1.0323 -0.4014
16520TIP3   OH270974   3.305   1.961   2.111 -0.2417  0.0477  0.6661
16520TIP3    H170975   3.245   1.886   2.113  0.2953 -0.3998  0.5559
16520TIP3    H270976   3.322   1.980   2.203 -0.3994  0.0448  0.6956
16521TIP3   OH270977   3.988   0.362   0.130 -0.2875 -0.1083 -0.3831
16521TIP3    H170978   4.014   0.323   0.213  1.7115  0.2545 -0.8025
16521TIP3    H270979   4.069   0.373   0.082 -1.2204  1.2005 -1.7403
16522TIP3   OH270980   0.930   0.517   2.045 -0.1670  0.1557  0.0104
16522TIP3    H170981   1.006   0.529   1.988  0.0332  1.7829  0.5742
16522TIP3    H270982   0.951   0.439   2.097  0.9085  0.3130 -0.1686
16523TIP3   OH270983   5.578   3.925  11.419 -0.1719  0.1185 -0.0778
16523TIP3    H170984   5.586   4.014  11.452  0.3938  0.1356 -0.2410
16523TIP3    H270985   5.595   3.932  11.325  0.8743 -0.2813  0.0615
16524TIP3   OH270986   3.991   1.955  12.772  0.1275 -0.0821 -0.3006
16524TIP3    H170987   3.978   1.957  12.677  0.3345  2.9093 -0.3488
16524TIP3    H270988   3.971   2.044  12.801 -0.3718 -1.0411  2.5558
16525TIP3   OH270989   3.478   4.759  16.044  0.0443 -0.6010 -0.1363
16525TIP3    H170990   3.455   4.670  16.017  1.9092 -0.7346 -1.4798
16525TIP3    H270991   3.551   4.783  15.987 -0.8867  2.0995 -0.3197
16526TIP3   OH270992   2.382   2.151  12.234 -0.1356  0.1048 -0.0228
16526TIP3    H170993   2.436   2.171  12.158  0.1122 -0.6297 -0.0411
16526TIP3    H270994   2.372   2.236  12.279 -1.2161  0.7732 -1.4528
16527TIP3   OH270995   6.647   6.290  16.774  0.4145  0.4092 -0.1404
16527TIP3    H170996   6.616   6.351  16.707 -0.3772 -0.2959 -0.4397
16527TIP3    H270997   6.587   6.302  16.847 -1.3087 -1.6729 -1.0890
16528TIP3   OH270998   2.842   4.676  12.120  0.2151  0.0752 -0.0315
16528TIP3    H170999   2.935   4.690  12.135  0.1880  0.4548 -0.1860
16528TIP3    H271000   2.825   4.718  12.035 -0.5420  2.0129  1.0169
16529TIP3   OH271001   1.429   2.343   5.438 -0.0891  0.0937  0.3482
16529TIP3    H171002   1.442   2.256   5.476  0.3972 -0.7667 -1.6711
16529TIP3    H271003   1.402   2.327   5.348  1.8587  2.0223 -0.6811
16530TIP3   OH271004   0.501   2.510  12.446  0.1980  0.0862  0.2374
16530TIP3    H171005   0.529   2.476  12.530  0.7850 -0.2474 -0.0926
16530TIP3    H271006   0.580   2.512  12.392  0.3641  2.5976  0.4323
16531TIP3   OH271007   1.368   6.213  13.742  0.3011 -0.3371  0.4643
16531TIP3    H171008   1.299   6.190  13.680  0.7851  0.1729 -0.2787
16531TIP3    H271009   1.419   6.132  13.753 -2.1706 -1.7180  3.4644
16532TIP3   OH271010   6.059   5.720  11.992  0.5068  0.4710 -0.3605
16532TIP3    H171011   6.018   5.732  11.907 -0.4716  2.6782  0.3467
16532TIP3    H271012   6.002   5.767  12.053  0.9133 -1.4265  1.6154
16533TIP3   OH271013   2.267   4.170  14.740 -0.0165  0.4036 -0.2583
16533TIP3    H171014   2.310   4.163  14.825 -2.1645 -2.3163  0.7599
16533TIP3    H271015   2.336   4.151  14.676  1.0466 -0.2513  1.0461
16534TIP3   OH271016   4.438   5.392   3.220  0.1266 -0.2542  0.1865
16534TIP3    H171017   4.504   5.324   3.207  0.3134 -0.4907  2.0380
16534TIP3    H271018   4.381   5.356   3.288  0.3755  1.5422  1.4030
16535TIP3   OH271019   4.199   0.968   3.577  0.0548  0.2220 -0.5392
16535TIP3    H171020   4.195   0.933   3.488 -0.7159  1.8397 -1.1961
16535TIP3    H271021   4.290   0.956   3.603  0.0978 -1.0585 -1.2045
16536TIP3   OH271022   2.079   3.664   0.775  0.0683  0.1597 -0.5118
16536TIP3    H171023   2.078   3.587   0.720  1.5956  1.0416 -1.8538
16536TIP3    H271024   2.165   3.702   0.762  0.0983  0.9936  1.6947
16537TIP3   OH271025   1.068   2.982   4.950 -0.2002 -0.3168  0.4454
16537TIP3    H171026   0.986   3.031   4.944  0.3653  1.0247  2.3879
16537TIP3    H271027   1.042   2.891   4.963 -1.3338 -0.1345 -0.4273
16538TIP3   OH271028   2.377   0.065  14.230 -0.0972 -0.2166 -0.3111
16538TIP3    H171029   2.440   0.012  14.182 -1.0397 -1.4002 -0.3069
16538TIP3    H271030   2.352   0.135  14.169  0.9375  0.0706 -0.4252
16539TIP3   OH271031   4.068   3.496  10.800 -0.1238  0.5832  0.1658
16539TIP3    H171032   4.090   3.505  10.893  0.6896 -4.2015  0.6994
16539TIP3    H271033   3.975   3.518  10.795 -0.2633  0.6332  2.1860
16540TIP3   OH271034   0.932   3.884  11.206  0.5743  0.0178  0.5964
16540TIP3    H171035   0.975   3.799  11.202  1.7739  0.6270  0.2651
16540TIP3    H271036   0.972   3.935  11.136 -0.0794  0.8925  0.8389
16541TIP3   OH271037   3.721   3.963  15.972 -0.2073 -0.0664 -0.2732
16541TIP3    H171038   3.635   4.002  15.958 -0.3106 -0.0941  0.2705
16541TIP3    H271039   3.723   3.888  15.912 -1.4273 -1.3670  1.2333
16542TIP3   OH271040   2.203   1.329  11.961 -0.1156 -0.6672  0.2866
16542TIP3    H171041   2.196   1.235  11.948  1.1818 -0.8332  0.5873
16542TIP3    H271042   2.206   1.365  11.872 -0.1390 -0.9591  0.1666
16543TIP3   OH271043   0.777   3.929   3.256 -0.4088  0.1038 -0.0041
16543TIP3    H171044   0.703   3.879   3.221 -1.1881  0.2628  1.3366
16543TIP3    H271045   0.851   3.906   3.199 -2.1042  2.4424 -3.5118
16544TIP3   OH271046   0.820   2.186   4.531  0.5951 -0.5770  0.2023
16544TIP3    H171047   0.906   2.156   4.501 -0.3494 -1.3661 -1.9576
16544TIP3    H271048   0.761   2.114   4.509 -0.8878  0.6673 -0.0142
16545TIP3   OH271049   6.198   5.650  16.972 -0.2124  0.0047  0.3980
16545TIP3    H171050   6.137   5.590  17.014 -1.1070  0.6381  0.0347
16545TIP3    H271051   6.259   5.676  17.042 -1.6981  1.0801  1.3401
16546TIP3   OH271052   6.745   4.995  11.750 -0.2283  0.1218  0.1909
16546TIP3    H171053   6.794   5.077  11.738  0.3719  0.0723  1.9773
16546TIP3    H271054   6.812   4.930  11.770 -0.5946 -1.1019 -2.2426
16547TIP3   OH271055   3.224   4.185  15.867  0.2304  0.4218 -0.1062
16547TIP3    H171056   3.243   4.264  15.816  1.5492 -0.6299 -1.3205
16547TIP3    H271057   3.153   4.142  15.820 -0.0789  0.5739  0.2177
16548TIP3   OH271058   2.862   6.550   3.844 -0.7892 -0.1154  0.2400
16548TIP3    H171059   2.857   6.455   3.856  1.5415 -0.1922  1.3069
16548TIP3    H271060   2.955   6.567   3.830 -1.3083  1.9071 -1.2099
16549TIP3   OH271061   3.477   3.065  13.816  0.4640  0.4067  0.1069
16549TIP3    H171062   3.522   2.981  13.812 -1.0163 -0.5881  2.5521
16549TIP3    H271063   3.405   3.057  13.754 -0.9428 -1.0225  1.8261
16550TIP3   OH271064   5.937   6.209   3.608 -0.2401  0.4936  0.6163
16550TIP3    H171065   5.935   6.118   3.639  0.3771  0.4083  0.4165
16550TIP3    H271066   5.857   6.218   3.555  1.6552 -1.2261 -2.9013
16551TIP3   OH271067   1.086   5.891   3.099 -0.4733 -0.2251  0.1907
16551TIP3    H171068   1.081   5.919   3.190 -0.5751  0.7533 -0.1100
16551TIP3    H271069   1.151   5.820   3.099 -1.7092 -1.4180  1.2981
16552TIP3   OH271070   3.233   6.706   4.146  0.3283  0.8208 -0.2788
16552TIP3    H171071   3.139   6.712   4.131  0.1365  0.3383  0.6440
16552TIP3    H271072   3.271   6.773   4.089 -0.6628  1.7457  0.1056
16553TIP3   OH271073   6.202   6.324  10.785  0.3218  0.7286 -0.9071
16553TIP3    H171074   6.127   6.294  10.733 -1.4532  0.0737  1.8101
16553TIP3    H271075   6.178   6.412  10.813  0.9299  0.8095 -0.6332
16554TIP3   OH271076   6.436   5.477  12.032  0.0263 -1.0590  0.3279
16554TIP3    H171077   6.502   5.423  12.076  0.6294  0.3269  1.1975
16554TIP3    H271078   6.372   5.496  12.100  0.2818  0.0180  0.2835
16555TIP3   OH271079   1.800   3.933  16.097 -0.3805  0.3543  0.2212
16555TIP3    H171080   1.843   3.911  16.179  0.2557 -0.3220 -0.2785
16555TIP3    H271081   1.711   3.901  16.107 -0.4060  0.5878  0.7757
16556TIP3   OH271082   4.135   0.347   1.646 -0.1096 -0.2036  0.4103
16556TIP3    H171083   4.076   0.319   1.575 -0.4038 -1.3417  1.0734
16556TIP3    H271084   4.187   0.269   1.666  0.9904  0.5228  0.4738
16557TIP3   OH271085   2.997   0.767   2.361  0.8047  0.3859  0.6699
16557TIP3    H171086   2.933   0.838   2.358  0.4389  0.0225 -1.4561
16557TIP3    H271087   3.021   0.752   2.269 -1.3959 -4.2270  0.5758
16558TIP3   OH271088   3.844   6.377   4.372  0.0391 -0.1503 -0.0329
16558TIP3    H171089   3.853   6.471   4.356 -0.5405 -0.1363 -0.2790
16558TIP3    H271090   3.755   6.367   4.405 -0.7763 -0.9165 -2.3217
16559TIP3   OH271091   1.309   5.012  14.613  0.5970  0.1319 -0.8310
16559TIP3    H171092   1.355   4.978  14.537 -0.9729  0.8362 -2.1571
16559TIP3    H271093   1.228   4.961  14.616  0.1510  0.8532 -0.2952
16560TIP3   OH271094   5.951   6.080  12.439 -0.1874 -0.0257 -0.2867
16560TIP3    H171095   5.964   6.071  12.534 -1.8870  1.3332  0.1528
16560TIP3    H271096   5.902   6.001  12.414 -2.1543  0.8420  0.5727
16561TIP3   OH271097   4.849   6.143   0.553  0.3511  0.4760  0.1134
16561TIP3    H171098   4.840   6.237   0.567  2.5312  0.6077  1.1820
16561TIP3    H271099   4.941   6.131   0.529  0.2107 -1.4111  0.3261
16562TIP3   OH271100   4.107   4.059  12.651  0.1189 -0.6873  0.0810
16562TIP3    H171101   4.123   4.046  12.558  2.0028  1.6168  0.0130
16562TIP3    H271102   4.139   3.979  12.692  1.6212 -0.7193 -1.0676
16563TIP3   OH271103   6.722   4.648  11.123 -0.1524  0.5527  0.3983
16563TIP3    H171104   6.666   4.723  11.107 -1.3160 -0.1661  0.9628
16563TIP3    H271105   6.707   4.625  11.215  1.8968  0.9862  0.9091
16564TIP3   OH271106   4.670   2.384  11.763  0.8257  0.0491 -0.3244
16564TIP3    H171107   4.599   2.447  11.775  1.0235  0.2683 -0.2835
16564TIP3    H271108   4.694   2.392  11.671  0.6149 -0.2214 -0.4026
16565TIP3   OH271109   3.805   2.360   1.516  0.2391 -0.1303  0.5566
16565TIP3    H171110   3.823   2.356   1.610 -1.9972 -0.8223  1.0057
16565TIP3    H271111   3.892   2.370   1.475  1.2966 -0.3232  2.6418
16566TIP3   OH271112   5.204   6.145  15.815  0.3987  0.1620  0.0551
16566TIP3    H171113   5.263   6.219  15.805 -0.5413  0.8927 -0.2285
16566TIP3    H271114   5.259   6.068  15.798  1.9623  0.5850  2.6330
16567TIP3   OH271115   3.926   6.351  15.182 -0.0816  0.7453 -0.2300
16567TIP3    H171116   3.989   6.290  15.143 -0.6330 -0.5312  0.8297
16567TIP3    H271117   3.964   6.374  15.267 -0.6665  0.5834  0.0778
16568TIP3   OH271118   4.469   4.310   5.591 -0.2479  0.1091 -0.4407
16568TIP3    H171119   4.396   4.361   5.627 -0.3745  0.3318 -1.0138
16568TIP3    H271120   4.488   4.351   5.507 -0.2866 -0.7263 -0.8641
16569TIP3   OH271121   0.663   6.737   2.128 -0.0843  0.2154 -0.3868
16569TIP3    H171122   0.696   6.647   2.129  0.6712  0.4841 -0.3530
16569TIP3    H271123   0.715   6.782   2.195 -1.2183  0.4226  0.3880
16570TIP3   OH271124   2.116   0.068   0.412  0.1543 -0.0340 -0.2164
16570TIP3    H171125   2.056  -0.001   0.441  0.3333  0.0095  0.2643
16570TIP3    H271126   2.203   0.029   0.421  0.3045  0.4680  0.7030
16571TIP3   OH271127   3.627   6.648   5.939  0.2558  0.2723 -0.4343
16571TIP3    H171128   3.590   6.605   5.862  1.5870  1.2621 -1.6975
16571TIP3    H271129   3.568   6.625   6.011 -0.2340 -1.8807 -1.4435
16572TIP3   OH271130   3.483   1.924   5.312  0.1159 -0.0368 -0.1427
16572TIP3    H171131   3.555   1.868   5.283 -0.7103 -2.2663  1.7974
16572TIP3    H271132   3.416   1.913   5.244  0.4406 -0.3998 -0.4086
16573TIP3   OH271133   4.962   4.777   0.582 -0.2809 -0.0858 -0.5873
16573TIP3    H171134   4.972   4.801   0.674  2.8410 -0.6298 -0.6743
16573TIP3    H271135   4.966   4.681   0.581 -0.8078 -0.1085 -1.2466
16574TIP3   OH271136   5.979   2.821   0.052  0.6653  0.7996  0.1862
16574TIP3    H171137   5.909   2.864   0.100  2.8390  1.5802  2.8989
16574TIP3    H271138   5.948   2.731   0.039 -1.5253  1.5840 -0.3770
16575TIP3   OH271139   6.080   1.748   5.196 -0.3260 -0.0571 -0.0065
16575TIP3    H171140   6.155   1.782   5.147  1.0342  1.0302  2.6079
16575TIP3    H271141   6.062   1.663   5.157  1.3779  0.2408 -1.5906
16576TIP3   OH271142   1.337   5.150   5.234 -0.4870  0.0842  0.1562
16576TIP3    H171143   1.290   5.088   5.179 -2.5876 -0.1787  2.0663
16576TIP3    H271144   1.426   5.116   5.239 -1.2853 -2.1521  0.2202
16577TIP3   OH271145   4.287   6.704  11.095 -0.7658 -0.4271 -0.0611
16577TIP3    H171146   4.219   6.756  11.138 -0.6762 -1.7547  1.8403
16577TIP3    H271147   4.279   6.725  11.002 -0.9895  2.6241  0.5396
16578TIP3   OH271148   3.470   5.952   4.277 -0.3357 -0.8567 -0.0304
16578TIP3    H171149   3.542   6.009   4.303 -0.8832  0.2056 -0.7791
16578TIP3    H271150   3.509   5.895   4.210 -0.3075  0.0928 -0.8496
16579TIP3   OH271151   2.974   1.410   2.922 -0.1186 -0.0318 -0.0276
16579TIP3    H171152   3.053   1.441   2.967 -0.6194  0.1611  0.7416
16579TIP3    H271153   3.007   1.367   2.843  0.6597  1.8058 -0.7868
16580TIP3   OH271154   1.094   4.971   0.497  0.0817 -0.7661 -0.4639
16580TIP3    H171155   1.104   4.924   0.414  0.3907 -0.0301 -0.8577
16580TIP3    H271156   1.028   5.038   0.478 -0.2502 -0.9444  0.0440
16581TIP3   OH271157   5.493   6.727  16.030  0.1594 -0.0333  0.0709
16581TIP3    H171158   5.535   6.739  16.115 -0.4074 -0.7605  0.4605
16581TIP3    H271159   5.479   6.633  16.023 -2.4758  0.2614  0.4924
16582TIP3   OH271160   6.369   1.219   4.955 -0.2846  0.2465 -0.0175
16582TIP3    H171161   6.440   1.240   5.016 -1.2104 -1.6813  1.8576
16582TIP3    H271162   6.327   1.142   4.993 -2.2045  0.1807 -2.0770
16583TIP3   OH271163   1.431   0.513   0.428 -0.3434 -0.4103 -0.3720
16583TIP3    H171164   1.461   0.440   0.374 -0.7614 -1.7310  1.1134
16583TIP3    H271165   1.336   0.506   0.427 -0.3589 -0.4902  0.5478
16584TIP3   OH271166   0.523   4.922   2.434 -0.7947 -0.6037  0.2047
16584TIP3    H171167   0.618   4.925   2.427 -0.8142 -1.2266 -0.5605
16584TIP3    H271168   0.494   5.008   2.404 -0.4645 -0.3321  0.6596
16585TIP3   OH271169   0.768   3.640   0.847 -0.3508  0.2585 -0.4173
16585TIP3    H171170   0.767   3.725   0.892  0.9401 -0.2872  0.7198
16585TIP3    H271171   0.675   3.618   0.836 -0.7085  1.1668  0.5388
16586TIP3   OH271172   6.281   2.913  16.082  0.2468 -0.6334 -0.3476
16586TIP3    H171173   6.188   2.893  16.093 -0.1220  0.4203 -1.3026
16586TIP3    H271174   6.326   2.832  16.105 -1.0024 -1.6934 -1.4738
16587TIP3   OH271175   2.878   2.187   5.407 -0.4547 -0.0744 -0.1206
16587TIP3    H171176   2.889   2.202   5.313  1.1231  1.3455  0.2447
16587TIP3    H271177   2.808   2.246   5.432  0.9669  1.6399  0.0303
16588TIP3   OH271178   4.069   0.809   2.159  0.0834  0.4335  0.0225
16588TIP3    H171179   4.113   0.792   2.242  1.3177 -1.6723 -0.9774
16588TIP3    H271180   4.141   0.812   2.095 -1.0662 -2.3217 -1.5630
16589TIP3   OH271181   3.576   1.472  16.215  0.3517 -0.3967 -0.5370
16589TIP3    H171182   3.599   1.471  16.308  2.5940 -1.5626 -1.0277
16589TIP3    H271183   3.515   1.398  16.205  2.2955 -2.1182 -0.3975
16590TIP3   OH271184   1.975   4.726  13.585 -0.3866  0.6088  0.0230
16590TIP3    H171185   2.042   4.701  13.648 -0.1333 -0.2004 -0.5475
16590TIP3    H271186   1.911   4.776  13.636 -0.1410  0.0482  0.8958
16591TIP3   OH271187   0.133   6.722  16.195 -0.5490 -0.3048  0.4633
16591TIP3    H171188   0.228   6.707  16.187 -0.3637  1.1651 -0.5543
16591TIP3    H271189   0.101   6.720  16.105 -1.1109  1.3121  0.5996
16592TIP3   OH271190   1.179   4.005  15.778 -0.0899 -0.7389  0.5349
16592TIP3    H171191   1.140   4.090  15.795  0.0241 -0.3934 -0.8508
16592TIP3    H271192   1.221   3.981  15.861  0.7107  0.9972  0.6783
16593TIP3   OH271193   1.071   5.102   6.458 -0.1270  0.4651  0.1099
16593TIP3    H171194   1.145   5.042   6.471  0.2297  0.9769  0.4840
16593TIP3    H271195   1.054   5.137   6.545  0.4865  1.8571 -0.3133
16594TIP3   OH271196   4.848   4.860   5.697 -0.2074 -0.0405 -0.0381
16594TIP3    H171197   4.790   4.788   5.675 -2.3961  1.3336  0.9211
16594TIP3    H271198   4.794   4.938   5.688  1.3114  1.2777  1.4940
16595TIP3   OH271199   3.871   4.917   4.118  0.0284  0.2484  0.3558
16595TIP3    H171200   3.885   5.011   4.102  0.1304  0.2177  0.2636
16595TIP3    H271201   3.780   4.902   4.093  0.5300 -0.0578 -1.4645
16596TIP3   OH271202   5.223   6.088  11.828  0.6172 -0.0704  0.3965
16596TIP3    H171203   5.309   6.115  11.795  0.9046 -1.1713  0.2007
16596TIP3    H271204   5.238   6.070  11.921  0.2036  1.3385  0.7597
16597TIP3   OH271205   3.809   5.180  12.879  0.2156  0.7498  0.0971
16597TIP3    H171206   3.791   5.249  12.943  0.3061  0.4743  0.4248
16597TIP3    H271207   3.759   5.204  12.802  0.7749  1.5394 -0.0284
16598TIP3   OH271208   4.990   0.784  14.961  0.0576  0.9013  0.2883
16598TIP3    H171209   4.986   0.878  14.945  2.6302  0.9500 -0.6090
16598TIP3    H271210   4.968   0.774  15.053  1.5535  2.6323  0.8935
16599TIP3   OH271211   1.681   0.294   0.457 -0.8585  0.0524  0.1054
16599TIP3    H171212   1.599   0.286   0.506 -0.2050  0.0303  1.2189
16599TIP3    H271213   1.749   0.274   0.521 -0.0280 -1.1496 -1.0923
16600TIP3   OH271214   3.161   5.793   5.468 -0.5111  0.0568  0.2758
16600TIP3    H171215   3.076   5.774   5.427  0.5128 -2.4884 -0.9020
16600TIP3    H271216   3.142   5.792   5.562 -1.8268 -0.2725  0.0349
16601TIP3   OH271217   0.196   5.844   3.453  0.0025  0.5948  0.7298
16601TIP3    H171218   0.107   5.836   3.418  0.1464 -0.7805  0.6375
16601TIP3    H271219   0.192   5.800   3.538  0.8013 -0.2619  0.3363
16602TIP3   OH271220   2.498   1.774   0.961  0.8857  0.2956 -0.0716
16602TIP3    H171221   2.552   1.765   1.040  0.2479  0.0232  0.3391
16602TIP3    H271222   2.527   1.856   0.922  0.0572  1.3025  1.3430
16603TIP3   OH271223   0.881   5.817   4.976 -0.5462 -0.4701 -0.3630
16603TIP3    H171224   0.835   5.883   4.924 -0.4138  2.9616  3.3380
16603TIP3    H271225   0.813   5.756   5.003 -1.2464 -0.3345 -1.7454
16604TIP3   OH271226   0.156   3.316  15.257  0.4068  0.3903  0.4196
16604TIP3    H171227   0.182   3.408  15.244 -1.7745  0.9646 -0.2244
16604TIP3    H271228   0.109   3.316  15.340  1.6611 -0.4658  1.1584
16605TIP3   OH271229   4.428   4.292  15.694  0.2753 -0.1382 -0.0642
16605TIP3    H171230   4.426   4.196  15.701 -1.1898 -0.1259 -0.0801
16605TIP3    H271231   4.349   4.315  15.645 -0.2415  1.1717  1.2979
16606TIP3   OH271232   3.290   5.287   5.839  0.6645  0.1701 -0.0781
16606TIP3    H171233   3.315   5.240   5.759  0.0400  0.3115 -0.3615
16606TIP3    H271234   3.342   5.246   5.908  0.0727 -1.0274 -0.2994
16607TIP3   OH271235   5.118   0.963  16.685 -0.1247  0.5204 -0.1138
16607TIP3    H171236   5.026   0.942  16.701 -0.4627 -0.4405 -2.7666
16607TIP3    H271237   5.153   0.983  16.771 -2.3082 -1.1637  1.2794
16608TIP3   OH271238   5.000   1.836   5.652 -0.2200  0.7589 -0.0227
16608TIP3    H171239   5.034   1.778   5.584 -1.3165  0.1230 -0.0448
16608TIP3    H271240   4.917   1.869   5.617 -0.8083  0.4192  0.9953
16609TIP3   OH271241   3.106   6.362  15.881 -0.0739  0.2444 -0.0408
16609TIP3    H171242   3.155   6.393  15.957  0.4187 -0.6835  0.0277
16609TIP3    H271243   3.155   6.287  15.849 -1.5082 -0.7830  0.0906
16610TIP3   OH271244   5.359   6.352  16.499  0.1481 -0.0146  0.2505
16610TIP3    H171245   5.298   6.298  16.550 -0.6807  0.1945 -0.4871
16610TIP3    H271246   5.338   6.442  16.525  1.0214 -0.0001  0.9301
16611TIP3   OH271247   4.256   6.546   0.312  0.1583  0.2312 -0.3709
16611TIP3    H171248   4.338   6.505   0.286 -1.1259 -1.9652 -1.2616
16611TIP3    H271249   4.201   6.473   0.340 -1.7782  1.5363 -0.5848
16612TIP3   OH271250   4.791   3.783  13.724 -0.6928  0.0809  0.5849
16612TIP3    H171251   4.769   3.691  13.733  1.0649 -0.5941 -1.3040
16612TIP3    H271252   4.715   3.822  13.680 -1.2966 -0.5334  1.0739
16613TIP3   OH271253   4.345   4.832  12.480  0.2344  0.1827 -0.0101
16613TIP3    H171254   4.329   4.833  12.386  0.6104 -0.1920 -0.0832
16613TIP3    H271255   4.372   4.742  12.499 -3.2019 -0.7638  1.0432
16614TIP3   OH271256   1.046   0.329  12.241 -0.2026 -0.5384 -0.0689
16614TIP3    H171257   0.971   0.275  12.263 -0.9958  0.4514 -0.2603
16614TIP3    H271258   1.036   0.407  12.295 -0.1541  0.2710 -1.1877
16615TIP3   OH271259   5.118   5.335  16.025  0.3380 -0.3536  0.2801
16615TIP3    H171260   5.035   5.380  16.037 -0.0851 -0.4122 -1.8970
16615TIP3    H271261   5.181   5.404  16.004  0.4467 -0.4535  0.2714
16616TIP3   OH271262   2.397   4.770   1.287  0.0696  0.2947 -0.2411
16616TIP3    H171263   2.408   4.865   1.280  0.9352  0.1273 -1.3025
16616TIP3    H271264   2.471   4.733   1.239  0.7571 -0.9492  1.6420
16617TIP3   OH271265   0.927   6.344  12.073  0.0452 -0.4002  0.0581
16617TIP3    H171266   0.905   6.252  12.082  1.0297 -0.6713 -0.2345
16617TIP3    H271267   0.991   6.347  12.002  0.8958  0.3613  0.8301
16618TIP3   OH271268   2.982   6.226   2.394 -0.0920 -0.1262  0.2556
16618TIP3    H171269   3.033   6.149   2.420  0.2186 -0.2966 -0.8024
16618TIP3    H271270   3.034   6.301   2.422  1.3752 -0.2737 -1.8700
16619TIP3   OH271271   2.580   0.828   1.520  0.1509  0.4233  0.5705
16619TIP3    H171272   2.536   0.865   1.443  0.9531 -0.2112 -0.2076
16619TIP3    H271273   2.508   0.804   1.579 -0.6231 -1.2458 -0.9666
16620TIP3   OH271274   1.093   3.473   0.273 -0.2936 -0.1328  0.0089
16620TIP3    H171275   1.155   3.422   0.324 -1.0769 -0.9449  0.1903
16620TIP3    H271276   1.139   3.493   0.192 -0.3992 -2.3593 -0.6783
16621TIP3   OH271277   5.115   5.883  14.445 -0.3651  0.1546  0.1577
16621TIP3    H171278   5.086   5.972  14.428  0.1853  0.6771  1.7565
16621TIP3    H271279   5.035   5.831  14.447 -0.7181  0.6711 -0.3858
16622TIP3   OH271280   4.814   4.338   1.440  0.5438 -0.2647  0.5488
16622TIP3    H171281   4.800   4.293   1.523 -0.1868 -1.8137 -0.3589
16622TIP3    H271282   4.735   4.320   1.389  1.9880 -1.4995 -1.4064
16623TIP3   OH271283   5.018   4.936   4.603 -0.2989 -0.0639 -0.5317
16623TIP3    H171284   4.938   4.946   4.654 -1.6724 -0.6784 -2.4207
16623TIP3    H271285   5.003   4.857   4.551  1.4014  0.0127 -1.2068
16624TIP3   OH271286   4.911   4.727  15.551  0.3446 -0.0565  0.0247
16624TIP3    H171287   4.887   4.644  15.592 -2.6695  0.8375  0.2918
16624TIP3    H271288   4.887   4.717  15.459  2.1577 -0.2079 -0.4853
16625TIP3   OH271289   6.429   2.646  11.734  0.2544  0.5594  0.4389
16625TIP3    H171290   6.377   2.635  11.814 -0.0486  1.6167  0.4007
16625TIP3    H271291   6.450   2.739  11.731  0.3299  0.5260 -0.6799
16626TIP3   OH271292   3.099   0.175   1.963  0.3743  0.0705  0.6303
16626TIP3    H171293   3.023   0.121   1.944  0.4575  0.7763 -2.1063
16626TIP3    H271294   3.090   0.197   2.056 -2.1313 -0.7760  0.6628
16627TIP3   OH271295   3.559   0.511   0.645 -0.3731  0.4105 -0.5229
16627TIP3    H171296   3.523   0.594   0.613 -1.7954  0.0438  0.0166
16627TIP3    H271297   3.502   0.444   0.606 -0.0705 -0.2194  0.0975
16628TIP3   OH271298   1.324   6.431   4.472  0.1475 -0.3188  0.6451
16628TIP3    H171299   1.251   6.373   4.496 -1.9294  1.7294 -0.2883
16628TIP3    H271300   1.327   6.495   4.544  1.1252 -0.4608  0.7319
16629TIP3   OH271301   6.722   6.096  12.657 -0.1740 -0.2692 -0.1441
16629TIP3    H171302   6.758   6.091  12.568 -0.5650 -1.0758 -0.2717
16629TIP3    H271303   6.627   6.096  12.644 -0.2563 -1.5011  0.2932
16630TIP3   OH271304   1.316   2.671  15.894 -0.1572 -0.1674  0.3896
16630TIP3    H171305   1.404   2.706  15.908 -0.3138  0.2939  0.2303
16630TIP3    H271306   1.258   2.744  15.913 -0.4586 -0.0851 -0.7541
16631TIP3   OH271307   5.306   0.581   3.652  0.1668 -0.6173 -0.3851
16631TIP3    H171308   5.354   0.499   3.643  1.4181  0.2583 -2.7377
16631TIP3    H271309   5.315   0.605   3.744  1.7182 -1.9970 -0.1281
16632TIP3   OH271310   2.210   4.825  15.490  0.1434 -0.5886 -0.0821
16632TIP3    H171311   2.216   4.911  15.448 -1.4013 -0.6966 -0.5943
16632TIP3    H271312   2.118   4.802  15.483  0.3100 -1.7399  1.1778
16633TIP3   OH271313   2.364   2.405   2.304 -0.1241  0.2141 -0.2463
16633TIP3    H171314   2.417   2.332   2.336  0.4924  1.2286  1.1179
16633TIP3    H271315   2.386   2.478   2.361 -0.5280  1.5659 -1.7518
16634TIP3   OH271316   0.481   5.303   3.357 -0.2885  0.0128  0.3200
16634TIP3    H171317   0.528   5.381   3.388 -0.9597  0.9585 -0.9243
16634TIP3    H271318   0.549   5.240   3.337  0.4437  1.0700 -0.6709
16635TIP3   OH271319   6.631   3.332   4.254  0.4039 -0.2811  0.2738
16635TIP3    H171320   6.611   3.243   4.224  2.6679 -1.1860  1.2845
16635TIP3    H271321   6.726   3.334   4.262  0.2451  1.5110  2.5307
16636TIP3   OH271322   5.178   5.236  12.044  0.4761  0.2076  0.0190
16636TIP3    H171323   5.187   5.317  12.094  1.4774  0.2358 -0.1822
16636TIP3    H271324   5.147   5.264  11.957 -0.3718  0.2422  0.3194
16637TIP3   OH271325   0.635   4.425  16.103 -0.4490 -0.1012  0.1039
16637TIP3    H171326   0.563   4.428  16.041  0.3024 -0.2318 -0.8014
16637TIP3    H271327   0.682   4.507  16.089 -0.6454  0.1780  0.9819
16638TIP3   OH271328   0.388   2.912   2.296  0.1400 -0.3732  0.3024
16638TIP3    H171329   0.321   2.979   2.286 -1.8545 -2.2400  0.3694
16638TIP3    H271330   0.417   2.921   2.387  1.3678  1.6059 -0.2222
16639TIP3   OH271331   6.197   5.647  11.131  0.4772  0.7990 -0.2463
16639TIP3    H171332   6.200   5.741  11.151 -0.6808  0.8075 -0.0150
16639TIP3    H271333   6.106   5.632  11.103  0.3432 -0.4452  0.7697
16640TIP3   OH271334   3.232   3.347   1.548  0.3966 -0.1194  0.0268
16640TIP3    H171335   3.168   3.276   1.543  0.8242 -0.5279  0.3184
16640TIP3    H271336   3.312   3.311   1.511  1.1327 -0.3871  1.7770
16641TIP3   OH271337   2.303   6.316   2.684 -0.0211 -0.7559 -0.0705
16641TIP3    H171338   2.289   6.411   2.687  1.5039 -0.4694 -1.1976
16641TIP3    H271339   2.216   6.280   2.665 -1.1036  0.1991  2.5771
16642TIP3   OH271340   6.044   1.789  14.370  0.4024  0.2619 -0.6643
16642TIP3    H171341   6.133   1.822  14.382  0.0873  1.0136 -0.3145
16642TIP3    H271342   6.001   1.807  14.454 -0.1938  0.2932 -0.9749
16643TIP3   OH271343   1.448   6.584   3.267  0.5952 -0.0967 -0.3125
16643TIP3    H171344   1.419   6.613   3.353  0.5684 -1.1812  0.0526
16643TIP3    H271345   1.502   6.657   3.234  2.5592 -0.5636  1.6181
16644TIP3   OH271346   0.116   1.447   5.790  0.4582 -0.2572  0.3990
16644TIP3    H171347   0.060   1.449   5.712  0.5413  0.5706  0.3474
16644TIP3    H271348   0.069   1.393   5.853  0.8096 -1.7404 -0.5299
16645TIP3   OH271349   1.310   2.451  12.276 -0.5601 -0.3740  0.4397
16645TIP3    H171350   1.215   2.458  12.269 -0.5749  1.7912  1.7624
16645TIP3    H271351   1.338   2.537  12.308  1.8982 -0.7917 -0.3582
16646TIP3   OH271352   5.586   0.297   3.355  0.1174 -0.3450  0.0574
16646TIP3    H171353   5.543   0.382   3.347  1.1548  0.2468  0.5427
16646TIP3    H271354   5.654   0.299   3.287 -0.3421 -1.1099 -0.4449
16647TIP3   OH271355   5.924   0.810   5.226 -0.5736  0.2674  0.0889
16647TIP3    H171356   5.988   0.842   5.290 -1.2397  0.0349  0.8825
16647TIP3    H271357   5.841   0.847   5.255 -0.9788 -0.3078 -0.3152
16648TIP3   OH271358   5.221   0.599   4.714 -0.1533 -0.8704  0.1828
16648TIP3    H171359   5.270   0.519   4.697 -2.5399 -2.2655 -0.5900
16648TIP3    H271360   5.185   0.624   4.629 -0.0819  0.5890  0.5548
16649TIP3   OH271361   6.271   2.704   0.125 -0.0711 -0.7841 -0.0402
16649TIP3    H171362   6.187   2.726   0.084  0.0096  0.0613  0.2356
16649TIP3    H271363   6.265   2.740   0.214  1.7696  2.1960 -0.9842
16650TIP3   OH271364   0.240   0.550  13.757 -0.2681 -0.4215  0.6291
16650TIP3    H171365   0.322   0.522  13.717 -0.6683 -2.0873  0.9016
16650TIP3    H271366   0.267   0.602  13.833  0.5020  0.6203 -0.3283
16651TIP3   OH271367   1.529   0.521  15.261 -0.2490 -0.2695  0.2880
16651TIP3    H171368   1.441   0.489  15.282 -0.4206 -1.3284 -1.7569
16651TIP3    H271369   1.515   0.583  15.189  0.6521 -0.3598  0.0226
16652TIP3   OH271370   3.287   2.874   0.909  0.6947 -0.0493 -0.4463
16652TIP3    H171371   3.290   2.959   0.954  1.9123 -0.0598 -0.4720
16652TIP3    H271372   3.212   2.882   0.849 -1.6250 -0.4139  2.2059
16653TIP3   OH271373   3.161   2.258  13.290 -0.0889 -0.0718  0.2320
16653TIP3    H171374   3.127   2.288  13.206 -1.2696  2.4219  1.4570
16653TIP3    H271375   3.093   2.283  13.353  0.6195 -2.0943  1.9224
16654TIP3   OH271376   0.916   6.062  13.897 -0.0478 -0.7578  0.0801
16654TIP3    H171377   0.833   6.056  13.943 -0.6816 -1.9486 -1.1371
16654TIP3    H271378   0.909   5.999  13.825  0.8367  1.0509 -1.7151
16655TIP3   OH271379   2.837   0.069   0.438 -0.0145  0.0178  0.1840
16655TIP3    H171380   2.757   0.116   0.415  0.5258  0.7910 -0.2001
16655TIP3    H271381   2.907   0.134   0.423  0.5706 -0.2089  1.7611
16656TIP3   OH271382   2.426   6.379   4.242 -0.4235  0.2947  0.3397
16656TIP3    H171383   2.362   6.427   4.296  0.0020 -0.5068  1.6063
16656TIP3    H271384   2.382   6.296   4.221  0.9229 -1.2686  3.1386
16657TIP3   OH271385   2.873   0.859   6.123 -0.5063  0.0079 -0.0955
16657TIP3    H171386   2.951   0.818   6.087 -1.8195 -2.4350 -0.3786
16657TIP3    H271387   2.896   0.881   6.213 -0.2941 -3.4949  0.8551
16658TIP3   OH271388   0.939   4.833   2.540 -0.4061 -0.3261 -0.4516
16658TIP3    H171389   0.871   4.867   2.481  0.6391  1.1762 -0.8359
16658TIP3    H271390   0.890   4.786   2.608 -1.7737 -0.0303 -1.1947
16659TIP3   OH271391   1.937   5.983  15.486 -0.6479 -0.5544 -0.3838
16659TIP3    H171392   1.954   5.923  15.414  0.1515  0.3724 -1.0104
16659TIP3    H271393   1.905   6.063  15.444  0.2312  0.1478  0.2271
16660TIP3   OH271394   3.267   2.808  16.034  0.5579  0.2046  0.0662
16660TIP3    H171395   3.238   2.851  15.954 -1.5202 -1.7485 -0.3535
16660TIP3    H271396   3.187   2.796  16.085  1.2311 -1.8516  0.7475
16661TIP3   OH271397   5.169   0.426   5.208  0.2527  0.0845 -0.0904
16661TIP3    H171398   5.200   0.510   5.243  0.1969 -0.2803  0.8596
16661TIP3    H271399   5.083   0.446   5.171  1.1300  0.8793 -1.7971
16662TIP3   OH271400   2.021   2.187  11.282 -0.2101  0.3485  0.1565
16662TIP3    H171401   1.970   2.165  11.203  0.6926  1.2113 -0.6966
16662TIP3    H271402   2.111   2.196  11.251  0.1082  1.0728  1.2277
16663TIP3   OH271403   4.366   5.903  13.496 -0.2007 -0.1799 -0.4733
16663TIP3    H171404   4.322   5.911  13.581  0.0541 -1.6025 -0.1730
16663TIP3    H271405   4.452   5.942  13.510 -0.5301  0.5382 -0.3928
16664TIP3   OH271406   6.062   4.019  16.643  0.1613 -0.0504 -0.1390
16664TIP3    H171407   5.992   4.064  16.691  0.8561  0.0298  0.8225
16664TIP3    H271408   6.016   3.970  16.575 -0.8794 -0.3167  0.7197
16665TIP3   OH271409   0.727   1.429  14.646 -0.2589 -0.2782 -0.4988
16665TIP3    H171410   0.729   1.513  14.692 -0.8490 -1.0156  0.9278
16665TIP3    H271411   0.732   1.452  14.553  0.8617  1.2586 -0.0922
16666TIP3   OH271412   2.529   3.362   5.040  0.0278 -0.4383  0.2197
16666TIP3    H171413   2.504   3.446   5.002  1.0602 -0.6273 -0.9258
16666TIP3    H271414   2.605   3.333   4.989  1.5651 -0.6708  2.4739
16667TIP3   OH271415   3.602   2.142   1.402 -0.1452 -0.0444  0.4149
16667TIP3    H171416   3.646   2.227   1.393  0.2372 -0.2301  0.5092
16667TIP3    H271417   3.652   2.097   1.470 -2.8038  1.2157  3.4690
16668TIP3   OH271418   2.183   4.090  12.638  0.8642 -0.1785  0.0403
16668TIP3    H171419   2.257   4.146  12.615  0.9469  0.1494  1.0868
16668TIP3    H271420   2.219   4.026  12.700  0.3137 -0.1398  0.4032
16669TIP3   OH271421   0.645   6.193  17.130  0.1983 -0.3235 -0.1497
16669TIP3    H171422   0.706   6.166  17.199  1.5584 -0.1581 -1.2409
16669TIP3    H271423   0.629   6.112  17.080  2.6485  0.2725 -2.1699
16670TIP3   OH271424   5.085   4.595  14.033 -0.0146  0.2645  0.0970
16670TIP3    H171425   5.156   4.554  14.081 -1.7204 -1.8351  0.9788
16670TIP3    H271426   5.085   4.552  13.948  0.7218  1.4065 -0.5095
16671TIP3   OH271427   6.645   3.432  11.443 -0.1130  0.2387 -0.2802
16671TIP3    H171428   6.556   3.397  11.446 -0.8189  1.9404 -0.4172
16671TIP3    H271429   6.634   3.524  11.417  1.8256 -0.0342 -2.3577
16672TIP3   OH271430   5.659   3.234  16.318 -0.2431  0.3511  0.2493
16672TIP3    H171431   5.656   3.266  16.228  1.6018 -0.0442  0.0024
16672TIP3    H271432   5.704   3.303  16.367 -0.2492  0.0854  0.6366
16673TIP3   OH271433   2.901   2.035  13.828  0.0081  0.3894  0.1519
16673TIP3    H171434   2.849   2.026  13.908  1.6066 -1.4373  1.0590
16673TIP3    H271435   2.976   2.088  13.854  1.0383 -1.0319  0.1593
16674TIP3   OH271436   6.274   4.520   2.165 -0.4339  0.5215 -0.1686
16674TIP3    H171437   6.208   4.562   2.218 -1.2158 -1.7179  0.7667
16674TIP3    H271438   6.236   4.515   2.077 -1.6763 -0.9814  0.4189
16675TIP3   OH271439   0.888   2.519  13.331 -0.5699 -0.2055 -0.6501
16675TIP3    H171440   0.919   2.429  13.339  0.6809  0.3787  3.1285
16675TIP3    H271441   0.817   2.525  13.395  1.4223  2.1619  1.5153
16676TIP3   OH271442   2.145   3.075  13.244  0.2506  0.1554  0.4902
16676TIP3    H171443   2.204   3.139  13.283  1.2242 -0.1836 -0.3785
16676TIP3    H271444   2.059   3.118  13.243  0.7772  1.2243  0.4381
16677TIP3   OH271445   4.427   4.507  12.316 -0.0201  0.8919 -0.2481
16677TIP3    H171446   4.404   4.530  12.226 -0.4834 -0.3187 -0.4630
16677TIP3    H271447   4.518   4.478  12.312  0.4400  2.2647 -0.0445
16678TIP3   OH271448   0.439   5.823   3.566 -0.7085  0.7373 -0.1234
16678TIP3    H171449   0.467   5.915   3.559  0.5273  0.4129  0.2127
16678TIP3    H271450   0.366   5.815   3.505 -1.1584  2.0691  0.2130
16679TIP3   OH271451   3.394   0.191  13.337  0.7302  0.1308 -0.0869
16679TIP3    H171452   3.460   0.121  13.347  1.0140  0.5501  1.2139
16679TIP3    H271453   3.438   0.269  13.370  0.7616  1.1844 -2.4524
16680TIP3   OH271454   5.821   5.832  15.715  0.4003  0.5431 -0.1391
16680TIP3    H171455   5.861   5.873  15.791  1.5289  0.1875 -0.5164
16680TIP3    H271456   5.743   5.787  15.749  1.0220  0.1826  0.8433
16681TIP3   OH271457   3.519   3.831   1.431  0.3350 -0.7116 -0.5684
16681TIP3    H171458   3.594   3.862   1.381  0.2696 -0.6570 -0.6333
16681TIP3    H271459   3.518   3.736   1.416  0.5143 -0.7404 -0.3972
16682TIP3   OH271460   1.216   1.700   2.050  0.3262 -0.4342 -0.0946
16682TIP3    H171461   1.172   1.747   2.121  1.0204 -0.8354  0.6308
16682TIP3    H271462   1.173   1.730   1.970 -0.1997  0.3430  0.4637
16683TIP3   OH271463   2.846   4.064   0.880  0.3653  0.3930  0.2602
16683TIP3    H171464   2.838   3.982   0.832 -1.4609  0.2166  0.7832
16683TIP3    H271465   2.909   4.045   0.949 -0.9119 -0.9846  1.1111
16684TIP3   OH271466   3.194   1.115   6.027 -0.6190  0.4650  0.1237
16684TIP3    H171467   3.182   1.140   6.118  2.8353  1.8184  0.3835
16684TIP3    H271468   3.159   1.189   5.977 -0.4691  0.7713  0.4674
16685TIP3   OH271469   5.319   0.757  13.763  0.5529  0.6063  0.3700
16685TIP3    H171470   5.236   0.731  13.723  1.4646  0.5405 -1.5892
16685TIP3    H271471   5.303   0.845  13.796 -0.5108  0.2991  0.7256
16686TIP3   OH271472   5.292   4.127   2.161 -0.4773 -0.1830 -0.1793
16686TIP3    H171473   5.297   4.038   2.196 -1.8170 -0.4192 -0.5311
16686TIP3    H271474   5.315   4.184   2.234 -1.0711 -0.7644  0.4735
16687TIP3   OH271475   3.880   2.311  17.183  0.1880  0.4002  0.6216
16687TIP3    H171476   3.923   2.396  17.177 -0.0915  0.6911  2.2051
16687TIP3    H271477   3.873   2.295  17.277 -0.6979 -0.9043  0.3537
16688TIP3   OH271478   6.755   5.708   2.856 -0.4030 -0.1691 -0.5642
16688TIP3    H171479   6.827   5.760   2.891  0.2235 -0.8548 -0.8105
16688TIP3    H271480   6.770   5.707   2.762  0.0610 -1.4444 -0.5004
16689TIP3   OH271481   6.216   5.671  14.494 -0.3087  0.1002  0.1906
16689TIP3    H171482   6.132   5.694  14.455 -1.3637 -2.2324  0.8798
16689TIP3    H271483   6.274   5.655  14.420 -1.1284 -0.3578 -0.3779
16690TIP3   OH271484   0.342   1.640  12.662  0.1830 -0.6438 -0.4915
16690TIP3    H171485   0.395   1.625  12.584 -0.6471  0.4669 -1.2977
16690TIP3    H271486   0.404   1.636  12.735  1.2835  0.0551 -1.3613
16691TIP3   OH271487   2.412   2.324  15.409  0.0476 -0.6989  0.6683
16691TIP3    H171488   2.479   2.257  15.415  1.2609  0.3274 -0.5950
16691TIP3    H271489   2.362   2.301  15.331  0.9531  0.2108 -0.2274
16692TIP3   OH271490   3.237   5.481   6.275 -0.0755  0.4178  0.4256
16692TIP3    H171491   3.168   5.484   6.209  1.1461 -0.2057 -0.9277
16692TIP3    H271492   3.278   5.395   6.265 -2.0416 -1.2129  4.3847
16693TIP3   OH271493   0.814   1.793   2.969 -0.3735 -0.0093 -0.3047
16693TIP3    H171494   0.735   1.792   2.914 -1.9562  1.4938  1.7837
16693TIP3    H271495   0.845   1.883   2.965  1.1264 -0.5285 -0.8876
16694TIP3   OH271496   2.863   4.464  15.239  0.4336  0.3050 -0.3315
16694TIP3    H171497   2.769   4.452  15.221  0.6742 -1.9835 -0.3495
16694TIP3    H271498   2.883   4.551  15.205 -1.5633  0.6134 -0.8513
16695TIP3   OH271499   0.550   2.374   2.875 -0.0222  0.6260 -0.0702
16695TIP3    H171500   0.641   2.393   2.852  0.6488 -0.6316  1.4200
16695TIP3    H271501   0.554   2.293   2.925 -1.7928  1.3369  1.3159
16696TIP3   OH271502   5.092   0.523   2.798 -0.3400 -0.3911 -0.4456
16696TIP3    H171503   5.066   0.431   2.793 -1.7324 -0.0167 -0.6724
16696TIP3    H271504   5.167   0.530   2.739 -0.7707 -1.2086 -1.1201
16697TIP3   OH271505   6.314   1.896   2.811 -0.0006 -0.0417  0.3613
16697TIP3    H171506   6.271   1.819   2.773 -0.0557  0.5878 -0.8785
16697TIP3    H271507   6.396   1.904   2.762  1.2726 -0.8362  2.2568
16698TIP3   OH271508   5.578   6.307   4.858 -0.0017  0.7713 -0.5919
16698TIP3    H171509   5.625   6.390   4.864  0.4979  0.5283 -1.1508
16698TIP3    H271510   5.508   6.315   4.924  0.8286  1.1118  0.2646
16699TIP3   OH271511   0.278   4.860   4.805  0.9987  0.2307  0.0818
16699TIP3    H171512   0.240   4.940   4.768 -0.1513  0.3257  1.3733
16699TIP3    H271513   0.372   4.877   4.807  0.7513  1.7569  0.7138
16700TIP3   OH271514   3.131   4.148  16.131 -0.1263  0.5383  0.5547
16700TIP3    H171515   3.080   4.228  16.120 -1.0093  0.0951  1.2989
16700TIP3    H271516   3.177   4.138  16.048 -0.0299  1.7899  0.4309
16701TIP3   OH271517   0.441   4.775  16.181 -0.1103  0.6400  0.4032
16701TIP3    H171518   0.443   4.860  16.136  1.8448  0.4389  0.0261
16701TIP3    H271519   0.504   4.785  16.254  0.2229 -0.5005  0.2900
16702TIP3   OH271520   5.778   2.622   4.598  0.1819 -0.3659 -0.3873
16702TIP3    H171521   5.770   2.595   4.690 -0.6903 -0.6861 -0.5519
16702TIP3    H271522   5.787   2.718   4.603 -0.8719 -0.2648  0.0050
16703TIP3   OH271523   3.631   0.163   3.186  0.0515  0.2111 -0.4528
16703TIP3    H171524   3.633   0.121   3.272 -0.5440  1.1000  0.0122
16703TIP3    H271525   3.645   0.256   3.205 -2.5118  0.7773 -1.0583
16704TIP3   OH271526   2.830   5.255   1.204  0.6752  0.0686  0.5819
16704TIP3    H171527   2.835   5.189   1.274 -0.3678 -1.4444 -0.6879
16704TIP3    H271528   2.877   5.215   1.131 -0.0723  0.6907 -0.2560
16705TIP3   OH271529   2.854   6.197  16.102 -0.1230  0.6343 -0.3067
16705TIP3    H171530   2.939   6.183  16.143 -0.1530  0.2524 -0.3741
16705TIP3    H271531   2.859   6.149  16.020 -1.5338 -2.1887  1.1146
16706TIP3   OH271532   5.724   0.815  12.792 -0.3956 -0.2459  0.5942
16706TIP3    H171533   5.736   0.867  12.712  2.0072  1.7495  2.1050
16706TIP3    H271534   5.647   0.854  12.834  0.6770  1.4073  1.1204
16707TIP3   OH271535   3.214   2.432  16.618  0.0376  0.5276 -0.0834
16707TIP3    H171536   3.163   2.500  16.663 -0.4849  2.2111 -2.9335
16707TIP3    H271537   3.272   2.481  16.560  2.1919 -1.4643  0.2500
16708TIP3   OH271538   3.344   0.517  12.991  0.0102  0.1335 -0.3618
16708TIP3    H171539   3.344   0.595  12.934 -1.7260  1.3348  1.1752
16708TIP3    H271540   3.343   0.552  13.080  0.1191 -1.6730  0.3938
16709TIP3   OH271541   5.522   4.709   3.762 -0.1774  0.0863  0.2809
16709TIP3    H171542   5.493   4.797   3.736  0.7919  0.5652  0.7574
16709TIP3    H271543   5.604   4.724   3.809  0.4595 -1.1566 -0.3857
16710TIP3   OH271544   6.594   4.584  17.319  0.2822  0.4437  0.1086
16710TIP3    H171545   6.613   4.566  17.227  1.8274  1.1438  0.2720
16710TIP3    H271546   6.666   4.542  17.367  0.1519  1.1336  0.9248
16711TIP3   OH271547   4.266   5.827   0.743 -0.8850 -0.1321 -0.0952
16711TIP3    H171548   4.322   5.793   0.814 -0.8433 -0.3388 -0.2256
16711TIP3    H271549   4.277   5.922   0.747  0.9993 -0.2572 -1.3749
16712TIP3   OH271550   4.057   0.696  15.343 -0.1127  0.0368 -0.1072
16712TIP3    H171551   4.055   0.636  15.269  1.2342  0.6691 -0.6826
16712TIP3    H271552   4.150   0.706  15.364 -0.4718 -0.7070  2.1658
16713TIP3   OH271553   2.993   4.350   5.431 -0.3212 -0.5950  0.5543
16713TIP3    H171554   3.003   4.445   5.439  0.0384 -0.2940 -2.4113
16713TIP3    H271555   3.042   4.314   5.505  1.7485  1.4981  0.2912
16714TIP3   OH271556   3.945   1.186  10.391 -0.0019 -0.2770 -0.8703
16714TIP3    H171557   3.875   1.193  10.456 -0.1013 -0.4747 -0.9561
16714TIP3    H271558   3.970   1.276  10.373 -0.2706 -0.2027 -0.8782
16715TIP3   OH271559   1.646   3.725   3.308 -0.7371  0.4473 -0.1959
16715TIP3    H171560   1.555   3.699   3.293 -0.7176 -0.5093  1.1580
16715TIP3    H271561   1.686   3.722   3.221 -1.5298 -1.0256 -0.5382
16716TIP3   OH271562   3.625   6.295   4.517  0.0734 -0.1792  0.5055
16716TIP3    H171563   3.585   6.382   4.515 -1.6602 -0.9397 -0.2972
16716TIP3    H271564   3.571   6.244   4.578 -1.9008 -1.9128 -2.4025
16717TIP3   OH271565   0.663   5.686  17.013  0.0388  0.1976  0.0949
16717TIP3    H171566   0.618   5.695  16.929 -0.3674 -1.1195  0.1520
16717TIP3    H271567   0.753   5.665  16.990  0.3311  1.4705 -0.0051
16718TIP3   OH271568   1.151   0.568  16.724  0.2667  0.0127 -0.4961
16718TIP3    H171569   1.205   0.635  16.765  1.4036 -0.1493 -1.6837
16718TIP3    H271570   1.158   0.493  16.784 -0.9329  0.8712  0.7828
16719TIP3   OH271571   4.871   0.294  13.874  0.2568 -0.6882 -0.7054
16719TIP3    H171572   4.903   0.380  13.846  0.6227 -0.2979  0.8482
16719TIP3    H271573   4.785   0.286  13.831  1.0876 -0.4584 -2.4971
16720TIP3   OH271574   0.781   1.646   2.691  0.0485  0.2968 -0.0227
16720TIP3    H171575   0.747   1.564   2.656  0.2039  0.3160 -0.2181
16720TIP3    H271576   0.865   1.622   2.732 -0.5980  0.0851  1.2347
16721TIP3   OH271577   3.040   5.244  14.716 -0.0705 -0.0049 -0.3851
16721TIP3    H171578   3.013   5.180  14.782 -2.1002  0.4920 -0.6587
16721TIP3    H271579   3.076   5.191  14.645  0.0252 -0.7036  0.1684
16722TIP3   OH271580   1.587   5.156  15.286  0.2408 -0.2308  0.3972
16722TIP3    H171581   1.494   5.140  15.274  0.1805 -0.5608  1.2491
16722TIP3    H271582   1.592   5.224  15.353  0.6119 -0.4346  0.5814
16723TIP3   OH271583   0.906   0.819  13.523 -0.3690  0.0887 -0.3276
16723TIP3    H171584   0.914   0.741  13.579  0.8105 -1.0074 -1.9348
16723TIP3    H271585   0.938   0.891  13.576  0.6255 -0.9047  0.4498
16724TIP3   OH271586   0.545   6.469   3.277  0.5168  1.1423  0.6731
16724TIP3    H171587   0.484   6.493   3.346  0.6107  0.5268  0.9717
16724TIP3    H271588   0.631   6.464   3.320  0.4551 -0.0222  0.6936
16725TIP3   OH271589   0.276   6.130  14.693 -0.3727 -0.2115  0.1426
16725TIP3    H171590   0.242   6.080  14.619  0.6036 -2.0507  0.8864
16725TIP3    H271591   0.360   6.164  14.661 -1.6100  2.2018 -0.8210
16726TIP3   OH271592   0.931   5.586   3.269  0.3732  0.2546 -0.0148
16726TIP3    H171593   0.916   5.514   3.330  1.5031  1.1054  1.3199
16726TIP3    H271594   1.006   5.557   3.216 -1.9306 -1.4289 -2.6110
16727TIP3   OH271595   1.969   1.499  14.592  0.7158  0.5340  0.2088
16727TIP3    H171596   1.987   1.408  14.617 -2.8243 -0.0925  1.0150
16727TIP3    H271597   2.055   1.541  14.591  2.4598 -2.7292  0.0738
16728TIP3   OH271598   6.487   4.407  12.292 -0.1508 -0.0346 -0.2078
16728TIP3    H171599   6.484   4.363  12.377  1.6051 -2.8411 -1.4502
16728TIP3    H271600   6.404   4.386  12.251  0.1230 -1.0966 -0.2461
16729TIP3   OH271601   2.272   0.199   0.207 -0.0148 -0.2696 -0.0027
16729TIP3    H171602   2.241   0.228   0.121  0.8830  1.6045  0.2572
16729TIP3    H271603   2.213   0.127   0.231 -1.1716  0.1129 -1.5501
16730TIP3   OH271604   4.066   5.245  12.907 -0.9521 -0.1719 -0.2121
16730TIP3    H171605   3.984   5.197  12.897 -0.5408 -1.0668  0.4950
16730TIP3    H271606   4.090   5.271  12.818 -2.0169  0.1454 -0.4175
16731TIP3   OH271607   2.763   4.869   3.548 -0.2704  0.2020 -0.1677
16731TIP3    H171608   2.704   4.941   3.527  0.5640  0.9511 -0.0397
16731TIP3    H271609   2.850   4.901   3.521  0.4567  0.1810  1.9029
16732TIP3   OH271610   5.266   3.710  16.639 -0.1115  0.6432  0.4341
16732TIP3    H171611   5.229   3.625  16.662  1.8261  0.3627  2.9724
16732TIP3    H271612   5.358   3.704  16.665  1.0230  2.3724 -2.5716
16733TIP3   OH271613   1.048   4.537  12.828  0.5251  0.2484 -0.2635
16733TIP3    H171614   0.976   4.499  12.878 -0.1015  2.2051  0.3841
16733TIP3    H271615   1.125   4.523  12.882  0.3417 -0.2591 -0.1288
16734TIP3   OH271616   4.438   4.216  16.635 -0.1516 -0.5656 -0.1877
16734TIP3    H171617   4.445   4.197  16.542  0.6858 -0.3053 -0.1855
16734TIP3    H271618   4.455   4.132  16.678  0.6859 -0.4302 -0.2450
16735TIP3   OH271619   0.254   5.183   5.499  0.1782  0.1743 -0.0363
16735TIP3    H171620   0.256   5.134   5.417 -0.2293  0.5798 -0.2954
16735TIP3    H271621   0.321   5.250   5.488  0.4994 -0.1063  0.1823
16736TIP3   OH271622   3.600   6.137  13.992  0.1213 -0.3841 -0.2464
16736TIP3    H171623   3.628   6.121  14.082 -0.5042 -1.2335 -0.1872
16736TIP3    H271624   3.505   6.124  13.994  0.0875 -0.2853 -0.9996
16737TIP3   OH271625   3.376   2.209   1.241 -0.4881  0.8870  0.2433
16737TIP3    H171626   3.438   2.178   1.306  1.6831 -0.5186 -2.2789
16737TIP3    H271627   3.337   2.129   1.205 -0.5962  1.5179 -1.0976
16738TIP3   OH271628   2.990   5.110   2.892  0.0243 -0.1872 -0.1980
16738TIP3    H171629   3.008   5.109   2.798 -0.8903 -0.1392 -0.3800
16738TIP3    H271630   2.964   5.201   2.910 -1.6300 -0.6165 -0.2680
16739TIP3   OH271631   4.002   4.125   1.588  0.1926 -0.1905 -0.5350
16739TIP3    H171632   4.029   4.175   1.666  0.2615 -0.4151 -0.4143
16739TIP3    H271633   3.911   4.100   1.607 -0.3421  1.1092 -1.2136
16740TIP3   OH271634   2.669   0.119   3.057  0.1204  0.4601 -0.0479
16740TIP3    H171635   2.588   0.163   3.083  0.6218  2.6651 -1.9295
16740TIP3    H271636   2.717   0.107   3.139 -0.4861  2.5884  0.6616
16741TIP3   OH271637   5.274   0.821   5.086  0.1357 -0.4212  0.2721
16741TIP3    H171638   5.278   0.746   5.146  3.4809  0.6757  1.6487
16741TIP3    H271639   5.359   0.820   5.042 -1.1080  0.5620 -2.3667
16742TIP3   OH271640   5.937   3.811  17.139  0.1809  0.8917 -0.2977
16742TIP3    H171641   5.909   3.756  17.066  0.0618 -1.0548  1.1173
16742TIP3    H271642   6.022   3.774  17.166 -0.7431  0.1305  1.8359
16743TIP3   OH271643   4.591   2.758  15.665  0.1312 -0.2431 -0.2300
16743TIP3    H171644   4.633   2.745  15.580  0.7685  0.4444 -0.0237
16743TIP3    H271645   4.524   2.689  15.669  1.1696 -1.3033 -0.6044
16744TIP3   OH271646   1.175   3.093  12.363  0.6138  0.2443 -0.2275
16744TIP3    H171647   1.160   3.013  12.414 -1.0677  0.7938  0.2113
16744TIP3    H271648   1.235   3.066  12.293  1.3075 -1.0167  0.8115
16745TIP3   OH271649   1.674   0.649   0.495 -0.7087 -0.1526 -0.7113
16745TIP3    H171650   1.594   0.596   0.486 -2.7499  2.3965  0.8192
16745TIP3    H271651   1.667   0.715   0.426 -0.2490  0.4286 -0.2157
16746TIP3   OH271652   2.206   2.670  11.670  0.1911  0.1350 -0.5144
16746TIP3    H171653   2.157   2.752  11.665  1.0040  0.8190  1.6834
16746TIP3    H271654   2.292   2.692  11.634 -0.3137 -0.4275 -2.1379
16747TIP3   OH271655   1.271   1.644  14.141 -0.3822 -0.8209  0.6453
16747TIP3    H171656   1.295   1.583  14.211 -0.7564  0.5399  2.0274
16747TIP3    H271657   1.351   1.694  14.124 -0.1129 -1.5679 -0.3827
16748TIP3   OH271658   0.879   4.033   2.802  0.3101  0.6060 -0.6061
16748TIP3    H171659   0.865   3.978   2.724 -0.3742  0.3600 -0.3155
16748TIP3    H271660   0.859   4.122   2.773  0.5802  0.5893 -0.8509
16749TIP3   OH271661   4.133   5.214  14.882 -0.0494  0.1211 -0.3169
16749TIP3    H171662   4.052   5.165  14.894  0.2607  0.0209  1.9391
16749TIP3    H271663   4.116   5.271  14.807 -1.6251 -0.9951 -0.8630
16750TIP3   OH271664   5.926   3.081   3.090 -0.0104 -0.2401 -0.4835
16750TIP3    H171665   5.866   3.141   3.133  0.3104  0.4224 -0.9431
16750TIP3    H271666   5.872   3.030   3.030  0.0720  1.3154 -1.9346
16751TIP3   OH271667   4.966   4.087  12.004 -0.5623  0.4599 -0.5034
16751TIP3    H171668   4.934   4.063  11.918 -0.2228 -0.5136 -0.3709
16751TIP3    H271669   4.965   4.005  12.054 -1.5600  1.1671  0.6785
16752TIP3   OH271670   5.832   5.910  14.341 -0.1236  0.0279 -0.1240
16752TIP3    H171671   5.844   5.915  14.246  2.5767 -1.1417  0.0531
16752TIP3    H271672   5.861   5.821  14.364  0.3175  0.6446  1.8802
16753TIP3   OH271673   2.824   6.299  13.427 -0.5119 -0.1492  0.0464
16753TIP3    H171674   2.768   6.375  13.414  0.6985  0.6095 -0.8623
16753TIP3    H271675   2.851   6.273  13.339  0.2471 -0.7366  0.4392
16754TIP3   OH271676   1.377   0.058   2.889  0.4267  0.4358 -0.2243
16754TIP3    H171677   1.338  -0.028   2.875 -0.3569  0.8226 -0.5070
16754TIP3    H271678   1.429   0.049   2.969 -0.6366  0.0227  0.4367
16755TIP3   OH271679   0.829   5.845  10.579 -0.2360  0.0091 -0.4442
16755TIP3    H171680   0.891   5.917  10.589  0.1055 -0.3552  0.0971
16755TIP3    H271681   0.873   5.783  10.521 -0.5378  0.2334 -0.9269
16756TIP3   OH271682   0.852   5.452   6.118  0.6869 -0.2191  0.3544
16756TIP3    H171683   0.820   5.385   6.057  1.4833  1.4423 -1.9860
16756TIP3    H271684   0.912   5.405   6.176 -0.8984 -2.0530  0.6064
16757TIP3   OH271685   3.873   3.273   0.287  0.2377  0.4368 -0.3756
16757TIP3    H171686   3.793   3.307   0.246 -0.7225  0.1848  1.2107
16757TIP3    H271687   3.909   3.348   0.335 -1.5898 -0.4561  2.6802
16758TIP3   OH271688   0.043   3.082  15.743  0.0336 -0.8398 -0.2064
16758TIP3    H171689   0.137   3.068  15.732  0.0264 -0.2429 -1.1847
16758TIP3    H271690   0.002   3.035  15.671 -0.4409 -1.1841  0.2724
16759TIP3   OH271691   5.001   3.315  16.532 -0.0028  0.0669  0.0874
16759TIP3    H171692   5.042   3.228  16.531 -1.1879 -0.5222  0.3198
16759TIP3    H271693   4.951   3.319  16.451 -0.6319  0.1796  0.4721
16760TIP3   OH271694   1.335   2.893  16.718  0.5852 -0.2432  0.2497
16760TIP3    H171695   1.347   2.800  16.703 -1.9923 -1.0364  2.4064
16760TIP3    H271696   1.285   2.924  16.643 -0.8211 -1.2218  0.7477
16761TIP3   OH271697   4.848   2.103  11.883 -0.4026 -0.1224 -0.0995
16761TIP3    H171698   4.861   2.149  11.800 -0.9883 -0.2807 -0.2810
16761TIP3    H271699   4.934   2.107  11.926 -0.6443  1.8657  0.2627
16762TIP3   OH271700   4.459   0.334   5.062  0.0766 -0.2177 -0.6282
16762TIP3    H171701   4.401   0.279   5.009 -2.8460  0.2625  1.7852
16762TIP3    H271702   4.477   0.283   5.140  2.7471 -0.1877 -1.1412
16763TIP3   OH271703   1.162   1.248   2.553 -0.0558 -0.3017  0.1926
16763TIP3    H171704   1.112   1.255   2.471 -0.4200 -0.5376  0.3911
16763TIP3    H271705   1.187   1.156   2.558  2.4092  0.2242 -1.0633
16764TIP3   OH271706   6.453   2.933  15.766  0.0103 -0.3700  0.3481
16764TIP3    H171707   6.488   2.846  15.747  2.3627  0.5587  0.1526
16764TIP3    H271708   6.389   2.949  15.696  1.0041 -1.1776 -0.7810
16765TIP3   OH271709   0.333   6.507   3.480  0.6632 -0.0069 -0.2273
16765TIP3    H171710   0.394   6.569   3.520 -0.7610  0.5760  1.1586
16765TIP3    H271711   0.349   6.424   3.526  0.8219 -0.0037 -0.2780
16766TIP3   OH271712   6.146   4.447   0.024 -0.1546  0.5730 -0.1758
16766TIP3    H171713   6.079   4.489   0.079  1.5400  1.7449  1.0967
16766TIP3    H271714   6.097   4.414  -0.052 -2.3436  0.3044  1.2450
16767TIP3   OH271715   4.658   5.892  15.811  0.5552  0.2596  0.1483
16767TIP3    H171716   4.680   5.901  15.718  1.0599  0.0760  0.2477
16767TIP3    H271717   4.566   5.867  15.811  0.4428  0.6497 -0.2886
16768TIP3   OH271718   3.506   2.055   0.842 -1.0349 -0.7577 -0.7978
16768TIP3    H171719   3.486   1.971   0.883 -2.1702  0.2660  0.8745
16768TIP3    H271720   3.485   2.042   0.750 -0.5816 -2.4840 -0.6959
16769TIP3   OH271721   0.359   4.793  14.327  0.6207 -0.1175  0.0184
16769TIP3    H171722   0.268   4.810  14.305  0.9012  0.3442 -0.8227
16769TIP3    H271723   0.387   4.872  14.374  0.3005 -0.6954  1.2088
16770TIP3   OH271724   5.014   0.066  12.931  0.4706 -0.1136  0.0083
16770TIP3    H171725   4.979   0.029  12.850 -2.0085  3.7415 -0.9791
16770TIP3    H271726   5.069   0.139  12.902  0.4135  0.6716  1.7435
16771TIP3   OH271727   0.337   3.365  13.363  0.3090  0.2758  0.3957
16771TIP3    H171728   0.260   3.387  13.312 -0.3728  1.8436  1.9944
16771TIP3    H271729   0.388   3.446  13.367  0.0652  0.3948  2.5838
16772TIP3   OH271730   5.547   2.614  14.129 -0.3417  0.2434  0.3064
16772TIP3    H171731   5.517   2.623  14.220 -0.5601  1.2296  0.1555
16772TIP3    H271732   5.483   2.556  14.088 -1.0186  0.8761  0.4485
16773TIP3   OH271733   5.431   5.188   2.594  0.0957  0.0722  0.1162
16773TIP3    H171734   5.426   5.140   2.677  0.7752  0.4081  0.3658
16773TIP3    H271735   5.370   5.144   2.536  0.2328 -0.6925  0.5458
16774TIP3   OH271736   0.038   5.050   3.087 -0.3310  0.1235 -0.1549
16774TIP3    H171737  -0.003   5.065   3.172 -0.1547 -0.5501  0.0556
16774TIP3    H271738   0.023   5.131   3.038 -0.1899  0.6264  0.6154
16775TIP3   OH271739   1.609   0.768   0.742  0.0856  0.2297  0.7089
16775TIP3    H171740   1.628   0.721   0.660 -1.7944  0.3873  0.1230
16775TIP3    H271741   1.656   0.850   0.734  1.7927 -0.6947  0.8466
16776TIP3   OH271742   4.780   3.934  12.530 -0.3796 -0.1340 -0.5459
16776TIP3    H171743   4.847   3.882  12.575 -1.1851 -1.0714 -0.3995
16776TIP3    H271744   4.829   4.002  12.484  0.7179 -1.0707 -0.7979
16777TIP3   OH271745   1.969   1.256  12.214  0.3057 -0.2027  0.2006
16777TIP3    H171746   2.043   1.202  12.185 -0.0221 -0.5770  0.0471
16777TIP3    H271747   1.924   1.201  12.279 -0.0089 -0.0960  0.0709
16778TIP3   OH271748   0.402   1.218  13.227  0.3389 -0.2560  0.2690
16778TIP3    H171749   0.475   1.219  13.164 -0.9438  0.8372 -1.3103
16778TIP3    H271750   0.331   1.173  13.181  0.0308 -1.4678  1.8463
16779TIP3   OH271751   2.971   3.116  15.468 -0.5963 -0.2197  0.1778
16779TIP3    H171752   2.882   3.138  15.493 -1.2039 -1.4090 -0.8439
16779TIP3    H271753   2.998   3.186  15.408  0.2180  1.6568  2.5751
16780TIP3   OH271754   0.496   2.910   1.288 -0.2186 -0.1080 -0.1449
16780TIP3    H171755   0.439   2.982   1.259 -1.3742 -0.6558  0.7009
16780TIP3    H271756   0.568   2.954   1.334 -1.6074  0.4930  1.5515
16781TIP3   OH271757   6.035   5.376  12.668 -0.0350  0.6195 -0.4020
16781TIP3    H171758   6.007   5.453  12.718  0.8575  2.4273 -2.5059
16781TIP3    H271759   6.130   5.384  12.663 -0.0640  0.2771 -1.9897
16782TIP3   OH271760   4.343   0.091   0.112  0.5904 -0.0995 -0.4995
16782TIP3    H171761   4.364   0.125   0.025  1.9284 -1.1266 -0.6217
16782TIP3    H271762   4.426   0.097   0.161  0.6539 -2.1972 -0.2361
16783TIP3   OH271763   4.863   2.650  12.508  0.3668 -0.4299 -0.1801
16783TIP3    H171764   4.800   2.655  12.436  0.1838 -0.7426 -0.0412
16783TIP3    H271765   4.944   2.619  12.466  0.7820  1.0991 -0.5803
16784TIP3   OH271766   2.992   5.723   0.746 -0.1250 -0.2122 -0.2270
16784TIP3    H171767   2.909   5.753   0.709  0.3241  0.7407 -0.4992
16784TIP3    H271768   3.058   5.751   0.682  0.4498 -0.5153  0.2231
16785TIP3   OH271769   2.183   1.162  10.709  0.0999 -0.3891  0.3951
16785TIP3    H171770   2.189   1.191  10.800 -0.6843 -1.0342  0.6632
16785TIP3    H271771   2.251   1.212  10.664  2.5947 -2.1976  1.8721
16786TIP3   OH271772   1.087   5.310  15.509  0.0900 -0.0498  0.8306
16786TIP3    H171773   1.006   5.261  15.497 -0.8273  1.3891  0.9579
16786TIP3    H271774   1.142   5.253  15.562 -0.1903 -1.7320 -0.5839
16787TIP3   OH271775   2.351   0.341  13.704 -0.1959 -1.1102 -0.3943
16787TIP3    H171776   2.406   0.368  13.631 -2.1596 -0.1519 -1.5963
16787TIP3    H271777   2.352   0.416  13.763  0.8203 -1.6137  0.2599
16788TIP3   OH271778   0.341   4.901  10.720 -0.3783 -0.2750 -0.1159
16788TIP3    H171779   0.344   4.996  10.705 -2.7647 -0.3102 -1.3619
16788TIP3    H271780   0.418   4.867  10.674 -0.3804  0.9267 -1.0621
16789TIP3   OH271781   6.678   3.568  14.190 -0.8747 -0.7775  0.7927
16789TIP3    H171782   6.747   3.634  14.190 -1.3373 -0.2589  2.5520
16789TIP3    H271783   6.715   3.495  14.141 -0.3443  0.7241 -1.2183
16790TIP3   OH271784   0.319   5.978   5.196 -0.6403  0.4763 -0.2695
16790TIP3    H171785   0.287   6.061   5.234 -1.4494 -0.0892  0.3332
16790TIP3    H271786   0.377   5.942   5.263  0.9007  1.2319 -1.1349
16791TIP3   OH271787   3.070   1.171  13.305  0.2064  0.2585 -0.8247
16791TIP3    H171788   3.136   1.183  13.237 -0.0581  1.7371 -0.8407
16791TIP3    H271789   3.117   1.187  13.387 -0.3071  2.3032 -0.8843
16792TIP3   OH271790   0.012   2.729  17.196 -0.2212 -0.2968  0.0784
16792TIP3    H171791   0.081   2.677  17.238  0.3046 -0.9062 -1.4673
16792TIP3    H271792   0.017   2.814  17.238  0.7910 -0.6480  0.7064
16793TIP3   OH271793   0.308   6.235   3.542  0.2808  0.0206  0.5583
16793TIP3    H171794   0.311   6.152   3.590 -0.9935 -0.4650 -0.1455
16793TIP3    H271795   0.359   6.218   3.462 -2.7962 -1.3588 -1.3351
16794TIP3   OH271796   2.768   3.065   0.378  0.0664  0.5731  0.0448
16794TIP3    H171797   2.701   3.133   0.371  1.6363  2.4039  1.7136
16794TIP3    H271798   2.769   3.041   0.470  0.5718 -0.6424 -0.2604
16795TIP3   OH271799   3.973   1.112   2.396 -0.5635  0.3415  0.3696
16795TIP3    H171800   3.993   1.041   2.456  2.0323  1.3662  0.8323
16795TIP3    H271801   3.883   1.095   2.367 -0.4472 -2.3971  1.4030
16796TIP3   OH271802   2.073   0.831   0.449 -0.4765  0.4362  0.4506
16796TIP3    H171803   2.001   0.830   0.386 -0.1231  0.1081  0.0439
16796TIP3    H271804   2.038   0.791   0.528 -0.8845  0.7314  0.4199
16797TIP3   OH271805   3.400   5.426   4.399 -0.2722 -0.3442  0.1932
16797TIP3    H171806   3.493   5.435   4.376 -0.3027 -0.4317  0.0308
16797TIP3    H271807   3.383   5.498   4.460 -0.5673  0.8218 -1.2211
16798TIP3   OH271808   3.076   4.437   3.335  0.2268 -0.1048 -0.5994
16798TIP3    H171809   3.025   4.447   3.414 -0.5228  2.5583 -1.3370
16798TIP3    H271810   3.105   4.346   3.337 -2.9758 -1.2361  0.7665
16799TIP3   OH271811   3.734   1.179   1.454 -0.3589 -0.2916 -0.2082
16799TIP3    H171812   3.648   1.220   1.454 -0.1423  0.2536  1.6736
16799TIP3    H271813   3.747   1.150   1.364 -1.3079  2.1743 -1.2377
16800TIP3   OH271814   1.517   3.533   2.016 -0.2809 -0.1530  0.1045
16800TIP3    H171815   1.523   3.463   1.950  0.8054 -0.7246  0.7668
16800TIP3    H271816   1.606   3.541   2.050 -0.8091  0.1240  1.5044
16801TIP3   OH271817   1.328   5.115  17.106 -0.1366 -0.0739 -0.2640
16801TIP3    H171818   1.370   5.030  17.119 -0.4240 -0.4262 -1.5396
16801TIP3    H271819   1.395   5.179  17.130  0.6781 -0.6490 -0.9405
16802TIP3   OH271820   5.161   2.107  16.259  0.1301 -0.0579  0.1797
16802TIP3    H171821   5.125   2.165  16.326 -0.2068 -0.9863  0.8202
16802TIP3    H271822   5.090   2.096  16.197 -0.7733 -1.9454  1.4786
16803TIP3   OH271823   0.945   3.677  10.949 -0.0501 -0.1269  0.5748
16803TIP3    H171824   0.870   3.676  10.890  0.4009 -0.0129 -0.0179
16803TIP3    H271825   1.021   3.663  10.891  0.3314 -0.9013  1.2454
16804TIP3   OH271826   4.251   5.387   4.634 -0.6780  0.2000 -0.1742
16804TIP3    H171827   4.245   5.327   4.560  2.6101 -0.0505 -0.4095
16804TIP3    H271828   4.240   5.474   4.596  1.9708  0.1485 -1.2730
16805TIP3   OH271829   2.256   4.880  15.038 -0.1739  0.5181  0.0306
16805TIP3    H171830   2.177   4.914  15.080  0.3281  0.5463  0.9831
16805TIP3    H271831   2.301   4.958  15.004 -0.6937  0.4746 -0.7827
16806TIP3   OH271832   6.091   2.301  12.978 -0.4276 -0.2032  0.1065
16806TIP3    H171833   6.000   2.292  12.950 -0.0010 -0.4816 -1.2682
16806TIP3    H271834   6.126   2.371  12.923  0.1493  0.0318  0.7568
16807TIP3   OH271835   5.863   1.503  13.025  0.3400 -0.5047 -0.5101
16807TIP3    H171836   5.866   1.582  12.970  0.4338  0.0422  0.2719
16807TIP3    H271837   5.872   1.536  13.114  2.6756 -1.5781 -0.2964
16808TIP3   OH271838   1.931   2.633  16.037 -0.0191  0.3907  0.4643
16808TIP3    H171839   1.855   2.588  16.075  1.0467  0.7759  3.2503
16808TIP3    H271840   1.916   2.726  16.056  0.2073  0.7149 -0.8074
16809TIP3   OH271841   1.094   0.933   6.317  0.1744 -0.1328  0.1831
16809TIP3    H171842   1.175   0.967   6.355  0.2093 -0.9779  0.8960
16809TIP3    H271843   1.049   1.010   6.283  0.7111  0.4885  0.8557
16810TIP3   OH271844   5.497   1.859  12.210  0.2592 -0.1764  0.0027
16810TIP3    H171845   5.453   1.798  12.268 -1.9780  0.2797 -1.1142
16810TIP3    H271846   5.471   1.945  12.241 -0.8806  0.0787 -1.5125
16811TIP3   OH271847   5.418   3.093  13.467 -0.3517  0.1007 -0.0338
16811TIP3    H171848   5.359   3.038  13.518  0.0480 -0.5246 -0.2333
16811TIP3    H271849   5.504   3.053  13.480  0.1435  1.3685  0.7796
16812TIP3   OH271850   0.182   5.001   4.573  0.4376  0.2690  0.3261
16812TIP3    H171851   0.151   4.998   4.482  0.5412  0.3251  0.2879
16812TIP3    H271852   0.180   5.094   4.596 -2.0832  0.0468  1.2616
16813TIP3   OH271853   0.695   1.419  15.906 -0.2482  0.6645  0.3963
16813TIP3    H171854   0.694   1.338  15.855  1.8380  1.2247 -0.6465
16813TIP3    H271855   0.622   1.409  15.967 -2.9766 -0.0223 -2.6772
16814TIP3   OH271856   3.358   4.887   0.279 -0.4456 -0.5572 -0.2635
16814TIP3    H171857   3.441   4.907   0.236  1.1581 -1.1547  2.3550
16814TIP3    H271858   3.297   4.952   0.243  1.6990  1.3940 -0.6476
16815TIP3   OH271859   1.199   5.420  14.880  0.1348  0.0311  0.1695
16815TIP3    H171860   1.132   5.425  14.948  0.5833 -3.3042  1.0521
16815TIP3    H271861   1.274   5.467  14.915 -0.9538  1.8991  0.1142
16816TIP3   OH271862   6.027   6.050  16.384  0.2673 -0.0232  0.4922
16816TIP3    H171863   6.065   6.079  16.301 -0.4577 -1.2133 -0.2881
16816TIP3    H271864   6.088   5.983  16.416 -0.2988 -0.7446  0.0783
16817TIP3   OH271865   3.989   4.183   4.820  0.5839 -0.2587  0.2714
16817TIP3    H171866   3.948   4.256   4.867  0.4149  0.0993 -0.4263
16817TIP3    H271867   3.990   4.111   4.884 -0.0826  0.0765  0.6686
16818TIP3   OH271868   6.292   5.466  10.860 -0.0867  0.1343 -0.1727
16818TIP3    H171869   6.215   5.432  10.905 -0.2434  0.7183  0.0094
16818TIP3    H271870   6.265   5.470  10.768 -0.0509 -0.2764 -0.2015
16819TIP3   OH271871   3.410   3.333  13.277 -0.3636  0.6295  0.6270
16819TIP3    H171872   3.422   3.348  13.371 -1.0189 -2.3545  1.2805
16819TIP3    H271873   3.499   3.338  13.241  0.2559 -0.6740  1.8662
16820TIP3   OH271874   1.580   1.055   1.257 -0.4443  0.0244  0.0539
16820TIP3    H171875   1.623   1.141   1.257 -1.3471  0.4866 -0.3972
16820TIP3    H271876   1.593   1.022   1.168  0.3261 -0.5442  0.3599
16821TIP3   OH271877   1.171   3.296   5.766  0.1940 -0.1614  0.4348
16821TIP3    H171878   1.187   3.364   5.701 -1.8668 -0.9728 -1.0323
16821TIP3    H271879   1.097   3.329   5.817 -0.4701 -1.0187  0.0617
16822TIP3   OH271880   5.506   2.740  14.649  0.0253 -0.0203 -0.0099
16822TIP3    H171881   5.585   2.794  14.651 -0.2828  0.5595 -1.6936
16822TIP3    H271882   5.490   2.717  14.740  1.8106  0.3162  0.4244
16823TIP3   OH271883   1.047   2.656  12.520 -0.3380 -0.1541  0.3342
16823TIP3    H171884   1.005   2.655  12.434  1.2702  0.3556 -0.5051
16823TIP3    H271885   1.060   2.563  12.541 -2.1704 -0.3310  0.7914
16824TIP3   OH271886   5.820   4.992   3.031 -0.2636 -0.2826  0.0830
16824TIP3    H171887   5.804   5.016   3.122  1.6237 -0.6538  0.5576
16824TIP3    H271888   5.761   4.918   3.015 -0.0566 -0.7268  1.2712
16825TIP3   OH271889   0.290   2.309   0.618 -0.4167  0.0308 -0.1382
16825TIP3    H171890   0.300   2.318   0.523 -1.2788 -0.1966 -0.2618
16825TIP3    H271891   0.214   2.251   0.628 -0.6716  0.4992  0.6941
16826TIP3   OH271892   1.451   1.202  15.865 -0.2952  0.0420 -0.0960
16826TIP3    H171893   1.542   1.231  15.864 -0.6265  1.1653  0.4634
16826TIP3    H271894   1.450   1.125  15.921  0.1507  0.6475  0.7607
16827TIP3   OH271895   2.011   4.675  14.478  0.0315  0.0297 -0.0338
16827TIP3    H171896   1.999   4.765  14.446  0.3888  0.4131  0.8743
16827TIP3    H271897   1.923   4.638  14.480  0.0566 -0.3025 -2.2225
16828TIP3   OH271898   0.049   6.305   2.492  0.5079 -0.1527  0.0495
16828TIP3    H171899  -0.008   6.332   2.420  1.0086  2.0853  0.4104
16828TIP3    H271900   0.110   6.243   2.453  0.7497  0.9878 -1.4825
16829TIP3   OH271901   1.074   5.689   3.478  0.3812 -0.2834 -0.4414
16829TIP3    H171902   1.017   5.628   3.525 -1.6194  1.8541  0.0950
16829TIP3    H271903   1.037   5.692   3.389  1.7289 -1.3142 -1.0794
16830TIP3   OH271904   4.652   0.696   5.870 -0.4509 -0.0786  0.7300
16830TIP3    H171905   4.708   0.760   5.914  1.0500 -0.4168 -0.6189
16830TIP3    H271906   4.698   0.613   5.880 -1.0695 -0.4921  0.2034
16831TIP3   OH271907   3.553   6.584   1.357 -0.3283  0.0031  0.6118
16831TIP3    H171908   3.550   6.580   1.261  1.9414 -0.5935  0.5211
16831TIP3    H271909   3.461   6.581   1.383 -0.9604 -1.3960 -1.4902
16832TIP3   OH271910   5.000   1.855  15.184 -0.8440  0.2064  0.7571
16832TIP3    H171911   4.956   1.781  15.223 -0.4032  1.4484  3.8932
16832TIP3    H271912   4.953   1.932  15.217  0.7022  1.4057  0.3093
16833TIP3   OH271913   1.571   5.903  11.830  0.3233 -0.3136  1.0770
16833TIP3    H171914   1.571   5.858  11.915 -0.2107 -0.7053  0.8719
16833TIP3    H271915   1.656   5.883  11.792 -0.0632 -1.5047  0.8029
16834TIP3   OH271916   1.321   0.488   2.196 -0.1439  0.1673  0.0618
16834TIP3    H171917   1.386   0.478   2.127  0.0781 -0.2537  0.3253
16834TIP3    H271918   1.242   0.446   2.162 -1.4378  3.6383 -1.7098
16835TIP3   OH271919   3.351   6.682   3.039 -0.2988 -0.3997 -0.0764
16835TIP3    H171920   3.372   6.759   2.987  3.8431 -1.0634  0.2309
16835TIP3    H271921   3.329   6.716   3.125 -3.0505  0.5153 -1.0490
16836TIP3   OH271922   6.482   0.717   4.753 -0.2020 -0.1082 -0.0578
16836TIP3    H171923   6.499   0.694   4.661 -1.2802 -0.7362 -0.1173
16836TIP3    H271924   6.532   0.653   4.803  0.0305 -0.0441 -0.2044
16837TIP3   OH271925   2.184   1.039   2.965 -0.3933  0.1819 -0.5026
16837TIP3    H171926   2.129   1.070   3.036  0.6283  1.7179 -0.3178
16837TIP3    H271927   2.185   0.944   2.974 -1.5080  0.2590  0.5926
16838TIP3   OH271928   6.691   6.701  16.955  0.2232 -0.1124  0.4688
16838TIP3    H171929   6.756   6.658  17.010 -1.7865 -0.0464  3.0687
16838TIP3    H271930   6.624   6.635  16.940  0.5703 -0.0443 -1.7949
16839TIP3   OH271931   3.493   1.194   1.069  0.0479  0.4072  0.4464
16839TIP3    H171932   3.508   1.125   1.133 -2.9185 -0.4968  0.2936
16839TIP3    H271933   3.484   1.274   1.121  1.8839  0.4493  0.7521
16840TIP3   OH271934   4.597   5.357   4.412  0.6923  0.0504  0.1589
16840TIP3    H171935   4.590   5.397   4.498  1.9335  2.4885 -0.7665
16840TIP3    H271936   4.529   5.401   4.360  0.9730 -0.2654 -0.4895
16841TIP3   OH271937   1.190   5.026  16.756 -0.3008 -0.1325  0.6644
16841TIP3    H171938   1.227   5.034  16.668 -0.3622  1.4812  0.7530
16841TIP3    H271939   1.163   5.115  16.778 -3.5415 -1.0627  0.9170
16842TIP3   OH271940   0.593   2.933  13.855  0.2568 -0.2193  0.0565
16842TIP3    H171941   0.671   2.880  13.870  0.6231  0.8321  2.2109
16842TIP3    H271942   0.597   3.003  13.920 -2.1739  0.2328 -0.1529
16843TIP3   OH271943   3.092   6.545  13.631 -0.0655  0.3500 -0.0226
16843TIP3    H171944   3.182   6.575  13.633 -0.4057  1.3943  0.0899
16843TIP3    H271945   3.043   6.616  13.589 -0.9009 -0.0137  0.2927
16844TIP3   OH271946   3.175   2.639  15.537  0.2785 -0.0293 -0.2047
16844TIP3    H171947   3.173   2.673  15.448  0.2676  0.0580 -0.1710
16844TIP3    H271948   3.135   2.552  15.531  1.2137 -0.4502 -0.4678
16845TIP3   OH271949   2.362   0.035   5.636 -0.5129  0.4224  0.0209
16845TIP3    H171950   2.267   0.042   5.631 -0.5827  0.1820  0.8315
16845TIP3    H271951   2.377  -0.045   5.686  0.0783  1.2164  1.1809
16846TIP3   OH271952   1.385   4.137  10.683  0.1549 -0.0651  0.1415
16846TIP3    H171953   1.446   4.206  10.658 -1.1878  0.2950 -2.5085
16846TIP3    H271954   1.420   4.103  10.765  3.0984  1.0446 -0.5153
16847TIP3   OH271955   5.718   0.960   5.347  0.3388  0.4238 -0.0014
16847TIP3    H171956   5.691   1.019   5.276  0.7548  0.2286 -0.3326
16847TIP3    H271957   5.643   0.903   5.361  0.8109 -0.6544 -1.4775
16848TIP3   OH271958   1.699   5.555  11.420 -0.2510 -0.0982  0.4519
16848TIP3    H171959   1.769   5.587  11.364 -0.4313 -0.3130  0.1021
16848TIP3    H271960   1.644   5.632  11.436 -0.9440 -0.3153 -0.7773
16849TIP3   OH271961   1.425   6.140   4.645  0.2968  0.3111 -0.2395
16849TIP3    H171962   1.505   6.145   4.593 -0.1731  2.0341 -0.8665
16849TIP3    H271963   1.356   6.170   4.586 -0.3813  1.5109  1.0909
16850TIP3   OH271964   5.691   2.159   1.483 -0.4910  0.4244  0.3205
16850TIP3    H171965   5.703   2.074   1.526  1.2467  0.9231  0.8881
16850TIP3    H271966   5.599   2.158   1.454 -0.1932 -2.1816 -0.8460
16851TIP3   OH271967   6.609   5.514   1.579 -0.0314 -0.1041  0.2592
16851TIP3    H171968   6.584   5.475   1.663  1.9612  0.1103  0.9903
16851TIP3    H271969   6.615   5.608   1.598 -0.8578  0.1183 -0.4893
16852TIP3   OH271970   4.765   4.878  11.098 -0.2519 -0.6176 -0.4669
16852TIP3    H171971   4.796   4.890  11.008  0.9068 -0.2915 -0.0400
16852TIP3    H271972   4.672   4.857  11.088 -0.2550 -0.1203 -1.7113
16853TIP3   OH271973   4.749   2.700   4.129 -0.2952 -0.0235  0.3526
16853TIP3    H171974   4.804   2.630   4.165 -1.1748 -0.2293  1.3274
16853TIP3    H271975   4.781   2.779   4.171 -0.7198 -0.1439  0.9211
16854TIP3   OH271976   0.408   4.204   2.454  0.5120 -0.0050 -0.2669
16854TIP3    H171977   0.396   4.166   2.368  0.6073  2.1015 -1.2658
16854TIP3    H271978   0.320   4.226   2.484  0.5957  0.7486 -0.5552
16855TIP3   OH271979   5.592   0.348   4.838 -0.1482 -0.8022 -0.2065
16855TIP3    H171980   5.526   0.317   4.777 -1.8395  0.2657  0.9926
16855TIP3    H271981   5.560   0.321   4.924  0.0282  1.2440  0.5599
16856TIP3   OH271982   0.882   0.068   5.967  0.4303 -0.1989  0.1760
16856TIP3    H171983   0.874   0.143   6.026  0.2907 -0.1329  0.0709
16856TIP3    H271984   0.831  -0.001   6.010  0.8767 -0.3514  0.4682
16857TIP3   OH271985   5.203   0.145  16.126  0.0665  0.3968 -0.1776
16857TIP3    H171986   5.264   0.128  16.054 -1.1423  1.4165 -1.5061
16857TIP3    H271987   5.128   0.088  16.109  0.1205  0.0148  0.7787
16858TIP3   OH271988   2.675   5.709  15.853 -0.1881  0.1033 -0.3981
16858TIP3    H171989   2.592   5.717  15.807 -0.3298 -0.3475 -0.2302
16858TIP3    H271990   2.740   5.742  15.791 -0.4916  0.4763 -0.5202
16859TIP3   OH271991   2.190   3.301   0.160  0.0207  0.3160  0.4953
16859TIP3    H171992   2.262   3.244   0.185 -0.2288  1.0187  3.0797
16859TIP3    H271993   2.121   3.242   0.131  1.6767 -0.3591 -2.5726
16860TIP3   OH271994   0.166   2.609   4.991 -0.3091 -0.6417  0.1390
16860TIP3    H171995   0.259   2.625   5.009 -0.1339 -1.2808 -0.1644
16860TIP3    H271996   0.147   2.527   5.036 -1.0284  0.0533  1.1527
16861TIP3   OH271997   5.067   1.916   6.293  0.7031 -0.2379 -0.0773
16861TIP3    H171998   5.143   1.940   6.240  1.3930 -1.2003  0.4530
16861TIP3    H271999   5.094   1.838   6.341 -0.1890  0.1428  1.0954
16862TIP3   OH272000   2.729   1.753  15.190 -0.1526 -0.4153  0.4811
16862TIP3    H172001   2.774   1.670  15.174 -1.1687 -0.8708 -0.1591
16862TIP3    H272002   2.650   1.748  15.135  0.4087  1.5308 -0.6088
16863TIP3   OH272003   3.913   6.223   3.472 -0.6756 -0.2932  0.1011
16863TIP3    H172004   3.856   6.212   3.549 -3.0555  1.6224 -1.2414
16863TIP3    H272005   3.964   6.142   3.468 -0.3674 -0.4382  3.7001
16864TIP3   OH272006   2.341   4.215  13.809  0.0655  0.3842  0.0552
16864TIP3    H172007   2.387   4.290  13.848  0.7092 -0.3499  0.7363
16864TIP3    H272008   2.397   4.189  13.735  0.2261  0.1151  0.2715
16865TIP3   OH272009   5.054   6.450   0.481  0.0024  0.0756  0.4540
16865TIP3    H172010   5.148   6.438   0.470 -0.2137 -0.9214 -0.4725
16865TIP3    H272011   5.018   6.440   0.393 -0.9786  0.4815  0.7914
16866TIP3   OH272012   1.640   3.706   0.984 -0.3436  0.0268  0.6189
16866TIP3    H172013   1.704   3.700   0.914  1.4956 -1.9630  2.2865
16866TIP3    H272014   1.639   3.798   1.009  1.9536  0.1173  0.5523
16867TIP3   OH272015   1.594   0.055  11.378 -0.0629  0.0472 -0.2256
16867TIP3    H172016   1.545   0.034  11.458 -1.4698  1.8037 -0.5665
16867TIP3    H272017   1.571   0.146  11.359  1.3940  0.1254 -1.8417
16868TIP3   OH272018   4.789   2.238   1.185 -0.2069 -0.1909 -0.1521
16868TIP3    H172019   4.741   2.158   1.165  1.3841 -0.7319 -2.0642
16868TIP3    H272020   4.817   2.271   1.100  3.4818 -0.3573  0.8513
16869TIP3   OH272021   6.002   5.927  16.701 -0.8525 -0.0062  0.8249
16869TIP3    H172022   5.997   6.022  16.714 -2.1371  0.1313 -0.3112
16869TIP3    H272023   6.065   5.916  16.629  1.3751 -0.2680  2.7226
16870TIP3   OH272024   4.147   0.340  12.419  0.6557  0.6833  0.4284
16870TIP3    H172025   4.077   0.404  12.405  1.8043  1.9378  0.1785
16870TIP3    H272026   4.202   0.378  12.488  0.9154 -0.4391  0.8690
16871TIP3   OH272027   0.988   3.555  11.193 -0.0835 -0.3559 -0.6806
16871TIP3    H172028   1.062   3.494  11.188 -2.4146 -3.4300 -1.3102
16871TIP3    H272029   0.965   3.572  11.102 -0.6465 -0.1027 -0.4960
16872TIP3   OH272030   3.210   0.766   5.047 -0.1048 -0.6780  0.2195
16872TIP3    H172031   3.170   0.689   5.007 -1.0988  0.6134 -1.4390
16872TIP3    H272032   3.249   0.813   4.973 -1.5500  1.5508  0.7677
16873TIP3   OH272033   2.968   4.736  12.619 -0.1388 -0.3074 -0.1290
16873TIP3    H172034   3.031   4.695  12.559 -0.1292 -0.9037  0.2824
16873TIP3    H272035   2.998   4.711  12.706  0.1811  1.0476  0.1594
16874TIP3   OH272036   0.556   6.182  16.150 -0.2740 -0.1922  0.2092
16874TIP3    H172037   0.590   6.235  16.077 -0.6618 -1.6348 -1.0742
16874TIP3    H272038   0.504   6.243  16.202 -1.1215  0.6149 -1.4988
16875TIP3   OH272039   2.109   2.210   2.692 -0.1130 -0.3202  0.1045
16875TIP3    H172040   2.030   2.156   2.689 -0.9757  0.8535  0.7924
16875TIP3    H272041   2.127   2.221   2.786  0.1884  0.3591 -0.0257
16876TIP3   OH272042   4.586   1.002  15.489  0.6049  0.0952 -0.5013
16876TIP3    H172043   4.603   1.078  15.434  1.8614 -0.7956 -1.4081
16876TIP3    H272044   4.629   0.929  15.443  0.1578 -1.0062  0.7576
16877TIP3   OH272045   4.527   4.799   2.445 -0.2091 -0.3696  0.7281
16877TIP3    H172046   4.518   4.888   2.413  0.3171 -0.2379  0.9315
16877TIP3    H272047   4.606   4.766   2.402 -0.8156 -0.9979  0.0623
16878TIP3   OH272048   1.667   1.673  14.900 -0.1018  0.3375 -0.7469
16878TIP3    H172049   1.655   1.653  14.993  0.9392  0.1843 -0.6269
16878TIP3    H272050   1.760   1.693  14.892  0.0004 -0.5123 -1.9119
16879TIP3   OH272051   6.435   4.666  14.660  0.4265 -0.3858  0.6630
16879TIP3    H172052   6.413   4.641  14.570 -0.8102 -1.0542  1.1254
16879TIP3    H272053   6.466   4.756  14.654 -1.7327  0.3420 -0.1696
16880TIP3   OH272054   2.256   5.485   0.172 -0.0600  0.0960 -0.1485
16880TIP3    H172055   2.263   5.572   0.211 -0.8427  0.7827 -1.4222
16880TIP3    H272056   2.259   5.425   0.245  2.2447  1.0814  0.6398
16881TIP3   OH272057   6.682   4.485  14.139  0.1375 -0.5206 -0.5431
16881TIP3    H172058   6.654   4.513  14.052  0.4046 -0.7751 -0.7109
16881TIP3    H272059   6.772   4.517  14.147 -0.3426  0.7562  0.1978
16882TIP3   OH272060   3.698   3.289  13.259 -0.2021 -0.4048  0.3884
16882TIP3    H172061   3.742   3.317  13.178 -0.5527 -2.0203 -0.3976
16882TIP3    H272062   3.766   3.242  13.307 -0.5762 -1.3854 -0.0213
16883TIP3   OH272063   6.611   5.840  15.875 -0.1076  0.9478 -0.8776
16883TIP3    H172064   6.691   5.799  15.842 -0.0542  0.2821  0.0325
16883TIP3    H272065   6.639   5.888  15.953 -0.7790 -0.4509  0.2978
16884TIP3   OH272066   6.187   0.487  12.513  0.3445  0.2457 -0.3686
16884TIP3    H172067   6.276   0.520  12.524  0.7640 -0.0933 -2.3429
16884TIP3    H272068   6.185   0.404  12.562  1.2658  0.0348 -0.6778
16885TIP3   OH272069   6.482   6.131  12.997  0.6414 -0.3545 -0.5370
16885TIP3    H172070   6.514   6.098  12.913  0.8034 -1.2870 -0.1184
16885TIP3    H272071   6.439   6.214  12.976  2.6901  0.5801 -1.2251
16886TIP3   OH272072   2.023   6.258   2.595  0.3868 -0.3514  0.0424
16886TIP3    H172073   1.988   6.174   2.563 -0.2723 -0.0755  0.0238
16886TIP3    H272074   1.946   6.305   2.628  0.8874 -0.1541  0.9712
16887TIP3   OH272075   5.744   3.373   6.046 -0.1054  0.3092 -0.2655
16887TIP3    H172076   5.723   3.310   5.977 -0.3268  0.7424 -0.5994
16887TIP3    H272077   5.706   3.456   6.015  0.3389  0.6460  0.0786
16888TIP3   OH272078   2.753   3.431  16.136  0.6779 -0.2567  0.0185
16888TIP3    H172079   2.691   3.381  16.082 -1.4987  1.6815  0.5371
16888TIP3    H272080   2.732   3.523  16.117  3.4888  0.5065  0.2163
16889TIP3   OH272081   6.166   2.004  10.486  0.6714 -0.4520  0.2265
16889TIP3    H172082   6.158   1.909  10.485 -0.6836 -0.3564 -0.2022
16889TIP3    H272083   6.083   2.035  10.521  1.0550  0.5791  0.2670
16890TIP3   OH272084   0.505   4.675  15.553  0.2505  0.2542 -0.4155
16890TIP3    H172085   0.454   4.617  15.497 -1.1594  0.5771  0.4719
16890TIP3    H272086   0.591   4.680  15.512 -0.8032  0.7139 -2.6993
16891TIP3   OH272087   0.316   3.086   1.212  0.3965  0.4698 -0.5525
16891TIP3    H172088   0.289   3.143   1.284 -0.6127 -0.9661  0.2667
16891TIP3    H272089   0.255   3.105   1.141 -0.2730  0.0569 -0.0984
16892TIP3   OH272090   0.624   0.006  10.376 -0.3251 -0.2828 -0.1551
16892TIP3    H172091   0.544   0.014  10.428  0.6667 -0.2047  1.4297
16892TIP3    H272092   0.609  -0.071  10.322 -0.9993 -1.0176  1.0292
16893TIP3   OH272093   0.048   5.939  11.490  0.1032 -0.1624  0.3272
16893TIP3    H172094  -0.010   5.980  11.554 -1.0892 -2.4005  0.7774
16893TIP3    H272095   0.019   5.974  11.406 -2.0042 -1.2464  0.5353
16894TIP3   OH272096   2.470   0.695  13.025  0.1835  0.0021  0.0748
16894TIP3    H172097   2.497   0.613  12.985  0.7880  0.4624 -0.4701
16894TIP3    H272098   2.377   0.682  13.045  0.1731 -0.6669 -0.3658
16895TIP3   OH272099   1.099   3.580   2.945 -0.3131  0.1558 -0.0452
16895TIP3    H172100   1.175   3.605   2.894  2.0040 -2.0561  2.0485
16895TIP3    H272101   1.045   3.529   2.885  0.7107  0.3183 -1.1305
16896TIP3   OH272102   1.001   2.299  11.813 -0.0058 -0.1313  0.1976
16896TIP3    H172103   0.931   2.319  11.750  0.3053  1.2797  0.2792
16896TIP3    H272104   0.960   2.311  11.898  0.2239  0.3533  0.2456
16897TIP3   OH272105   0.614   0.746   3.849 -0.0804 -0.3901 -0.2831
16897TIP3    H172106   0.595   0.652   3.857 -2.7462 -0.0143 -1.2844
16897TIP3    H272107   0.574   0.785   3.926  0.5450  0.0040 -0.1524
16898TIP3   OH272108   5.592   4.206  17.013  0.1820 -0.6130  0.4162
16898TIP3    H172109   5.537   4.130  16.993 -1.4829  0.5354  0.3709
16898TIP3    H272110   5.530   4.278  17.022  1.4340  0.2697  3.0968
16899TIP3   OH272111   4.321   2.675  12.965 -0.0878 -0.3698 -0.0014
16899TIP3    H172112   4.334   2.652  12.873 -1.4571  2.8118 -1.1444
16899TIP3    H272113   4.263   2.606  12.999  1.4194 -2.2816 -1.0948
16900TIP3   OH272114   6.601   3.618   6.283 -0.3254 -0.0423  0.2685
16900TIP3    H172115   6.692   3.649   6.284 -0.8063  1.6188 -1.7283
16900TIP3    H272116   6.551   3.688   6.326 -0.8059 -0.4516  0.3896
16901TIP3   OH272117   2.997   1.835   3.273 -0.1781  0.1941  0.0078
16901TIP3    H172118   3.065   1.899   3.297 -0.6876  1.4647 -1.7850
16901TIP3    H272119   3.046   1.761   3.238  0.3424  0.3135  0.4554
16902TIP3   OH272120   1.008   0.019   5.367 -0.0672 -0.0885  0.3330
16902TIP3    H172121   0.961  -0.022   5.295 -1.0178  0.9559  0.3309
16902TIP3    H272122   1.053  -0.053   5.411  1.2998 -0.6645 -1.8210
16903TIP3   OH272123   3.599   6.411  13.958 -0.1704 -0.1942 -0.0070
16903TIP3    H172124   3.689   6.443  13.956 -0.3147  0.1795 -1.6763
16903TIP3    H272125   3.608   6.316  13.964  0.2612 -0.0783  3.2005
16904TIP3   OH272126   2.012   5.220   4.957  0.4142  0.4269 -0.9705
16904TIP3    H172127   1.962   5.196   5.036  1.0911 -3.1069 -1.4598
16904TIP3    H272128   1.961   5.183   4.885  2.2519 -0.7718 -1.7143
16905TIP3   OH272129   4.918   1.644   0.996 -0.5430  0.5645 -0.3749
16905TIP3    H172130   4.886   1.725   0.955 -1.3343 -0.2577 -1.4396
16905TIP3    H272131   4.925   1.666   1.089 -1.4372  1.6551 -0.5316
16906TIP3   OH272132   3.526   6.194  12.260 -0.4681 -0.3672  0.5401
16906TIP3    H172133   3.610   6.238  12.250 -1.3354  1.3448  0.4740
16906TIP3    H272134   3.480   6.245  12.327 -3.1808  1.5618 -2.4910
16907TIP3   OH272135   0.527   3.913   1.753  0.0925 -0.2857 -0.5995
16907TIP3    H172136   0.540   4.001   1.719  2.1749 -0.1874  0.3111
16907TIP3    H272137   0.553   3.919   1.845 -1.7401 -1.4006  0.0559
16908TIP3   OH272138   6.139   0.996  11.756 -0.0121 -0.3015  0.3221
16908TIP3    H172139   6.051   0.989  11.721  0.5992  0.0275 -1.3533
16908TIP3    H272140   6.143   1.084  11.794 -0.3135 -0.2085  0.1417
16909TIP3   OH272141   2.922   3.948  12.245 -0.2729 -0.1620 -0.0220
16909TIP3    H172142   2.951   4.004  12.317  0.1802 -1.7587  1.0896
16909TIP3    H272143   2.832   3.975  12.229  0.4511  2.0574 -0.7305
16910TIP3   OH272144   6.720   6.503  13.998  0.2145 -0.1582  0.1752
16910TIP3    H172145   6.633   6.493  14.037  0.4897  0.4926  0.9865
16910TIP3    H272146   6.718   6.590  13.958  0.6977  0.1412  0.7814
16911TIP3   OH272147   5.131   4.100  11.374  0.2620  0.1873 -0.3383
16911TIP3    H172148   5.077   4.079  11.298  0.1600 -2.0247  0.2799
16911TIP3    H272149   5.069   4.106  11.447  0.7154 -1.6329  0.2406
16912TIP3   OH272150   5.868   1.642   0.666 -0.2082  0.2749 -0.5137
16912TIP3    H172151   5.895   1.550   0.675  1.3616  0.8052  0.6975
16912TIP3    H272152   5.844   1.651   0.574 -0.4282 -1.3474 -0.6465
16913TIP3   OH272153   3.126   1.275   2.234  0.3285 -0.1752  0.3310
16913TIP3    H172154   3.040   1.312   2.252  0.7325  0.7113  0.4748
16913TIP3    H272155   3.139   1.211   2.304 -1.0239 -1.7587 -0.7902
16914TIP3   OH272156   1.620   2.965   4.787 -0.1481  0.3805 -0.1796
16914TIP3    H172157   1.572   2.885   4.804 -0.0923  0.1656 -0.9964
16914TIP3    H272158   1.562   3.035   4.816 -0.1024  0.0464  0.7551
16915TIP3   OH272159   1.414   4.920  13.800  0.3777  0.3656  0.0369
16915TIP3    H172160   1.440   4.835  13.764 -0.4228 -0.7310  1.8714
16915TIP3    H272161   1.346   4.952  13.741  0.6060 -0.3347 -0.6134
16916TIP3   OH272162   2.510   3.650  16.355  0.8869 -0.6964 -0.2200
16916TIP3    H172163   2.527   3.571  16.406  1.1262 -0.3166  0.3040
16916TIP3    H272164   2.466   3.619  16.277  4.2635 -1.8409 -1.8855
16917TIP3   OH272165   1.631   1.416  14.100  0.2684 -0.3046 -0.0535
16917TIP3    H172166   1.611   1.475  14.173  1.7670  1.7151 -1.1436
16917TIP3    H272167   1.551   1.366  14.086 -0.7796  0.8173  1.5728
16918TIP3   OH272168   5.405   6.104   0.282  0.7177  0.4584  0.0128
16918TIP3    H172169   5.429   6.047   0.355 -0.3935  0.7967  0.6751
16918TIP3    H272170   5.469   6.085   0.214  2.0306  0.4147  1.2110
16919TIP3   OH272171   0.133   5.488  16.975 -0.1188 -0.3528 -0.3823
16919TIP3    H172172   0.211   5.513  17.024 -1.3950  0.8347  1.1549
16919TIP3    H272173   0.098   5.571  16.942 -1.9121 -0.5537  0.8563
16920TIP3   OH272174   0.750   2.946  15.107  0.5402 -0.1250  0.0790
16920TIP3    H172175   0.731   3.000  15.184 -0.3830 -2.3166  1.4668
16920TIP3    H272176   0.777   2.862  15.142  0.4357 -1.1075 -2.0160
16921TIP3   OH272177   4.112   5.734  13.075 -0.5287 -0.5309 -0.4569
16921TIP3    H172178   4.180   5.720  13.141 -1.0890 -0.1848  0.2025
16921TIP3    H272179   4.141   5.682  13.000  0.2778 -0.6757 -0.0613
16922TIP3   OH272180   5.471   0.803  10.627 -0.8685  0.2299 -0.3329
16922TIP3    H172181   5.531   0.826  10.556 -0.5607 -1.0951 -0.5189
16922TIP3    H272182   5.504   0.851  10.703  0.7604 -0.8979 -0.2947
16923TIP3   OH272183   5.119   3.002  13.747 -0.2562 -0.1048  0.3652
16923TIP3    H172184   5.085   2.933  13.803 -2.3505  0.9629  0.5057
16923TIP3    H272185   5.041   3.044  13.709  0.9989  0.9723 -1.1894
16924TIP3   OH272186   4.176   4.330   2.005  0.1002 -0.2088  0.3288
16924TIP3    H172187   4.127   4.257   2.042  2.0053 -0.1566  3.2863
16924TIP3    H272188   4.261   4.293   1.982  0.8175  0.8435  1.1580
16925TIP3   OH272189   5.872   0.435   1.586 -0.4084 -0.2548 -0.1555
16925TIP3    H172190   5.954   0.469   1.622 -0.2324 -2.6457  1.9881
16925TIP3    H272191   5.812   0.510   1.589  0.6388  0.6012  1.8960
16926TIP3   OH272192   4.914   1.447   6.312 -0.2373 -0.3400 -0.3128
16926TIP3    H172193   4.997   1.494   6.322 -0.7611  0.4394  0.5657
16926TIP3    H272194   4.847   1.512   6.337 -1.1228 -0.8970 -1.1796
16927TIP3   OH272195   0.105   4.168   4.034  0.5629 -0.1182 -0.3521
16927TIP3    H172196   0.092   4.219   4.114 -1.5885  0.1575 -0.8388
16927TIP3    H272197   0.121   4.233   3.966 -0.3257 -0.1823 -0.6310
16928TIP3   OH272198   1.579   1.309   2.201  0.0696 -0.3027 -0.6231
16928TIP3    H172199   1.493   1.351   2.195 -0.0351 -0.2467  0.8155
16928TIP3    H272200   1.618   1.346   2.280  1.1998 -0.7374 -0.9603
16929TIP3   OH272201   5.239   5.671  13.273 -0.2992  0.4281  0.4019
16929TIP3    H172202   5.310   5.632  13.324 -0.7850 -0.6695  0.2759
16929TIP3    H272203   5.273   5.672  13.183 -0.5551 -0.4066  0.2884
16930TIP3   OH272204   6.585   6.669  14.357  0.2147  0.3191  0.1611
16930TIP3    H172205   6.660   6.659  14.416  2.4901  2.4329 -2.0983
16930TIP3    H272206   6.576   6.584  14.315  1.2086 -0.0465  0.6594
16931TIP3   OH272207   6.729   5.713   1.914  0.4842 -0.1241 -0.1430
16931TIP3    H172208   6.819   5.714   1.881  0.1325  0.0786 -1.1582
16931TIP3    H272209   6.676   5.692   1.837 -0.2676 -1.2987  0.6501
16932TIP3   OH272210   4.989   6.598   3.805  0.1970  0.2182 -0.4228
16932TIP3    H172211   4.914   6.540   3.802  0.6188 -0.3049 -1.4747
16932TIP3    H272212   5.042   6.566   3.878  0.3083 -0.5732 -0.8449
16933TIP3   OH272213   3.384   6.628   4.599  0.1571  0.6980 -0.3964
16933TIP3    H172214   3.475   6.645   4.575  1.0743 -2.7631  0.0414
16933TIP3    H272215   3.342   6.602   4.517  0.3997 -0.5654 -0.1429
16934TIP3   OH272216   4.330   6.595  13.590  0.0231 -0.1744  0.5515
16934TIP3    H172217   4.242   6.569  13.565  0.3972 -1.2716  0.3476
16934TIP3    H272218   4.365   6.641  13.514 -0.5946  0.8592  0.8717
16935TIP3   OH272219   2.656   4.475  16.680  0.5736  0.0605  0.3251
16935TIP3    H172220   2.608   4.455  16.599  1.1229  1.8232 -0.4899
16935TIP3    H272221   2.748   4.472  16.655  0.7351  1.0962  0.7505
16936TIP3   OH272222   6.097   0.089   1.647 -0.4923 -0.1791 -0.3393
16936TIP3    H172223   6.089   0.155   1.716 -0.4424  1.1331 -1.5350
16936TIP3    H272224   6.090   0.139   1.565 -0.6617 -1.6957 -1.2917
16937TIP3   OH272225   4.957   3.588   1.561  0.4238 -0.3773  0.2338
16937TIP3    H172226   5.046   3.602   1.529  0.9061  2.4157  2.3587
16937TIP3    H272227   4.902   3.595   1.483  1.9431 -0.8783 -0.9363
16938TIP3   OH272228   2.746   5.858   0.662 -0.4583  0.4662  0.2677
16938TIP3    H172229   2.667   5.901   0.695 -1.3512 -0.8390 -0.1123
16938TIP3    H272230   2.733   5.855   0.567 -0.1308 -0.1006  0.2411
16939TIP3   OH272231   4.655   1.937   4.555  0.4768 -0.5744  0.1984
16939TIP3    H172232   4.673   1.854   4.511 -0.0879 -0.2358 -0.7031
16939TIP3    H272233   4.740   1.965   4.588  0.8741 -0.9699 -0.4503
16940TIP3   OH272234   0.387   6.462  11.806  0.5945 -0.7174  0.1443
16940TIP3    H172235   0.390   6.370  11.783 -1.2989 -0.1334 -3.0466
16940TIP3    H272236   0.299   6.476  11.840  1.5133 -0.3694  2.6155
16941TIP3   OH272237   3.507   4.565  15.251  0.3187 -0.0163 -0.0554
16941TIP3    H172238   3.479   4.548  15.161  1.4795  1.0981 -0.6527
16941TIP3    H272239   3.513   4.478  15.291 -0.3188 -0.5130 -1.0101
16942TIP3   OH272240   1.411   4.439  13.438  0.1569  0.0904 -0.3024
16942TIP3    H172241   1.483   4.434  13.376  0.8162 -1.5290  0.5230
16942TIP3    H272242   1.442   4.500  13.505 -0.0122  0.8131 -0.8712
16943TIP3   OH272243   3.897   5.207   4.134  0.0153  0.2713 -0.2116
16943TIP3    H172244   3.857   5.249   4.058  0.5953  0.1243 -0.6071
16943TIP3    H272245   3.910   5.278   4.197 -1.9260  0.1204  0.4009
16944TIP3   OH272246   6.749   0.283  13.148 -0.1303  0.2077  0.2502
16944TIP3    H172247   6.767   0.276  13.241 -1.4424 -0.6742  0.4640
16944TIP3    H272248   6.762   0.194  13.115  0.0893  0.4634 -0.3697
16945TIP3   OH272249   2.015   4.564  11.030 -0.1951 -0.8106 -0.0550
16945TIP3    H172250   2.077   4.636  11.018 -2.6851  1.8203  1.5422
16945TIP3    H272251   2.042   4.498  10.966  3.2181  0.7895 -0.5116
16946TIP3   OH272252   4.697   4.247  15.627  0.2135 -0.2795  0.4451
16946TIP3    H172253   4.719   4.296  15.548 -1.5942 -1.0673 -0.6188
16946TIP3    H272254   4.605   4.269  15.644  0.7336  0.3693  2.7475
16947TIP3   OH272255   0.252   4.831   0.863  0.1667 -0.0332  0.6087
16947TIP3    H172256   0.301   4.781   0.929 -1.5035 -1.2024  1.0270
16947TIP3    H272257   0.172   4.859   0.908 -0.6711 -0.2345 -0.7043
16948TIP3   OH272258   4.557   5.473   1.034 -0.6091 -0.4365 -0.0132
16948TIP3    H172259   4.470   5.478   0.994 -0.0416 -0.1163 -1.2412
16948TIP3    H272260   4.596   5.395   0.995  0.6268  0.8706 -1.5155
16949TIP3   OH272261   2.379   1.230  11.605 -0.1336 -0.0395 -0.3275
16949TIP3    H172262   2.423   1.145  11.614  0.0391  0.0970  0.1704
16949TIP3    H272263   2.286   1.211  11.618 -0.1200 -0.1846 -0.4388
16950TIP3   OH272264   0.549   3.129  13.340  0.1710 -0.4840 -0.0340
16950TIP3    H172265   0.624   3.104  13.395 -0.7336 -2.3707  0.4236
16950TIP3    H272266   0.567   3.220  13.316  1.7539 -0.3341  1.4692
16951TIP3   OH272267   2.098   6.267  11.571 -0.3898  0.1946  0.3155
16951TIP3    H172268   2.009   6.232  11.576 -0.0944 -0.7861 -0.8180
16951TIP3    H272269   2.086   6.361  11.565 -1.3878  0.0401 -0.3470
16952TIP3   OH272270   6.203   0.895  11.333  0.0860 -0.3922 -0.6630
16952TIP3    H172271   6.267   0.832  11.367  0.1814 -0.4454 -0.9403
16952TIP3    H272272   6.214   0.972  11.388  0.7960 -0.1876 -1.0780
16953TIP3   OH272273   2.518   6.005  17.236  0.1490  0.4012 -0.4454
16953TIP3    H172274   2.555   6.086  17.272 -1.1765  0.7490  0.1983
16953TIP3    H272275   2.448   5.981  17.297  0.7243 -1.4312 -0.4519
16954TIP3   OH272276   1.620   3.922   2.972 -1.2273 -0.8174  0.4527
16954TIP3    H172277   1.605   3.929   2.878  0.4821  3.9095  0.2611
16954TIP3    H272278   1.547   3.970   3.012 -0.8032 -0.9044  1.3785
16955TIP3   OH272279   4.150   0.941   3.897  0.0205 -0.1578 -0.4668
16955TIP3    H172280   4.166   0.939   3.802 -3.9612 -3.1194 -1.3234
16955TIP3    H272281   4.081   0.877   3.911 -1.3017  1.8780  4.1915
16956TIP3   OH272282   5.131   3.128   1.916 -0.1140  0.5890  0.0958
16956TIP3    H172283   5.208   3.129   1.858 -0.7150  0.7440 -0.7181
16956TIP3    H272284   5.168   3.131   2.004  0.8034  1.8762 -0.2954
16957TIP3   OH272285   1.578   6.376  15.956 -0.1828  0.7539  0.4987
16957TIP3    H172286   1.542   6.327  15.881  1.0478 -1.3283  1.2012
16957TIP3    H272287   1.627   6.448  15.916 -1.1402  0.8237 -0.6085
16958TIP3   OH272288   3.848   0.620  16.434  0.2347  0.8755  0.7193
16958TIP3    H172289   3.923   0.563  16.421 -0.1574  0.4040  0.4957
16958TIP3    H272290   3.885   0.709  16.434  0.7101  0.6915 -0.0543
16959TIP3   OH272291   0.242   4.348   3.866 -0.3112  0.0155 -0.2290
16959TIP3    H172292   0.329   4.385   3.883 -0.4599 -0.1511  0.9841
16959TIP3    H272293   0.236   4.344   3.770  0.5395  1.1359 -0.3529
16960TIP3   OH272294   5.590   4.878   0.313  0.4711  0.0973  0.2222
16960TIP3    H172295   5.506   4.833   0.301 -0.2528 -0.1039  4.5142
16960TIP3    H272296   5.635   4.827   0.380  4.3011  0.0547 -2.0467
16961TIP3   OH272297   3.879   6.728  11.104  0.3264 -0.4518  0.0554
16961TIP3    H172298   3.932   6.648  11.098  0.2033 -0.5140 -0.2291
16961TIP3    H272299   3.791   6.697  11.127  0.5792 -0.2878  1.3073
16962TIP3   OH272300   2.194   1.129  11.274  0.4821  0.0384 -0.2432
16962TIP3    H172301   2.112   1.176  11.287 -0.3354 -1.3714 -0.0440
16962TIP3    H272302   2.234   1.170  11.197  0.2988  1.6680  0.4993
16963TIP3   OH272303   2.610   6.313   3.368 -0.1063  0.3675  0.0635
16963TIP3    H172304   2.564   6.264   3.300 -1.5984  2.9764 -0.9170
16963TIP3    H272305   2.570   6.283   3.450 -0.5965 -0.4318 -0.4504
16964TIP3   OH272306   0.179   1.523  11.359  0.0001  0.1339 -0.3346
16964TIP3    H172307   0.175   1.596  11.297 -1.6151 -0.1619 -0.6349
16964TIP3    H272308   0.180   1.565  11.445  0.7452  0.5212 -0.5208
16965TIP3   OH272309   2.267   5.850  15.581  0.2482  0.2849 -0.1352
16965TIP3    H172310   2.174   5.840  15.603 -0.0644 -0.4201 -1.6399
16965TIP3    H272311   2.308   5.773  15.620  0.2596  0.7229  0.7432
16966TIP3   OH272312   0.273   3.054   4.467  0.1957 -0.1011  0.0473
16966TIP3    H172313   0.367   3.044   4.479  0.2739  0.0298 -0.4603
16966TIP3    H272314   0.259   3.048   4.373 -0.0522  1.9540 -0.1043
16967TIP3   OH272315   5.508   4.374  14.250  0.2086 -0.0257  0.8767
16967TIP3    H172316   5.575   4.369  14.319 -0.4442  0.4434  1.5557
16967TIP3    H272317   5.430   4.335  14.289 -0.8611  2.3069  1.2820
16968TIP3   OH272318   1.923   3.118   3.483 -0.3725  0.6377 -0.2757
16968TIP3    H172319   1.848   3.172   3.509 -0.1712  0.1876  1.3211
16968TIP3    H272320   1.956   3.082   3.565  0.0710 -1.1564 -1.1930
16969TIP3   OH272321   1.231   4.667  15.893 -0.0713 -0.6712  0.0703
16969TIP3    H172322   1.219   4.752  15.936  2.4610 -1.0022  1.5786
16969TIP3    H272323   1.283   4.686  15.815  0.0872 -0.7970  0.1467
16970TIP3   OH272324   2.362   1.920   1.248 -0.2108 -0.3908  0.4285
16970TIP3    H172325   2.282   1.920   1.300 -0.5895  0.3471 -0.1394
16970TIP3    H272326   2.412   1.994   1.281 -0.0011 -0.5218  0.4108
16971TIP3   OH272327   3.205   0.335  14.806  0.1875  0.0468  0.1627
16971TIP3    H172328   3.114   0.323  14.779 -0.2002  0.1736  1.3769
16971TIP3    H272329   3.248   0.253  14.781 -0.9981 -1.3695  2.4651
16972TIP3   OH272330   1.220   1.188  16.047  0.0714 -0.0256 -0.0446
16972TIP3    H172331   1.160   1.152  15.981  0.0079  1.1670 -0.6675
16972TIP3    H272332   1.297   1.215  15.998  0.0362  0.8564  0.3556
16973TIP3   OH272333   6.373   5.203  14.354 -0.2522 -0.1092 -0.1861
16973TIP3    H172334   6.346   5.238  14.269  0.4116 -1.0158 -0.7853
16973TIP3    H272335   6.359   5.108  14.347  0.4494 -0.2736  0.4764
16974TIP3   OH272336   4.087   4.743   5.176 -0.1526  0.0260 -0.0008
16974TIP3    H172337   4.080   4.786   5.261  0.8978  3.1603 -1.3777
16974TIP3    H272338   4.180   4.744   5.155 -0.3874 -0.7104 -1.2123
16975TIP3   OH272339   6.026   3.229   0.803  0.1342 -0.6378  0.4782
16975TIP3    H172340   6.001   3.240   0.895 -0.9011  0.0698  0.1370
16975TIP3    H272341   6.103   3.285   0.792 -0.5560  0.3839  0.6135
16976TIP3   OH272342   5.862   6.694  16.342 -0.0765  0.3288 -0.0785
16976TIP3    H172343   5.886   6.782  16.371  0.2222  1.1044 -2.4428
16976TIP3    H272344   5.792   6.667  16.402 -2.7797  3.6957 -1.3501
16977TIP3   OH272345   4.617   1.668   0.026 -0.5771 -0.1888  0.0364
16977TIP3    H172346   4.670   1.695   0.101 -1.4172  1.3050  0.1299
16977TIP3    H272347   4.539   1.723   0.031  0.0125  1.0575 -2.8049
16978TIP3   OH272348   5.890   5.139  12.634  1.0063 -0.5400 -0.3095
16978TIP3    H172349   5.802   5.129  12.670  1.5015 -2.9594  0.4062
16978TIP3    H272350   5.928   5.213  12.681 -0.8071  0.9478 -1.0694
16979TIP3   OH272351   3.062   3.387   4.627 -0.4048 -0.1660  0.2009
16979TIP3    H172352   3.068   3.474   4.588  0.3213 -1.0691 -1.8383
16979TIP3    H272353   3.044   3.403   4.719  2.2260  2.2355  0.4411
16980TIP3   OH272354   0.437   4.393  11.442 -0.9131  0.1037 -0.3028
16980TIP3    H172355   0.484   4.465  11.399 -0.7120  0.3455  0.3227
16980TIP3    H272356   0.451   4.318  11.384 -1.9729  0.7777 -1.5100
16981TIP3   OH272357   3.635   6.563   4.502 -0.3426 -0.0232  0.8737
16981TIP3    H172358   3.609   6.621   4.430  2.0770 -3.0995 -2.8857
16981TIP3    H272359   3.708   6.609   4.544 -1.6770  1.7507  1.4103
16982TIP3   OH272360   6.584   1.782  17.243 -0.3743 -0.2644  0.5725
16982TIP3    H172361   6.638   1.708  17.216 -0.7040 -0.8675  1.5232
16982TIP3    H272362   6.577   1.773  17.338  1.5222  2.3056  1.0524
16983TIP3   OH272363   0.219   5.735   1.805 -0.2566 -0.3951 -0.2752
16983TIP3    H172364   0.209   5.809   1.744  2.2350  2.2914  2.2482
16983TIP3    H272365   0.291   5.683   1.768 -1.0290 -0.7747 -1.3034
16984TIP3   OH272366   3.635   4.872  15.771  0.4197 -0.1207 -0.7119
16984TIP3    H172367   3.635   4.962  15.805  0.3564 -0.5611  0.5181
16984TIP3    H272368   3.544   4.856  15.746  0.1019 -0.3583  0.5489
16985TIP3   OH272369   3.829   1.424   1.562  0.5114  0.4515  0.1995
16985TIP3    H172370   3.893   1.475   1.512 -0.3254  1.4492  0.1027
16985TIP3    H272371   3.858   1.333   1.553  1.3786  0.7885 -0.6128
16986TIP3   OH272372   5.124   4.203   0.779 -0.1350  0.1300  1.1564
16986TIP3    H172373   5.039   4.242   0.801 -0.6462  0.1819 -0.6942
16986TIP3    H272374   5.109   4.161   0.694  1.4832 -0.5986  1.2013
16987TIP3   OH272375   2.863   5.023   5.399  0.1469 -0.7489 -0.3447
16987TIP3    H172376   2.771   5.039   5.421  0.0581 -3.3798  1.8062
16987TIP3    H272377   2.860   4.968   5.320  0.0096  0.7347 -1.4033
16988TIP3   OH272378   6.463   1.425   1.005  0.0919 -0.4920 -0.1860
16988TIP3    H172379   6.537   1.483   0.984  0.1822 -1.1221 -1.7825
16988TIP3    H272380   6.504   1.339   1.020 -0.2287 -0.6398 -0.1497
16989TIP3   OH272381   5.959   1.007  13.249 -0.0308  0.0147  0.7599
16989TIP3    H172382   5.884   0.991  13.305  0.0123  1.2444  1.2046
16989TIP3    H272383   6.032   0.962  13.292 -0.3851 -0.6926  0.6301
16990TIP3   OH272384   6.336   1.251  15.098  0.1425  0.8137 -0.6923
16990TIP3    H172385   6.334   1.293  15.012  2.0205  1.0680 -0.6649
16990TIP3    H272386   6.354   1.322  15.159  1.4234  0.2821 -0.4179
16991TIP3   OH272387   2.032   3.848  11.218  0.3077 -0.0718 -0.3148
16991TIP3    H172388   2.050   3.910  11.289  1.9070 -1.7985  0.8893
16991TIP3    H272389   1.999   3.902  11.146  1.9857  2.2054  0.5216
16992TIP3   OH272390   5.554   4.202   2.044  0.3104  0.3504  0.1521
16992TIP3    H172391   5.533   4.236   1.957  0.2086  1.7335  0.6864
16992TIP3    H272392   5.470   4.174   2.080  0.5046 -1.3159 -0.6040
16993TIP3   OH272393   0.005   2.470   1.871  0.5058  0.4397  0.3895
16993TIP3    H172394  -0.089   2.468   1.852  0.3164  0.7495  1.2300
16993TIP3    H272395   0.022   2.387   1.915  0.6515  0.3142  0.0892
16994TIP3   OH272396   5.469   5.596  14.332  0.3064  0.1823  0.1967
16994TIP3    H172397   5.396   5.576  14.390 -1.0827 -0.3712 -1.6432
16994TIP3    H272398   5.482   5.691  14.342 -1.7089  0.5928 -0.5280
16995TIP3   OH272399   6.413   3.884  15.151  0.1466 -0.2192  0.1533
16995TIP3    H172400   6.376   3.919  15.069  0.8967 -2.2070 -1.0852
16995TIP3    H272401   6.366   3.932  15.219 -2.0441  0.0173 -1.3996
16996TIP3   OH272402   5.542   2.506   3.296 -0.4941  0.1853 -0.1354
16996TIP3    H172403   5.481   2.576   3.273 -0.0359  0.1871 -1.4051
16996TIP3    H272404   5.550   2.453   3.217  0.4503 -0.3478  0.2926
16997TIP3   OH272405   0.913   6.729  17.051  0.4638 -0.3840 -0.0375
16997TIP3    H172406   0.896   6.800  17.113  0.7365  1.2992 -1.7758
16997TIP3    H272407   0.914   6.772  16.966 -0.8604 -2.7365 -1.3564
16998TIP3   OH272408   1.600   4.521   5.752 -0.0251 -0.3395  0.0406
16998TIP3    H172409   1.541   4.591   5.778 -0.4748 -0.1511 -1.4249
16998TIP3    H272410   1.581   4.450   5.813 -2.7623 -0.7883 -1.1905
16999TIP3   OH272411   5.315   0.107  12.263 -0.1775 -0.4037  0.2580
16999TIP3    H172412   5.375   0.176  12.292  0.3331 -1.1376  1.0052
16999TIP3    H272413   5.352   0.076  12.181  0.8204 -1.2396  0.9924
17000TIP3   OH272414   3.435   1.090  12.013  0.1670  0.4646  0.0374
17000TIP3    H172415   3.427   1.053  12.101 -1.3180  0.1408 -0.1936
17000TIP3    H272416   3.527   1.115  12.004  0.4933 -0.2129  1.3902
17001TIP3   OH272417   3.244   5.816   2.427 -0.1683  0.3544 -0.7870
17001TIP3    H172418   3.222   5.908   2.415 -1.5423 -0.2173 -3.4405
17001TIP3    H272419   3.161   5.773   2.447  0.3421 -0.4171 -0.2583
17002TIP3   OH272420   1.496   0.642  16.610 -0.6714 -0.3307 -0.3563
17002TIP3    H172421   1.517   0.552  16.633  1.4596 -0.0616 -1.0343
17002TIP3    H272422   1.471   0.639  16.518 -3.7893 -0.6168  0.3886
17003TIP3   OH272423   4.301   0.148   4.908 -0.0255  0.6602 -0.0378
17003TIP3    H172424   4.325   0.137   4.816  0.7836  2.1467 -0.0414
17003TIP3    H272425   4.296   0.059   4.943  0.4540  0.1076 -1.3231
17004TIP3   OH272426   1.378   1.737   3.377  0.2307  0.2814  0.7917
17004TIP3    H172427   1.433   1.701   3.446 -0.3055  0.7106  1.4619
17004TIP3    H272428   1.437   1.749   3.302  0.4896 -1.6707  0.6293
17005TIP3   OH272429   5.132   5.748  17.236 -0.4594  0.6395  0.2928
17005TIP3    H172430   5.103   5.741  17.327 -0.4647  2.2639  0.4485
17005TIP3    H272431   5.191   5.673  17.224 -0.0928  0.6553  1.7756
17006TIP3   OH272432   0.000   4.590  12.741  0.1916  0.2341  0.3211
17006TIP3    H172433  -0.033   4.505  12.711  0.9773 -0.7861  2.1863
17006TIP3    H272434  -0.076   4.634  12.779 -0.2763  0.5199 -0.8980
17007TIP3   OH272435   3.328   1.463   6.100 -0.2312 -0.1075  0.0020
17007TIP3    H172436   3.254   1.473   6.159 -0.4336  1.8481 -0.4889
17007TIP3    H272437   3.382   1.395   6.139 -2.0260 -1.2330  0.6281
17008TIP3   OH272438   1.466   6.551   2.066  0.3588 -0.1328 -0.1489
17008TIP3    H172439   1.511   6.538   2.150  0.8088  1.5295 -0.1050
17008TIP3    H272440   1.415   6.630   2.079 -1.2299 -1.0156 -0.7948
17009TIP3   OH272441   5.347   4.645  13.800  0.0589  0.4775 -0.1686
17009TIP3    H172442   5.389   4.572  13.844  0.7680 -0.3682 -2.1050
17009TIP3    H272443   5.265   4.609  13.766 -0.6673  1.2156  0.7498
17010TIP3   OH272444   4.611   6.404  11.397 -0.1265 -0.1732 -0.1322
17010TIP3    H172445   4.658   6.397  11.480 -0.1443  1.1451  0.0075
17010TIP3    H272446   4.649   6.480  11.354 -1.9589  0.7909 -0.1322
17011TIP3   OH272447   5.651   4.979  13.473  0.6705 -0.1163 -0.4170
17011TIP3    H172448   5.566   4.933  13.477  0.2362  0.6558 -0.6547
17011TIP3    H272449   5.690   4.962  13.559 -0.5013  0.9564  0.3647
17012TIP3   OH272450   5.463   3.971   3.535 -0.1404 -0.0277  0.2590
17012TIP3    H172451   5.505   3.886   3.526 -2.0030 -1.0276  0.5970
17012TIP3    H272452   5.451   3.982   3.629  2.6283  1.9784  0.5080
17013TIP3   OH272453   3.164   1.174   5.153  0.5081 -0.4261  0.0368
17013TIP3    H172454   3.224   1.190   5.080 -0.3569  0.1462 -0.5710
17013TIP3    H272455   3.221   1.157   5.228  1.4296  0.2281 -0.4948
17014TIP3   OH272456   6.193   6.445   3.579 -0.1594  0.2673  0.3716
17014TIP3    H172457   6.272   6.395   3.599 -0.2556 -0.6235 -1.3115
17014TIP3    H272458   6.148   6.393   3.512 -1.5277  1.3943  0.3706
17015TIP3   OH272459   5.269   3.478   3.510  0.0540  0.3549  0.4545
17015TIP3    H172460   5.210   3.405   3.490  0.6548 -0.2419  0.7910
17015TIP3    H272461   5.251   3.543   3.443  0.6247 -0.7800 -0.8512
17016TIP3   OH272462   4.938   2.710  15.676 -0.0243 -0.7568 -0.1573
17016TIP3    H172463   5.025   2.671  15.677  0.6578  0.7032 -0.4975
17016TIP3    H272464   4.943   2.783  15.739 -1.5027 -1.6545  1.0882
17017TIP3   OH272465   4.250   1.255   1.123 -0.1061 -0.4925 -0.6877
17017TIP3    H172466   4.225   1.248   1.215 -0.0049 -0.4711 -0.6596
17017TIP3    H272467   4.204   1.334   1.092  2.1899  1.2390  0.0922
17018TIP3   OH272468   6.242   2.020  17.146 -0.0292  0.5788  0.3039
17018TIP3    H172469   6.254   2.021  17.051  3.5995 -2.9947  0.5065
17018TIP3    H272470   6.300   2.089  17.178 -1.3348  1.8596  0.0380
17019TIP3   OH272471   5.344   6.410   3.930 -0.1156 -0.1646 -0.0386
17019TIP3    H172472   5.335   6.314   3.935 -0.8529 -0.1349 -0.7667
17019TIP3    H272473   5.419   6.424   3.872 -2.2133 -0.2877 -2.9496
17020TIP3   OH272474   5.867   1.339  11.482  0.1570 -0.1391 -0.1821
17020TIP3    H172475   5.833   1.370  11.398  0.2752 -1.2111 -0.6369
17020TIP3    H272476   5.810   1.380  11.547  1.4913  2.6247 -0.6116
17021TIP3   OH272477   2.693   0.074   2.080 -0.0038 -0.3526 -0.2119
17021TIP3    H172478   2.655   0.159   2.058 -2.0623 -1.1531  0.0215
17021TIP3    H272479   2.737   0.046   2.000 -0.9637  0.0858 -0.9124
17022TIP3   OH272480   4.160   0.468  14.375  0.2950  0.2104  0.1787
17022TIP3    H172481   4.089   0.422  14.420  0.9796 -0.0294  1.0582
17022TIP3    H272482   4.125   0.554  14.357 -0.5454 -0.2134 -0.2575
17023TIP3   OH272483   3.619   3.888  10.913 -0.5497 -0.5164 -0.7409
17023TIP3    H172484   3.634   3.972  10.869 -1.3091 -1.2993 -2.5760
17023TIP3    H272485   3.706   3.848  10.918 -0.5324 -0.7310 -2.2648
17024TIP3   OH272486   0.074   3.464  11.633  0.5029  0.2388 -0.5196
17024TIP3    H172487  -0.019   3.469  11.610  0.0642 -0.5946  0.9326
17024TIP3    H272488   0.114   3.537  11.586 -1.0646  1.2100 -0.4368
17025TIP3   OH272489   6.260   4.953  12.880  0.1971 -0.0878 -0.3805
17025TIP3    H172490   6.243   4.921  12.791 -0.8615  0.2299 -0.3041
17025TIP3    H272491   6.351   4.929  12.897 -0.1745 -1.9575 -0.8062
17026TIP3   OH272492   2.727   5.556   1.644 -0.1243 -0.0033 -0.2212
17026TIP3    H172493   2.752   5.588   1.557  1.8034 -1.3753 -0.2497
17026TIP3    H272494   2.678   5.475   1.626 -3.1538  1.6495 -0.0821
17027TIP3   OH272495   6.357   0.733   5.152  0.2390  0.0528  0.0008
17027TIP3    H172496   6.430   0.675   5.175  0.6438  1.0679  1.5106
17027TIP3    H272497   6.290   0.715   5.218  0.0110  0.6608 -0.0571
17028TIP3   OH272498   0.905   5.845   5.952 -0.5822 -0.0954 -0.4905
17028TIP3    H172499   0.946   5.762   5.928 -0.5741 -0.2896  0.1863
17028TIP3    H272500   0.812   5.834   5.930 -0.4249  0.0504 -1.2537
17029TIP3   OH272501   2.430   4.884  16.489 -0.4840  0.1231 -0.4789
17029TIP3    H172502   2.405   4.946  16.421 -0.3305  0.2462 -0.4224
17029TIP3    H272503   2.523   4.902  16.505 -1.0636  1.7158  1.4701
17030TIP3   OH272504   4.271   0.024   5.229 -0.6227  0.4431 -0.3053
17030TIP3    H172505   4.268   0.008   5.323 -0.3539  0.3651 -0.3078
17030TIP3    H272506   4.199  -0.029   5.193  0.8856 -1.6888 -0.4254
17031TIP3   OH272507   5.554   0.249  17.082 -0.3669  0.1757 -0.7913
17031TIP3    H172508   5.500   0.324  17.107 -0.4976 -0.5427  1.3064
17031TIP3    H272509   5.644   0.278  17.099 -0.5352 -1.2973  4.0968
17032TIP3   OH272510   0.340   1.036  11.305  0.2717  0.5174  0.1624
17032TIP3    H172511   0.426   1.069  11.279  0.9770 -0.7693  0.7952
17032TIP3    H272512   0.352   1.005  11.394 -1.2258  1.6150  0.7847
17033TIP3   OH272513   4.807   4.695  12.940 -0.8411  0.1825  0.0422
17033TIP3    H172514   4.824   4.716  13.032 -2.7193 -2.5214  1.1462
17033TIP3    H272515   4.894   4.679  12.902 -0.0443  1.2130  1.3391
17034TIP3   OH272516   2.496   4.814   0.540  0.6650 -1.0547  0.1366
17034TIP3    H172517   2.476   4.812   0.633 -1.0972 -1.1657 -0.2147
17034TIP3    H272518   2.469   4.902   0.511  1.0166 -1.0881 -0.3184
17035TIP3   OH272519   4.044   3.597  15.886  0.3301 -0.1238  0.2690
17035TIP3    H172520   4.019   3.567  15.973 -1.6427 -0.7574 -0.4740
17035TIP3    H272521   3.976   3.660  15.861 -0.3336 -1.4727 -1.6079
17036TIP3   OH272522   5.110   4.298   6.038  0.3535 -0.4350 -0.1781
17036TIP3    H172523   5.192   4.345   6.051 -0.8240  1.7916 -0.3054
17036TIP3    H272524   5.069   4.297   6.125 -0.6710  0.9393 -0.6021
17037TIP3   OH272525   2.785   1.741   1.953  0.5268 -0.5091  0.2362
17037TIP3    H172526   2.756   1.832   1.952  0.7560 -0.4375 -0.1098
17037TIP3    H272527   2.730   1.699   2.019 -0.0928 -0.2908 -0.1285
17038TIP3   OH272528   2.980   6.282  16.426  0.5825 -0.2833  0.2595
17038TIP3    H172529   2.896   6.309  16.463  1.5353  0.2891  2.1221
17038TIP3    H272530   2.971   6.188  16.412 -0.6073 -0.1079 -0.2741
17039TIP3   OH272531   5.221   2.544   3.406  0.2828 -0.5715 -0.1206
17039TIP3    H172532   5.127   2.561   3.403  0.6390  2.1257  1.1047
17039TIP3    H272533   5.260   2.617   3.358  1.9016  1.1891  3.5013
17040TIP3   OH272534   5.954   4.725  13.362  0.0931  0.1028  0.6949
17040TIP3    H172535   6.041   4.688  13.350  0.1436 -0.2833  2.0406
17040TIP3    H272536   5.968   4.819  13.368  0.3935  0.0596  0.6689
17041TIP3   OH272537   3.249   0.383  12.099 -0.2526  0.2128  0.2500
17041TIP3    H172538   3.186   0.335  12.045 -0.3179  1.7013 -1.0798
17041TIP3    H272539   3.244   0.473  12.068  1.5139  0.6537  1.0804
17042TIP3   OH272540   5.707   5.361  14.679 -0.3302  0.7953  0.4877
17042TIP3    H172541   5.704   5.277  14.724  4.7033 -0.0959 -0.1884
17042TIP3    H272542   5.646   5.353  14.606  0.1660 -2.4013  0.3074
17043TIP3   OH272543   6.246   5.740  13.865 -0.2353  0.6713  0.6659
17043TIP3    H172544   6.284   5.670  13.917  0.1766 -0.7453 -1.4259
17043TIP3    H272545   6.153   5.717  13.859  0.1360 -0.5652 -1.1892
17044TIP3   OH272546   0.453   2.212   5.685  0.5184 -0.1025  0.5345
17044TIP3    H172547   0.542   2.200   5.654 -0.3086 -2.5477 -1.1880
17044TIP3    H272548   0.444   2.307   5.694  2.3692  0.4724 -2.2157
17045TIP3   OH272549   2.181   4.670  14.243  0.0747 -0.1626 -0.3094
17045TIP3    H172550   2.270   4.705  14.235  0.5340 -0.8787  1.1621
17045TIP3    H272551   2.144   4.716  14.318  0.2808 -1.8920  0.9188
17046TIP3   OH272552   0.888   5.072  11.525  0.1163 -0.4371 -0.4263
17046TIP3    H172553   0.940   4.992  11.516 -0.8218 -1.0591 -0.5148
17046TIP3    H272554   0.798   5.041  11.538 -0.0720  0.5777  0.9980
17047TIP3   OH272555   4.229   3.394  16.969 -0.8488 -0.2383  0.0373
17047TIP3    H172556   4.317   3.404  16.933 -0.7987  0.2334  0.2786
17047TIP3    H272557   4.191   3.322  16.919 -0.5276 -0.0725 -0.4599
17048TIP3   OH272558   2.680   5.855   3.853 -0.3724 -0.4640  0.3528
17048TIP3    H172559   2.756   5.911   3.869 -0.8679  0.3086  0.0562
17048TIP3    H272560   2.712   5.766   3.867  0.5694 -0.1431  0.2794
17049TIP3   OH272561   5.894   0.525   5.510  0.2397  0.5494  0.6843
17049TIP3    H172562   5.925   0.576   5.585  0.2699  0.6114  0.6309
17049TIP3    H272563   5.945   0.444   5.513 -1.1379 -0.3216  1.8682
17050TIP3   OH272564   5.592   2.989   5.196 -0.5874  0.5243  0.3422
17050TIP3    H172565   5.590   3.085   5.205 -1.0526  0.6745 -1.0060
17050TIP3    H272566   5.571   2.974   5.104  0.0230 -0.8659  0.4041
17051TIP3   OH272567   1.202   6.001  16.084  0.4588  0.2752 -0.0421
17051TIP3    H172568   1.132   5.945  16.117  0.3710  0.5363  0.2249
17051TIP3    H272569   1.240   6.040  16.163  1.4039 -0.4467 -0.1304
17052TIP3   OH272570   4.331   2.226  15.490  0.4021  0.5289 -0.3819
17052TIP3    H172571   4.369   2.285  15.425 -0.0653  0.1800 -0.9838
17052TIP3    H272572   4.394   2.226  15.562  1.7824 -0.3440 -1.5048
17053TIP3   OH272573   0.087   4.875  13.384  0.2563 -0.2152  0.2518
17053TIP3    H172574   0.164   4.819  13.394  0.1841 -0.3246  0.1942
17053TIP3    H272575   0.123   4.960  13.359  0.5484  0.4177  2.5732
17054TIP3   OH272576   0.398   5.285   3.925  0.2130 -0.3490 -0.2333
17054TIP3    H172577   0.438   5.296   3.839  2.5012 -0.7909  0.6922
17054TIP3    H272578   0.342   5.208   3.917 -2.0262  1.3522 -2.0668
17055TIP3   OH272579   0.027   4.390  14.610  0.5378 -0.9205 -0.1103
17055TIP3    H172580  -0.011   4.312  14.569  0.0475  0.9147 -3.6084
17055TIP3    H272581   0.113   4.398  14.569  0.4953  0.4196  0.0266
17056TIP3   OH272582   1.569   2.521  12.400 -0.2981 -0.3698  0.3796
17056TIP3    H172583   1.545   2.431  12.379  0.0640 -0.2007 -0.8606
17056TIP3    H272584   1.660   2.529  12.369 -0.9666  0.9760 -1.4104
17057TIP3   OH272585   3.625   4.378  16.743  0.3712  0.3485 -0.0143
17057TIP3    H172586   3.620   4.284  16.761  1.2706  0.1297 -0.8504
17057TIP3    H272587   3.642   4.384  16.649  1.0913  1.3316  0.1646
17058TIP3   OH272588   1.299   3.723   5.987  0.2329 -0.0610  0.2761
17058TIP3    H172589   1.285   3.628   5.996 -1.0601  0.0373 -0.4164
17058TIP3    H272590   1.240   3.762   6.051 -0.9313  0.3213 -0.9879
17059TIP3   OH272591   2.464   6.266   4.572  0.3898 -0.2440 -0.2918
17059TIP3    H172592   2.396   6.311   4.620 -0.2315 -1.8271  0.3925
17059TIP3    H272593   2.536   6.329   4.566 -0.0180  0.4430  1.5666
17060TIP3   OH272594   3.011   5.372   4.024  0.0171  0.2362  0.2008
17060TIP3    H172595   3.060   5.291   4.038  1.5228  1.2585  1.0665
17060TIP3    H272596   2.959   5.383   4.104 -0.8719 -0.3158 -0.2881
17061TIP3   OH272597   6.036   5.133  10.969  1.0410 -0.2951  0.3744
17061TIP3    H172598   6.005   5.114  10.881  1.4154  0.9024 -0.0251
17061TIP3    H272599   6.022   5.227  10.980 -2.5820 -0.8897  2.9646
17062TIP3   OH272600   0.947   4.673  15.719 -0.3612  0.4760 -0.2751
17062TIP3    H172601   0.991   4.704  15.798 -0.2238  0.1002 -0.2025
17062TIP3    H272602   1.018   4.663  15.655 -0.4697  0.7635 -0.4389
17063TIP3   OH272603   6.451   3.843   6.388 -0.5327 -0.1297 -0.2690
17063TIP3    H172604   6.363   3.852   6.423 -0.8502  0.4870 -1.1998
17063TIP3    H272605   6.442   3.859   6.294  0.0464 -3.3164 -0.9624
17064TIP3   OH272606   3.399   6.241   1.826  0.1241 -0.1796  0.0010
17064TIP3    H172607   3.369   6.230   1.735  1.1562 -1.6432 -0.1923
17064TIP3    H272608   3.367   6.163   1.871 -1.0902  0.9294  1.1277
17065TIP3   OH272609   2.461   0.811   6.508  0.1452 -0.1676 -0.1989
17065TIP3    H172610   2.407   0.876   6.553  0.5886 -0.2625  0.4798
17065TIP3    H272611   2.515   0.773   6.576  0.3487 -0.8003 -0.7023
17066TIP3   OH272612   1.412   0.182   4.923  0.1868 -0.0898 -0.1504
17066TIP3    H172613   1.429   0.273   4.898  2.3781 -0.1801  0.8044
17066TIP3    H272614   1.410   0.184   5.019 -0.8930 -0.8787 -0.1426
17067TIP3   OH272615   5.987   4.100   4.547  1.1393  0.4474 -0.2074
17067TIP3    H172616   5.948   4.173   4.500 -0.3622 -1.1306 -1.5285
17067TIP3    H272617   5.987   4.128   4.639 -1.3096  1.3278 -0.4113
17068TIP3   OH272618   6.460   2.395  16.387 -0.0563  0.6397 -0.1493
17068TIP3    H172619   6.376   2.413  16.428  0.3808  0.2665  0.9289
17068TIP3    H272620   6.441   2.328  16.321 -0.6393  0.7518 -0.0993
17069TIP3   OH272621   5.820   2.942   1.063 -0.1983  0.3901 -0.3901
17069TIP3    H172622   5.915   2.953   1.067  0.3814 -3.5140  0.6946
17069TIP3    H272623   5.801   2.937   0.969  0.9732 -0.5019 -0.6008
17070TIP3   OH272624   2.888   1.467  12.912  0.0609  0.4189 -0.0414
17070TIP3    H172625   2.844   1.384  12.930 -0.6078  1.2355  2.4668
17070TIP3    H272626   2.979   1.452  12.937 -0.0984  0.4865  0.5851
17071TIP3   OH272627   1.545   2.333   4.388  0.0474  0.5302  0.0311
17071TIP3    H172628   1.464   2.368   4.352  1.1898  1.1444 -2.1762
17071TIP3    H272629   1.520   2.250   4.429 -1.5490  0.1686 -1.5462
17072TIP3   OH272630   5.318   1.770  12.398  0.5950 -0.1384  0.0382
17072TIP3    H172631   5.288   1.848  12.445  1.3057 -1.1075  2.2190
17072TIP3    H272632   5.244   1.746  12.343 -0.6405  0.5664  1.3162
17073TIP3   OH272633   5.651   3.863  14.556 -0.2813  0.0186  0.1910
17073TIP3    H172634   5.607   3.820  14.482 -0.9707  0.8090  0.1285
17073TIP3    H272635   5.685   3.791  14.609  0.1307 -0.5656 -0.8343
17074TIP3   OH272636   2.280   1.238   4.090 -0.0841  0.0848  0.5457
17074TIP3    H172637   2.187   1.217   4.098 -0.0783 -0.3854 -0.4836
17074TIP3    H272638   2.283   1.311   4.028  0.3336 -0.9486 -0.6820
17075TIP3   OH272639   0.920   0.573  14.245 -0.2929  0.2002 -0.2669
17075TIP3    H172640   0.864   0.516  14.192  1.5024 -1.5541 -0.4003
17075TIP3    H272641   0.943   0.519  14.321 -0.2372  1.5375  0.7065
17076TIP3   OH272642   2.005   1.229  13.236 -0.0455  0.5990  0.0625
17076TIP3    H172643   1.977   1.203  13.324 -0.6752  0.1523 -0.2633
17076TIP3    H272644   2.077   1.171  13.215 -0.7306 -0.1693 -0.2207
17077TIP3   OH272645   0.458   1.788   3.926  0.5089  0.0314  0.2290
17077TIP3    H172646   0.541   1.825   3.897 -0.1205  0.9332 -0.5044
17077TIP3    H272647   0.479   1.739   4.004  1.3747  2.2347  1.4790
17078TIP3   OH272648   3.449   2.958   0.523  0.0688  0.2036 -0.1618
17078TIP3    H172649   3.355   2.954   0.505 -0.4514 -0.4351  2.2130
17078TIP3    H272650   3.476   3.045   0.494 -0.7782 -0.2798 -2.6489
17079TIP3   OH272651   4.428   2.394   2.356  0.2413 -0.1674 -0.5269
17079TIP3    H172652   4.469   2.418   2.273  0.8633 -1.0470 -0.4812
17079TIP3    H272653   4.376   2.316   2.335  0.1302 -0.1914 -0.1632
17080TIP3   OH272654   1.108   4.169  16.097 -0.0970  0.3903  0.1951
17080TIP3    H172655   1.023   4.179  16.055 -0.0780  0.8425  0.2604
17080TIP3    H272656   1.167   4.223  16.045  0.0660  0.3980  0.3874
17081TIP3   OH272657   5.021   2.359   1.865  0.4083 -0.2926  0.0554
17081TIP3    H172658   5.112   2.388   1.875 -0.1418  0.6811  2.9634
17081TIP3    H272659   5.029   2.269   1.832  2.4906 -0.7031  1.4456
17082TIP3   OH272660   2.882   4.349   2.257 -0.4281 -0.0665  0.3287
17082TIP3    H172661   2.829   4.269   2.257 -0.2475 -0.1927  0.8405
17082TIP3    H272662   2.938   4.340   2.334 -0.6545  0.7155  0.5916
17083TIP3   OH272663   5.994   3.173  17.253 -0.0369 -0.3738  0.5651
17083TIP3    H172664   6.069   3.138  17.301  0.6150 -1.1142 -0.9412
17083TIP3    H272665   5.926   3.107  17.263 -0.0646 -0.3035  0.8555
17084TIP3   OH272666   0.026   6.687   0.437 -0.3034  0.5727 -0.0945
17084TIP3    H172667   0.041   6.677   0.343 -0.4523  1.6759 -0.2591
17084TIP3    H272668   0.058   6.606   0.476 -0.1590  0.1374 -1.0904
17085TIP3   OH272669   6.039   5.579   0.801  0.3911 -1.0446  0.0981
17085TIP3    H172670   6.089   5.536   0.731  1.1774  0.8535 -0.5603
17085TIP3    H272671   6.102   5.635   0.845 -0.6502 -0.3924  0.8039
17086TIP3   OH272672   3.439   2.343   1.671  0.3251 -0.0102  0.0462
17086TIP3    H172673   3.466   2.264   1.717 -0.8583 -2.5965 -3.2787
17086TIP3    H272674   3.348   2.326   1.647  0.3514  1.9166 -1.6565
17087TIP3   OH272675   3.212   2.305  16.985  0.5654 -0.5882 -0.7294
17087TIP3    H172676   3.240   2.257  17.064 -0.5168 -0.3114 -0.1648
17087TIP3    H272677   3.161   2.241  16.936 -0.0744 -0.2985 -0.4427
17088TIP3   OH272678   5.051   4.258  15.514 -0.2252 -0.0352 -0.1552
17088TIP3    H172679   5.128   4.218  15.554 -1.6288 -0.7107  2.0575
17088TIP3    H272680   5.070   4.351  15.514  0.2083 -0.0947  1.3451
17089TIP3   OH272681   6.058   0.227   1.966  0.4328 -0.3007  1.0251
17089TIP3    H172682   5.998   0.300   1.951 -0.4562 -1.5640 -2.8140
17089TIP3    H272683   6.133   0.266   2.011 -0.1291  2.9625 -0.5754
17090TIP3   OH272684   6.706   5.695  13.418 -0.4431  0.6445 -0.1889
17090TIP3    H172685   6.791   5.740  13.425  0.9550 -1.9910  1.0151
17090TIP3    H272686   6.715   5.639  13.341  0.0139 -1.6563  1.4528
17091TIP3   OH272687   4.402   1.155   3.854 -0.6137 -0.0976  0.0189
17091TIP3    H172688   4.465   1.103   3.805 -0.3319  0.7388 -0.5300
17091TIP3    H272689   4.392   1.109   3.937 -0.9104 -1.4032 -0.7060
17092TIP3   OH272690   1.053   3.488  13.234  0.3400  0.5465 -1.1403
17092TIP3    H172691   1.079   3.578  13.216 -0.5530  0.7865 -1.2940
17092TIP3    H272692   0.976   3.474  13.179  1.8740 -1.1349 -3.0307
17093TIP3   OH272693   1.607   5.278  11.274 -0.2031 -0.1367  0.5675
17093TIP3    H172694   1.615   5.350  11.336 -0.7459  1.3070 -0.9530
17093TIP3    H272695   1.512   5.267  11.262 -0.1136 -0.5957  0.2419
17094TIP3   OH272696   1.752   4.419  15.544 -0.7671 -0.3350 -0.0370
17094TIP3    H172697   1.677   4.471  15.575 -0.3075 -0.1180  0.7504
17094TIP3    H272698   1.769   4.452  15.456 -0.7163  0.6145  0.3096
17095TIP3   OH272699   4.009   4.963  10.606  0.2011  0.4410 -0.1872
17095TIP3    H172700   4.095   5.004  10.599 -0.8279  2.9510  0.5087
17095TIP3    H272701   3.970   4.974  10.519  0.0835  0.6131 -0.1154
17096TIP3   OH272702   3.498   3.162   2.065 -0.0944 -0.1838  0.0503
17096TIP3    H172703   3.492   3.228   1.996 -1.2402  1.3306  1.5205
17096TIP3    H272704   3.558   3.200   2.129 -0.8320 -0.5207  0.9560
17097TIP3   OH272705   4.807   2.183  16.522  0.2319  0.2032 -0.0089
17097TIP3    H172706   4.744   2.114  16.545 -1.2713  1.8943  1.1898
17097TIP3    H272707   4.785   2.206  16.432  0.4403 -0.5158 -0.2566
17098TIP3   OH272708   4.452   4.151  13.732 -0.2878 -0.0000  0.3196
17098TIP3    H172709   4.471   4.062  13.701 -0.1194  0.8810 -2.2959
17098TIP3    H272710   4.408   4.194  13.659 -1.0342  1.8876  1.7856
17099TIP3   OH272711   1.772   1.204   6.017  0.2124 -0.1369 -0.1355
17099TIP3    H172712   1.748   1.238   6.104  2.2043 -0.7841  0.7391
17099TIP3    H272713   1.714   1.250   5.957 -0.0464  1.6690  1.3784
17100TIP3   OH272714   1.580   3.628   1.449  0.2721  0.4995  0.0168
17100TIP3    H172715   1.609   3.701   1.395 -2.5535  1.3434 -0.5264
17100TIP3    H272716   1.505   3.592   1.402 -0.2927 -0.8054  1.7989
17101TIP3   OH272717   0.055   1.155   6.436 -1.0787 -0.0243  0.1711
17101TIP3    H172718   0.096   1.068   6.432 -2.0431 -0.6910  2.7870
17101TIP3    H272719   0.127   1.214   6.454 -0.6992 -0.6293  0.7023
17102TIP3   OH272720   0.257   4.704  12.561  0.0818  0.4852 -0.8136
17102TIP3    H172721   0.281   4.646  12.489  1.9155 -1.2813  1.0899
17102TIP3    H272722   0.253   4.792  12.522  2.6232 -0.1738 -2.7543
17103TIP3   OH272723   1.555   6.223   1.592  0.1831 -0.0505  0.0890
17103TIP3    H172724   1.603   6.193   1.515 -1.4402  1.8580 -1.7785
17103TIP3    H272725   1.482   6.162   1.601 -1.7732  1.7439 -2.2846
17104TIP3   OH272726   6.142   1.169   1.541 -0.7508  0.1769  0.3014
17104TIP3    H172727   6.172   1.223   1.614 -0.0648 -1.5142  1.3254
17104TIP3    H272728   6.047   1.180   1.541 -0.7780  0.0526  1.5753
17105TIP3   OH272729   1.422   0.241  11.865  0.1882  0.1694 -0.0336
17105TIP3    H172730   1.334   0.209  11.884  0.1341  0.9609  1.1758
17105TIP3    H272731   1.408   0.322  11.816  0.2675 -0.0370 -0.4040
17106TIP3   OH272732   5.759   3.554   3.933 -0.1333  0.0885 -0.3352
17106TIP3    H172733   5.699   3.513   3.996 -0.3496 -0.4457 -0.8836
17106TIP3    H272734   5.704   3.613   3.882  0.6327  3.5098  2.3974
17107TIP3   OH272735   1.895   5.983   2.888  0.3513  0.0169 -0.3617
17107TIP3    H172736   1.893   5.993   2.793 -1.7927 -1.7655 -0.5707
17107TIP3    H272737   1.863   5.895   2.904  1.4766 -0.0507  2.0193
17108TIP3   OH272738   0.134   1.526   2.630 -0.3185  0.6531  0.1589
17108TIP3    H172739   0.080   1.515   2.708  0.5677  0.3689  0.7564
17108TIP3    H272740   0.115   1.449   2.576  0.5231 -0.2083  1.0300
17109TIP3   OH272741   4.956   4.748   4.971  0.0627 -0.7922  0.2144
17109TIP3    H172742   4.952   4.820   5.034 -0.7126  1.1386 -1.8884
17109TIP3    H272743   4.866   4.741   4.939  0.3258 -2.1362 -0.2523
17110TIP3   OH272744   5.959   2.694  11.405 -0.3874 -0.4923 -0.4998
17110TIP3    H172745   6.029   2.644  11.445  0.8499  1.8526  0.4852
17110TIP3    H272746   6.003   2.750  11.341 -0.7686  2.9012  1.9171
17111TIP3   OH272747   4.275   2.665   1.612  0.0427  0.4318 -0.3184
17111TIP3    H172748   4.291   2.689   1.703 -1.4994 -0.4664  0.2133
17111TIP3    H272749   4.332   2.590   1.596 -0.8903 -0.4668  0.4447
17112TIP3   OH272750   1.275   2.601   4.289 -0.1010 -0.0802  0.6409
17112TIP3    H172751   1.224   2.669   4.245  1.6684  0.5717 -0.5292
17112TIP3    H272752   1.220   2.523   4.286 -1.7811  1.0420  1.1472
17113TIP3   OH272753   2.159   6.459  15.293 -0.2578 -0.3301  0.2184
17113TIP3    H172754   2.155   6.422  15.204  0.2188 -0.9182  0.4351
17113TIP3    H272755   2.068   6.457  15.323 -0.2132 -1.6979  0.3555
17114TIP3   OH272756   4.673   2.275   0.770 -0.4312 -0.4392  0.2669
17114TIP3    H172757   4.603   2.340   0.772 -0.0634 -0.0560  1.0176
17114TIP3    H272758   4.641   2.207   0.710 -3.5190 -2.6062  3.9636
17115TIP3   OH272759   1.037   6.562   3.349  0.0505 -0.1881 -0.3333
17115TIP3    H172760   1.000   6.598   3.430  0.1364  1.3540 -0.9470
17115TIP3    H272761   0.981   6.487   3.328  1.1454 -1.8594  2.1353
17116TIP3   OH272762   2.241   5.781   5.559 -0.5133  0.5110  0.0884
17116TIP3    H172763   2.203   5.757   5.643  0.4582  2.4930  1.1801
17116TIP3    H272764   2.267   5.873   5.570  3.1939 -0.2261 -0.9989
17117TIP3   OH272765   0.274   2.178   2.569 -0.1542  0.2500 -0.5350
17117TIP3    H172766   0.290   2.107   2.507  1.3668 -1.1394  1.3286
17117TIP3    H272767   0.204   2.146   2.626 -0.4715  0.8731 -0.5587
17118TIP3   OH272768   4.977   3.330  15.211 -0.3084  0.5343 -0.0565
17118TIP3    H172769   4.965   3.357  15.120 -0.0986 -1.3393 -0.6761
17118TIP3    H272770   5.027   3.402  15.250  1.9539  0.2468 -2.1204
17119TIP3   OH272771   5.060   0.836   0.179 -0.2952  0.7275 -0.0524
17119TIP3    H172772   5.123   0.764   0.177  1.0336  1.6755  2.5886
17119TIP3    H272773   5.074   0.883   0.096  1.5493  0.1176 -0.1349
17120TIP3   OH272774   4.495   2.025   3.955  0.2027  0.7140 -0.1638
17120TIP3    H172775   4.589   2.023   3.939  0.4422  1.9705  0.8859
17120TIP3    H272776   4.456   1.988   3.876  1.6064 -0.8237 -0.1857
17121TIP3   OH272777   4.457   5.446  14.930 -0.3243 -0.2621  0.8063
17121TIP3    H172778   4.445   5.432  15.024 -2.8734  0.9740  0.7484
17121TIP3    H272779   4.376   5.488  14.902  1.2160  1.3446 -1.5660
17122TIP3   OH272780   2.872   1.773  14.923  0.1244 -0.1632 -0.2680
17122TIP3    H172781   2.806   1.716  14.881  0.8922 -1.0657 -0.2733
17122TIP3    H272782   2.824   1.815  14.995 -0.6184 -0.3447 -0.6389
17123TIP3   OH272783   2.236   6.101  17.089  0.1619 -0.7530 -0.4549
17123TIP3    H172784   2.228   6.182  17.139  1.1440 -1.3063  0.6690
17123TIP3    H272785   2.213   6.125  17.000 -2.3327  0.1353  0.3474
17124TIP3   OH272786   4.833   4.313   0.784  0.0036  0.2831  0.4348
17124TIP3    H172787   4.788   4.371   0.722 -0.0362 -0.8449 -0.6259
17124TIP3    H272788   4.765   4.254   0.816  0.3206 -0.1078  0.3992
17125TIP3   OH272789   1.696   1.154   3.935 -0.3108 -0.3867 -0.1150
17125TIP3    H172790   1.787   1.183   3.940 -0.2234 -0.6834  0.0113
17125TIP3    H272791   1.645   1.230   3.961 -0.0438 -0.6817  1.3778
17126TIP3   OH272792   2.164   4.588   3.601 -0.1758 -0.0666  0.4522
17126TIP3    H172793   2.123   4.600   3.516  0.9826  0.4726 -0.0538
17126TIP3    H272794   2.233   4.524   3.586 -0.2189 -0.2738  1.0834
17127TIP3   OH272795   0.794   1.641  16.161 -0.6164  0.1273  0.2328
17127TIP3    H172796   0.819   1.581  16.091 -0.4304  0.7598 -0.2503
17127TIP3    H272797   0.820   1.597  16.242  0.6550  0.0891 -0.1850
17128TIP3   OH272798   1.637   1.170  16.693 -0.0742  0.0982 -0.1563
17128TIP3    H172799   1.643   1.188  16.599  0.8676  1.4496  0.1316
17128TIP3    H272800   1.641   1.257  16.734 -2.4456 -0.3064  1.0742
17129TIP3   OH272801   4.358   5.048  12.634  0.9692  0.1910  0.3753
17129TIP3    H172802   4.380   5.127  12.584  1.5353 -0.0716  0.2045
17129TIP3    H272803   4.362   4.977  12.571  1.3018 -0.0924  0.7131
17130TIP3   OH272804   2.105   4.363  15.077 -0.2723  0.0698  0.0607
17130TIP3    H172805   2.067   4.439  15.034  0.4626  0.0091 -0.7154
17130TIP3    H272806   2.047   4.347  15.152 -0.3610  1.4706  0.3276
17131TIP3   OH272807   2.137   2.409   0.515 -0.3410 -0.2650 -0.4778
17131TIP3    H172808   2.208   2.442   0.570 -0.4974 -0.3470 -0.2268
17131TIP3    H272809   2.086   2.487   0.492  0.0692 -0.1462 -1.0067
17132TIP3   OH272810   6.484   5.850   5.575 -0.7726 -0.3596  0.0925
17132TIP3    H172811   6.554   5.786   5.561 -1.3463 -1.4330  1.8979
17132TIP3    H272812   6.403   5.802   5.559 -1.2424 -0.3515  2.2286
17133TIP3   OH272813   3.530   5.593   1.281 -0.9428 -0.7222 -0.0189
17133TIP3    H172814   3.531   5.506   1.320 -0.7860  0.1228  1.9782
17133TIP3    H272815   3.460   5.639   1.327  0.5501  0.9225  0.7550
17134TIP3   OH272816   5.588   1.743  14.305 -0.3135  0.3710  0.3038
17134TIP3    H172817   5.508   1.692  14.308 -0.6297  0.8149 -0.3568
17134TIP3    H272818   5.578   1.809  14.373 -0.0940 -0.1526  0.8594
17135TIP3   OH272819   5.567   5.624  13.070 -0.4513  0.2856  0.1294
17135TIP3    H172820   5.595   5.651  12.982 -1.6974  1.3605  0.0319
17135TIP3    H272821   5.574   5.704  13.122 -3.7490  0.8163 -0.0330
17136TIP3   OH272822   4.579   2.968   5.073  0.4220  0.2083  0.1523
17136TIP3    H172823   4.591   2.893   5.131  1.1891 -0.0472 -0.3315
17136TIP3    H272824   4.667   3.003   5.060  0.1350  0.8752 -0.0565
17137TIP3   OH272825   2.411   4.744   5.747  0.4424 -0.0541 -0.0401
17137TIP3    H172826   2.481   4.734   5.682 -0.5591 -0.4418 -1.1029
17137TIP3    H272827   2.366   4.825   5.721  1.7533  1.3868  1.9095
17138TIP3   OH272828   3.135   0.442   2.663  0.1048 -0.1644  0.0370
17138TIP3    H172829   3.146   0.475   2.574  2.5904 -0.1884  0.2599
17138TIP3    H272830   3.074   0.502   2.704  1.0567  1.5086 -0.8966
17139TIP3   OH272831   2.978   2.769   5.973  0.1910 -0.0834  0.7371
17139TIP3    H172832   2.979   2.834   6.043  3.3642  0.8548 -0.0304
17139TIP3    H272833   3.059   2.720   5.984  0.1725 -0.7487 -1.5141
17140TIP3   OH272834   0.719   4.641  13.906  0.2992 -0.3353  0.5855
17140TIP3    H172835   0.624   4.643  13.918 -0.0013 -0.9007 -1.3977
17140TIP3    H272836   0.744   4.732  13.890  0.7182  0.4750  4.6784
17141TIP3   OH272837   1.410   1.232  13.464  0.6088 -0.3974  0.1023
17141TIP3    H172838   1.350   1.159  13.452  2.4149 -1.8185 -0.9911
17141TIP3    H272839   1.356   1.310  13.458 -1.3726 -1.6237  1.1523
17142TIP3   OH272840   4.239   1.091   6.216 -0.8270  0.3202 -0.0054
17142TIP3    H172841   4.320   1.093   6.268 -0.7417 -2.1030  0.0478
17142TIP3    H272842   4.191   1.016   6.250 -2.4974  0.9204 -0.9677
17143TIP3   OH272843   2.343   5.226   2.292 -0.0451 -0.5350  0.2742
17143TIP3    H172844   2.281   5.219   2.220  0.4129 -1.1681 -0.0759
17143TIP3    H272845   2.381   5.138   2.299  2.1663  0.2626 -0.7623
17144TIP3   OH272846   5.585   6.729  14.561  0.0497  0.0805 -0.5768
17144TIP3    H172847   5.636   6.761  14.487 -0.1334 -2.7540 -2.0872
17144TIP3    H272848   5.585   6.634  14.550 -3.1992 -0.2163  0.9180
17145TIP3   OH272849   4.211   5.247  13.579  0.1802  0.3116  0.1872
17145TIP3    H172850   4.230   5.264  13.487  1.3860 -2.1806 -0.0816
17145TIP3    H272851   4.238   5.327  13.624  1.2819  0.8824 -1.4161
17146TIP3   OH272852   0.665   2.688   5.190  0.1773  0.6288 -0.0191
17146TIP3    H172853   0.737   2.713   5.248  0.2439  1.2932 -0.3735
17146TIP3    H272854   0.704   2.691   5.102  0.7612 -2.7215  0.0161
17147TIP3   OH272855   4.267   2.867  12.525  0.6341  0.0798 -0.2263
17147TIP3    H172856   4.266   2.957  12.559 -0.5372 -0.4998  1.3997
17147TIP3    H272857   4.269   2.878  12.430 -0.1376  1.8447 -0.0847
17148TIP3   OH272858   4.347   3.483   5.733 -0.0833 -0.0120  0.0667
17148TIP3    H172859   4.329   3.489   5.827  0.8904 -3.0857  0.5478
17148TIP3    H272860   4.268   3.444   5.696 -0.3320  0.8790 -0.3673
17149TIP3   OH272861   4.740   0.086   1.234 -0.1132  0.1586  0.2421
17149TIP3    H172862   4.681   0.010   1.239 -0.5533  0.3216 -1.7337
17149TIP3    H272863   4.691   0.157   1.275 -0.6640 -0.0813  0.0087
17150TIP3   OH272864   1.707   5.957  15.661 -0.1312 -0.4748 -0.1277
17150TIP3    H172865   1.736   5.989  15.746  0.4164  1.3582 -0.9512
17150TIP3    H272866   1.771   5.993  15.599  0.1733 -2.7011 -1.2377
17151TIP3   OH272867   1.004   1.230  11.840 -0.0572  0.2824 -0.0771
17151TIP3    H172868   0.925   1.211  11.890  1.0228  3.1076  3.1000
17151TIP3    H272869   1.068   1.166  11.870  0.2142  1.1622  1.3296
17152TIP3   OH272870   0.574   3.421  11.912  0.0937 -0.2355 -0.3554
17152TIP3    H172871   0.567   3.508  11.874  0.9823  1.0654  2.2005
17152TIP3    H272872   0.512   3.422  11.985 -0.0947 -1.8794 -0.4631
17153TIP3   OH272873   4.912   0.613  13.817 -0.0676  0.1321  0.0466
17153TIP3    H172874   4.937   0.673  13.887  0.3667 -0.8364  0.7419
17153TIP3    H272875   4.828   0.646  13.785 -0.2425  0.6146  0.9925
17154TIP3   OH272876   2.518   4.934  13.397  0.4115 -0.0403 -0.2329
17154TIP3    H172877   2.578   4.860  13.403  0.3196 -0.1350 -0.4500
17154TIP3    H272878   2.452   4.905  13.334  0.4474  0.2776 -0.4137
17155TIP3   OH272879   4.979   1.916  13.702 -0.2108 -0.2759  0.9092
17155TIP3    H172880   4.986   1.959  13.616 -1.2981 -0.1056  0.8835
17155TIP3    H272881   5.037   1.840  13.696  1.0880  0.7110  0.6548
17156TIP3   OH272882   2.405   6.275  15.140  0.1861  0.0850 -0.6052
17156TIP3    H172883   2.318   6.280  15.179 -0.2028  0.3573 -1.4654
17156TIP3    H272884   2.444   6.196  15.178 -1.1490 -1.0994 -1.5605
17157TIP3   OH272885   2.009   2.988  11.053  0.3964 -0.1312 -0.2866
17157TIP3    H172886   1.919   2.957  11.055  0.6041 -0.7864  1.7846
17157TIP3    H272887   2.024   3.024  11.141  2.5467 -1.2864 -0.1128
17158TIP3   OH272888   0.225   3.882  14.275  0.1722 -0.3098  0.2826
17158TIP3    H172889   0.259   3.792  14.280  1.2753  0.0998  0.3606
17158TIP3    H272890   0.161   3.887  14.346 -1.0506 -1.4955 -0.6872
17159TIP3   OH272891   4.697   2.209  13.964 -0.1058 -0.1184 -0.0676
17159TIP3    H172892   4.710   2.133  14.020 -0.3569 -0.8630 -0.9971
17159TIP3    H272893   4.723   2.283  14.018 -2.6708 -0.5373  1.9022
17160TIP3   OH272894   4.564   5.522   3.714  0.4199 -0.4635 -0.3439
17160TIP3    H172895   4.549   5.459   3.785 -1.2387 -0.3772 -0.5700
17160TIP3    H272896   4.476   5.543   3.683  1.0947 -0.0478 -2.0418
17161TIP3   OH272897   0.444   6.054   6.174  0.8869  0.0972 -1.2055
17161TIP3    H172898   0.470   6.146   6.174  1.0906  0.0993  0.9207
17161TIP3    H272899   0.522   6.007   6.206 -0.2608 -0.3712  1.1716
17162TIP3   OH272900   5.783   2.609  11.061  0.7028 -0.3536  0.1905
17162TIP3    H172901   5.877   2.593  11.051  0.2649 -1.8850 -2.3199
17162TIP3    H272902   5.770   2.697  11.027  1.0116 -0.8255 -1.2034
17163TIP3   OH272903   5.206   2.636  17.143 -0.2696 -0.1899  0.8133
17163TIP3    H172904   5.130   2.652  17.199 -0.1625 -1.4052  1.3329
17163TIP3    H272905   5.281   2.647  17.201 -0.0211  0.9019  0.3253
17164TIP3   OH272906   0.740   6.602  12.609 -0.1359  0.0650  0.3087
17164TIP3    H172907   0.768   6.693  12.602 -1.0143  0.5154  2.0449
17164TIP3    H272908   0.756   6.579  12.700 -1.5732 -0.9269  0.3488
17165TIP3   OH272909   2.123   5.876   1.390  0.7665  0.1351  0.1841
17165TIP3    H172910   2.171   5.794   1.377 -0.0535 -0.4424  0.6602
17165TIP3    H272911   2.176   5.943   1.347  1.3730 -0.6760 -0.3518
17166TIP3   OH272912   1.383   0.777   4.413 -0.0823  0.1438 -0.0467
17166TIP3    H172913   1.410   0.769   4.322 -0.2303  1.1723 -0.1996
17166TIP3    H272914   1.461   0.808   4.459 -0.5884  1.8738 -0.2619
17167TIP3   OH272915   0.001   5.447   0.115 -0.2471 -0.2553 -0.3141
17167TIP3    H172916   0.031   5.493   0.037  0.2720 -0.9454 -0.5289
17167TIP3    H272917  -0.059   5.381   0.082  0.7523 -1.2259 -0.2515
17168TIP3   OH272918   0.047   0.853  17.275 -0.0166 -0.1981  0.4391
17168TIP3    H172919   0.016   0.944  17.278 -0.3686 -0.2266 -1.1286
17168TIP3    H272920   0.110   0.852  17.203 -0.2073 -1.2408  0.2668
17169TIP3   OH272921   4.793   6.601   1.642  0.5305 -0.1335 -0.2305
17169TIP3    H172922   4.835   6.644   1.717 -1.5034  3.0257 -0.7233
17169TIP3    H272923   4.850   6.622   1.568  1.6762 -1.8653  0.1129
17170TIP3   OH272924   1.963   2.840  11.972  0.1463 -0.0696 -0.6990
17170TIP3    H172925   1.998   2.758  12.008  1.0577 -0.0113 -1.4475
17170TIP3    H272926   1.878   2.849  12.015 -0.2432 -1.7165 -1.0278
17171TIP3   OH272927   3.514   0.024  12.183  0.2983  0.1959  0.1755
17171TIP3    H172928   3.529  -0.070  12.178 -3.9072 -0.7744  1.5694
17171TIP3    H272929   3.451   0.042  12.113  1.1725  2.0471 -0.1858
17172TIP3   OH272930   0.496   5.692  16.176  0.3266 -0.3707  0.7055
17172TIP3    H172931   0.532   5.669  16.262  2.5992  0.7603  0.1378
17172TIP3    H272932   0.523   5.620  16.119 -0.6761 -0.8336  0.8010
17173TIP3   OH272933   2.533   5.694  16.610  0.6156  0.1742  0.3525
17173TIP3    H172934   2.569   5.605  16.620 -0.3516 -0.1758  0.8419
17173TIP3    H272935   2.557   5.719  16.521 -1.6808 -1.8068 -0.9565
17174TIP3   OH272936   0.695   3.660  13.392  0.4719  0.5331 -0.1873
17174TIP3    H172937   0.675   3.736  13.447 -0.2752  0.2722 -0.0929
17174TIP3    H272938   0.787   3.640  13.412  0.8262  1.6848 -0.5540
17175TIP3   OH272939   4.039   5.764   0.591  0.1704 -0.5032 -0.4210
17175TIP3    H172940   4.117   5.776   0.646 -0.7422 -1.8273  1.2369
17175TIP3    H272941   4.074   5.735   0.507  1.5633  0.7182 -0.3065
17176TIP3   OH272942   1.286   2.342  16.667 -0.2716  0.0121  0.2070
17176TIP3    H172943   1.258   2.253  16.650  1.4769 -0.7987  1.2941
17176TIP3    H272944   1.332   2.369  16.588 -1.1353  0.1201 -0.2724
17177TIP3   OH272945   3.332   5.613  10.534  0.2775  0.6300  0.2043
17177TIP3    H172946   3.257   5.635  10.590  0.5405  1.8564  0.0906
17177TIP3    H272947   3.366   5.532  10.571 -1.2567 -0.0894  0.1112
17178TIP3   OH272948   1.764   3.597   4.741  0.1484 -0.3990 -0.3735
17178TIP3    H172949   1.717   3.523   4.704  0.1672 -1.0399  0.8493
17178TIP3    H272950   1.703   3.636   4.803  0.1177  0.6603 -1.0419
17179TIP3   OH272951   4.592   1.671   0.463 -0.1960  0.4373  0.5468
17179TIP3    H172952   4.533   1.726   0.411  0.3694  0.2892 -0.2616
17179TIP3    H272953   4.609   1.595   0.409 -0.2843 -0.1395  1.3126
17180TIP3   OH272954   4.523   3.595  13.327  0.0287 -0.0174  0.0124
17180TIP3    H172955   4.538   3.672  13.271  0.5473 -0.4692 -0.4730
17180TIP3    H272956   4.498   3.633  13.411  2.2637  0.7628  0.3949
17181TIP3   OH272957   3.555   2.507   3.249  0.3576 -0.1123 -0.2032
17181TIP3    H172958   3.605   2.565   3.192 -0.5460  0.5575 -0.3434
17181TIP3    H272959   3.581   2.533   3.338 -1.7240  2.1818 -0.1592
17182TIP3   OH272960   6.418   4.337   2.347  0.0534  0.1301  0.6218
17182TIP3    H172961   6.360   4.374   2.280 -0.8922  0.3939  1.5783
17182TIP3    H272962   6.423   4.404   2.415 -1.2433 -1.2101  2.1258
17183TIP3   OH272963   0.371   3.181  16.148  0.0289  0.1192 -0.5306
17183TIP3    H172964   0.312   3.250  16.117  1.3879  1.5266 -0.1003
17183TIP3    H272965   0.367   3.188  16.244  0.7437  0.1218 -0.4971
17184TIP3   OH272966   0.839   2.024   0.051  0.5999 -0.4456 -0.2221
17184TIP3    H172967   0.879   2.087  -0.008  0.6988 -1.1704 -0.9505
17184TIP3    H272968   0.761   1.993   0.003  0.5041 -0.8045  0.1599
17185TIP3   OH272969   1.271   5.780   0.116  0.0034 -0.0239 -0.2891
17185TIP3    H172970   1.290   5.859   0.064  3.0958  0.8722  1.9056
17185TIP3    H272971   1.287   5.708   0.055 -0.7899  0.9829 -1.7611
17186TIP3   OH272972   0.155   6.574   1.826  0.0157 -0.0014  0.1919
17186TIP3    H172973   0.208   6.495   1.815  1.0758  0.4445  1.7175
17186TIP3    H272974   0.148   6.611   1.738  3.1705  0.4820  0.0487
17187TIP3   OH272975   2.979   4.243   2.798 -0.4719  0.3645 -0.5960
17187TIP3    H172976   3.060   4.190   2.799 -0.4999  0.3296 -0.3373
17187TIP3    H272977   3.010   4.333   2.787 -0.3429  0.4631  0.5180
17188TIP3   OH272978   6.169   4.760   6.348  0.3140  0.5604 -0.8199
17188TIP3    H172979   6.159   4.854   6.332 -0.7945  0.4130 -1.1234
17188TIP3    H272980   6.081   4.731   6.372  1.1290  0.0393  1.8552
17189TIP3   OH272981   2.577   6.311   0.969  0.0204 -0.6643  0.2859
17189TIP3    H172982   2.664   6.273   0.981 -0.0689 -0.6426  1.0798
17189TIP3    H272983   2.593   6.404   0.954  0.1769 -0.8105 -0.4769
17190TIP3   OH272984   3.584   2.807  16.414 -0.8247  0.1396  0.5841
17190TIP3    H172985   3.566   2.850  16.498  1.1879  2.4120 -0.0315
17190TIP3    H272986   3.536   2.859  16.350  2.4409  2.3557 -0.2934
17191TIP3   OH272987   6.089   2.272  11.529 -0.6916 -0.0298 -0.4382
17191TIP3    H172988   6.158   2.327  11.568 -0.7036 -0.3284  0.0073
17191TIP3    H272989   6.131   2.187  11.517 -0.5013  0.2264 -1.6556
17192TIP3   OH272990   3.225   3.530   3.281 -0.0287 -0.5784  0.1782
17192TIP3    H172991   3.223   3.610   3.334  1.6372  0.3866 -1.0898
17192TIP3    H272992   3.180   3.554   3.200  0.6717 -0.8385 -0.2942
17193TIP3   OH272993   0.951   0.159   4.372  0.1707  0.4702 -0.3350
17193TIP3    H172994   1.027   0.217   4.363  0.6165 -0.1452 -0.6459
17193TIP3    H272995   0.989   0.073   4.392 -0.4247  0.0744 -0.8596
17194TIP3   OH272996   0.556   2.288   4.233  0.2513 -0.0361 -0.0805
17194TIP3    H172997   0.551   2.192   4.238 -0.3767  0.0490  2.5745
17194TIP3    H272998   0.589   2.306   4.145  0.8217 -2.6987 -0.4956
17195TIP3   OH272999   1.953   4.431  12.122  0.3203  0.4818  0.1427
17195TIP3    H173000   1.971   4.487  12.046  2.0677 -0.4713 -0.2006
17195TIP3    H273001   1.872   4.466  12.159 -1.8809 -0.3125 -3.4063
17196TIP3   OH273002   4.581   1.681  11.869 -0.2363  0.0201  0.0884
17196TIP3    H173003   4.559   1.608  11.811 -1.1723 -1.3506  2.0454
17196TIP3    H273004   4.676   1.678  11.878  0.0520  0.9248 -2.1358
17197TIP3   OH273005   5.057   1.128   3.946  0.1399  0.0437 -0.0720
17197TIP3    H173006   4.965   1.131   3.918  0.3781  1.0548 -0.7965
17197TIP3    H273007   5.062   1.189   4.019  0.0341 -0.7873  0.6482
17198TIP3   OH273008   5.278   2.335   4.913 -0.4577  0.0576 -0.5879
17198TIP3    H173009   5.259   2.426   4.891 -3.0172  0.1420  1.5012
17198TIP3    H273010   5.328   2.340   4.994 -1.0218 -0.3760 -0.2054
17199TIP3   OH273011   3.048   2.194   2.507 -0.0035  0.2359 -0.6340
17199TIP3    H173012   3.136   2.228   2.492 -0.9690  3.2749 -0.0188
17199TIP3    H273013   2.994   2.271   2.522 -2.5558 -1.5808  0.3418
17200TIP3   OH273014   5.851   2.977  17.061 -0.4990 -0.6732 -0.5581
17200TIP3    H173015   5.877   3.008  16.974 -0.7798 -2.2632 -1.2372
17200TIP3    H273016   5.757   2.993  17.066 -0.8201 -2.1872 -1.2771
17201TIP3   OH273017   1.815   2.753   3.986  0.3900  0.9820 -0.4530
17201TIP3    H173018   1.730   2.797   3.981 -0.6151 -0.7421  0.4605
17201TIP3    H273019   1.848   2.774   4.073 -0.7858 -1.1574  0.5745
17202TIP3   OH273020   6.186   4.246   0.234  0.0748 -0.0388  0.3636
17202TIP3    H173021   6.199   4.289   0.150  0.9276 -0.0058  0.4983
17202TIP3    H273022   6.233   4.302   0.297  0.5220 -0.7248  0.6603
17203TIP3   OH273023   5.230   1.681   0.054  0.1910 -0.3097  0.4051
17203TIP3    H173024   5.235   1.585   0.051 -0.3708 -0.3322 -0.1196
17203TIP3    H273025   5.313   1.711   0.017  1.1521 -0.5743  2.2509
17204TIP3   OH273026   6.495   2.431  11.365  0.2063  0.2341  0.0588
17204TIP3    H173027   6.434   2.358  11.364 -0.4763  0.7293  2.0141
17204TIP3    H273028   6.523   2.438  11.456  0.2591  2.4044 -0.0722
17205TIP3   OH273029   6.141   4.184  15.584  0.3183 -0.1704 -0.1534
17205TIP3    H173030   6.118   4.265  15.630  1.8016  0.3941 -0.3562
17205TIP3    H273031   6.158   4.121  15.655 -0.7427 -0.3023  0.0050
17206TIP3   OH273032   5.274   1.462   4.609  0.3498  0.1854  0.0629
17206TIP3    H173033   5.349   1.513   4.577  0.3105  0.3271  0.1986
17206TIP3    H273034   5.305   1.371   4.607 -0.0912  0.0382 -1.6489
17207TIP3   OH273035   5.065   4.058  14.601 -0.2558 -0.1438 -0.0465
17207TIP3    H173036   5.012   3.978  14.598 -0.9933  0.2478  1.4331
17207TIP3    H273037   5.142   4.037  14.549  0.2160 -2.3186  1.3915
17208TIP3   OH273038   6.323   5.330   4.503  0.1309 -0.0800 -0.1204
17208TIP3    H173039   6.228   5.341   4.500  0.1663 -0.0603 -1.3808
17208TIP3    H273040   6.359   5.415   4.480  0.4706 -0.0805  0.3707
17209TIP3   OH273041   4.612   6.048  15.140  0.9199 -0.6460  0.4742
17209TIP3    H173042   4.540   5.986  15.136  0.6547 -0.3203  0.1727
17209TIP3    H273043   4.617   6.073  15.233  0.5060 -0.5085  0.4608
17210TIP3   OH273044   3.379   2.089  11.552  0.6569  0.0986  0.8428
17210TIP3    H173045   3.288   2.075  11.526  1.1764 -0.5977 -0.7559
17210TIP3    H273046   3.388   2.184  11.562 -0.1447  0.1971  0.6358
17211TIP3   OH273047   6.416   6.265   0.587  0.0153  0.2076  0.4738
17211TIP3    H173048   6.478   6.199   0.557 -0.5714 -1.6367  2.9804
17211TIP3    H273049   6.447   6.347   0.549  2.1952 -1.1103 -0.7759
17212TIP3   OH273050   3.820   2.685  17.298 -0.5682  0.2282  0.1828
17212TIP3    H173051   3.773   2.767  17.285 -1.1028 -0.4022 -2.5631
17212TIP3    H273052   3.770   2.638  17.365 -2.1341  0.8147 -0.5456
17213TIP3   OH273053   0.248   1.658   2.174  0.0343 -0.6825  0.0308
17213TIP3    H173054   0.301   1.734   2.196  0.2923 -1.2602  1.5091
17213TIP3    H273055   0.277   1.589   2.234 -1.7120 -1.2979  0.2508
17214TIP3   OH273056   1.694   6.197  12.904 -0.1958 -0.2313  0.1695
17214TIP3    H173057   1.711   6.104  12.893 -2.1889 -0.5940 -0.1862
17214TIP3    H273058   1.654   6.204  12.990 -1.6049  0.0320 -0.4833
17215TIP3   OH273059   5.910   4.122  11.487 -0.0254  0.6087  0.5435
17215TIP3    H173060   5.932   4.214  11.505 -0.1745  1.2479 -2.1184
17215TIP3    H273061   5.817   4.124  11.464 -0.1343 -0.2912  0.8921
17216TIP3   OH273062   0.868   5.522   3.744  0.0450 -0.1649 -0.0219
17216TIP3    H173063   0.926   5.587   3.783 -1.0829  0.8994 -0.0858
17216TIP3    H273064   0.800   5.507   3.810 -0.0221 -0.8581 -0.2393
17217TIP3   OH273065   4.378   5.277  14.112 -0.3015  0.5687  0.4074
17217TIP3    H173066   4.382   5.299  14.019 -0.7780 -3.2794 -0.7371
17217TIP3    H273067   4.462   5.235  14.130  0.0475  1.8390  1.9509
17218TIP3   OH273068   3.214   0.897  10.914  0.4143 -0.1682 -0.1225
17218TIP3    H173069   3.220   0.840  10.837  0.4927 -1.6147  0.9143
17218TIP3    H273070   3.130   0.874  10.954  0.1489  0.9164 -0.0284
17219TIP3   OH273071   0.490   3.741   3.341 -0.2813  0.1924 -0.3237
17219TIP3    H173072   0.509   3.780   3.255 -0.7238 -1.9175 -1.4456
17219TIP3    H273073   0.548   3.665   3.345 -1.5239 -0.7275  0.4927
17220TIP3   OH273074   4.722   1.669   5.859 -0.1350 -0.4798  0.3976
17220TIP3    H173075   4.682   1.603   5.802  0.0467  0.7372 -1.2172
17220TIP3    H273076   4.672   1.664   5.940 -0.3951 -2.3022  0.1801
17221TIP3   OH273077   5.719   3.552   2.823  0.2670  0.5047 -0.1624
17221TIP3    H173078   5.628   3.568   2.845  0.3719  0.8832 -0.0011
17221TIP3    H273079   5.725   3.457   2.813  0.2443  0.2820  1.5774
17222TIP3   OH273080   3.073   6.646   6.849 -0.0069  0.1326  0.5499
17222TIP3    H173081   3.150   6.630   6.902  0.2383 -1.2704 -0.1830
17222TIP3    H273082   3.085   6.590   6.772 -1.6942 -0.0302  0.3663
17223TIP3   OH273083   5.926   0.431   2.967 -0.1765  0.0862  0.1770
17223TIP3    H173084   5.871   0.364   2.927 -0.4202  0.8901 -0.8810
17223TIP3    H273085   5.866   0.502   2.989  0.2161  0.3497  0.4170
17224TIP3   OH273086   5.416   4.975   2.805  0.2923 -0.4457 -0.0470
17224TIP3    H173087   5.496   4.963   2.856  0.4545 -1.4632 -0.5204
17224TIP3    H273088   5.354   5.013   2.866  1.7876  2.5682 -0.2153
17225TIP3   OH273089   1.976   5.541  17.057  0.3209 -0.7649  0.9261
17225TIP3    H173090   2.011   5.500  17.137  2.0192 -2.5718 -0.6418
17225TIP3    H273091   2.016   5.491  16.986 -1.5237  0.4744 -1.0717
17226TIP3   OH273092   2.965   6.539   4.819  0.3935 -0.5110  0.0710
17226TIP3    H173093   3.036   6.498   4.770  1.0860  0.7931 -0.0799
17226TIP3    H273094   3.006   6.569   4.900 -0.1708 -0.4651  0.3441
17227TIP3   OH273095   3.461   4.995  12.630  0.3322  0.0336 -0.1776
17227TIP3    H173096   3.526   4.924  12.638  0.3659  0.2460  1.7800
17227TIP3    H273097   3.404   4.966  12.558  0.6818 -1.7082  0.1885
17228TIP3   OH273098   5.477   2.748  12.191  0.3164 -0.0294 -0.5175
17228TIP3    H173099   5.544   2.697  12.145  0.0583 -0.5174 -0.3590
17228TIP3    H273100   5.399   2.740  12.137  0.1261 -0.2609 -0.2130
17229TIP3   OH273101   0.209   5.947   4.966 -1.0471 -0.0951  0.0642
17229TIP3    H173102   0.282   5.991   4.921 -0.7511 -1.4743 -0.8752
17229TIP3    H273103   0.232   5.953   5.059  0.3880 -0.6898 -0.2207
17230TIP3   OH273104   4.369   0.646   4.303 -0.0260  0.0079 -0.2765
17230TIP3    H173105   4.381   0.623   4.211 -0.0480 -1.0325 -0.0316
17230TIP3    H273106   4.458   0.654   4.337 -0.0019 -0.7700 -0.1249
17231TIP3   OH273107   4.121   6.673   2.255 -0.1150  0.5825 -0.5598
17231TIP3    H173108   4.126   6.749   2.313  1.1089 -0.8560  1.3307
17231TIP3    H273109   4.043   6.625   2.285  0.2519  0.0771 -0.4055
17232TIP3   OH273110   2.386   4.443  14.845 -0.0394 -0.4033  0.4760
17232TIP3    H173111   2.318   4.510  14.838  0.3812 -0.1247 -1.6209
17232TIP3    H273112   2.463   4.483  14.806  1.0791 -1.0623  1.9389
17233TIP3   OH273113   3.699   0.994  12.012 -0.0101 -0.3838  0.1233
17233TIP3    H173114   3.743   0.931  12.069 -1.0489 -0.2799  1.0848
17233TIP3    H273115   3.710   0.959  11.924  2.3278 -0.1476  0.2574
17234TIP3   OH273116   2.623   2.256   2.359 -0.2058  0.2171 -0.3488
17234TIP3    H173117   2.629   2.192   2.430 -1.1062  1.2949  0.7336
17234TIP3    H273118   2.706   2.304   2.364 -0.4305  0.5547  0.2477
17235TIP3   OH273119   4.090   5.469  14.735 -0.7113 -0.1744  0.3061
17235TIP3    H173120   4.006   5.495  14.698  0.6266  0.3478 -2.5711
17235TIP3    H273121   4.147   5.455  14.660  2.2181  0.9031  2.1320
17236TIP3   OH273122   4.166   2.448   3.675  0.1626  0.3863  0.2507
17236TIP3    H173123   4.140   2.538   3.659 -1.6272  0.2413  1.9214
17236TIP3    H273124   4.109   2.396   3.617  1.3330  0.2899 -0.8648
17237TIP3   OH273125   2.970   5.139  11.971  0.0508 -0.2784 -0.4476
17237TIP3    H173126   2.967   5.233  11.953 -1.3149 -0.1493  0.3499
17237TIP3    H273127   2.948   5.098  11.887 -1.2460  0.1749 -0.3393
17238TIP3   OH273128   0.678   0.848   3.206  0.2436  0.2624 -0.3869
17238TIP3    H173129   0.681   0.880   3.116  1.0965  2.5653  0.3884
17238TIP3    H273130   0.754   0.790   3.214 -0.0686 -0.2730 -1.2392
17239TIP3   OH273131   4.958   2.131   5.505  0.3121 -0.4759 -0.0398
17239TIP3    H173132   5.037   2.084   5.533  0.2171 -1.4700 -1.3603
17239TIP3    H273133   4.988   2.221   5.489  0.4982 -0.0083  2.4923
17240TIP3   OH273134   2.866   5.087   0.969 -0.5191  0.2683  0.7338
17240TIP3    H173135   2.947   5.054   0.930 -1.0384 -0.2432  0.0542
17240TIP3    H273136   2.813   5.008   0.984 -1.3893  0.6980  0.0070
17241TIP3   OH273137   2.149   2.740  13.916  0.0305 -0.5066  0.1791
17241TIP3    H173138   2.193   2.666  13.959 -0.4010 -0.7252  0.2501
17241TIP3    H273139   2.108   2.701  13.839  0.9250 -0.0885 -0.5289
17242TIP3   OH273140   0.554   1.946  12.014  0.7903 -0.0138 -0.2093
17242TIP3    H173141   0.511   2.001  12.079  1.2840  0.9955 -0.7120
17242TIP3    H273142   0.519   1.976  11.930  1.3685 -0.1855 -0.5157
17243TIP3   OH273143   4.086   6.250   4.359 -0.3820 -0.0275  0.3606
17243TIP3    H173144   4.000   6.290   4.344 -1.2716 -1.3094  1.6280
17243TIP3    H273145   4.140   6.278   4.285 -1.8418  0.9621 -0.3760
17244TIP3   OH273146   2.001   1.319   4.745 -0.3597 -0.7918  0.7519
17244TIP3    H173147   1.996   1.317   4.840  1.1302 -0.8126  0.8565
17244TIP3    H273148   2.082   1.366   4.726 -0.5465 -0.9345 -0.5019
17245TIP3   OH273149   4.911   4.088  13.666 -0.6445  0.1639 -0.1811
17245TIP3    H173150   4.882   4.006  13.706  1.1682  0.5380  2.0808
17245TIP3    H273151   4.845   4.153  13.692  0.1614  0.2619  1.7598
17246TIP3   OH273152   0.837   3.608  13.965  0.3923  0.5431  0.7651
17246TIP3    H173153   0.838   3.701  13.943  1.8472 -0.1222 -2.4329
17246TIP3    H273154   0.919   3.573  13.931 -0.4869 -2.1081  1.0936
17247TIP3   OH273155   2.558   2.393  13.676  0.1160  0.0178  0.5013
17247TIP3    H173156   2.644   2.400  13.718 -0.4416 -1.5487  2.0042
17247TIP3    H273157   2.578   2.378  13.584  1.4730 -0.6663  0.8789
17248TIP3   OH273158   1.630   4.197   1.362  0.1406 -0.1925 -0.1040
17248TIP3    H173159   1.697   4.227   1.300  0.4935  0.8550  0.7430
17248TIP3    H273160   1.679   4.165   1.438 -0.2756 -1.8865 -0.5146
17249TIP3   OH273161   6.360   6.328   0.246 -0.3000 -0.0545  0.1142
17249TIP3    H173162   6.358   6.239   0.210 -1.5706  0.2996 -0.7701
17249TIP3    H273163   6.446   6.361   0.223  0.1384 -1.0010  0.3235
17250TIP3   OH273164   0.970   0.498   5.080  0.4799  0.8217 -0.2243
17250TIP3    H173165   0.959   0.404   5.066  0.9696  0.9459 -1.7237
17250TIP3    H273166   1.065   0.510   5.090  0.3651  1.0902  0.6262
17251TIP3   OH273167   4.913   4.676   4.567 -0.0558 -0.1838  0.1208
17251TIP3    H173168   4.826   4.704   4.539  0.1328 -1.4214 -1.9061
17251TIP3    H273169   4.902   4.584   4.589  0.6107 -0.1725  0.5190
17252TIP3   OH273170   6.657   0.735   5.808 -0.3195  0.6416 -0.2172
17252TIP3    H173171   6.641   0.667   5.874  0.8284  0.7111  0.1651
17252TIP3    H273172   6.677   0.687   5.728  2.0986  0.4219  0.4275
17253TIP3   OH273173   0.566   0.679  16.810  0.1398  0.1509 -0.0612
17253TIP3    H173174   0.652   0.652  16.843 -0.8146 -1.7078  1.1171
17253TIP3    H273175   0.550   0.621  16.736 -0.4539 -0.1565  0.2956
17254TIP3   OH273176   0.570   1.120  15.163 -0.3068 -0.3736 -0.4488
17254TIP3    H173177   0.496   1.181  15.165 -0.5390 -0.6703  1.4186
17254TIP3    H273178   0.608   1.126  15.250  0.7327 -1.6265 -0.7918
17255TIP3   OH273179   5.022   1.941  16.989  0.0874  0.7030  0.5524
17255TIP3    H173180   5.017   2.012  16.924 -1.0282  1.8560  1.8358
17255TIP3    H273181   5.079   1.977  17.057  0.5808 -0.1813  0.6184
17256TIP3   OH273182   2.550   6.152   7.005  0.1803 -0.8140 -0.5123
17256TIP3    H173183   2.533   6.204   6.927  0.7572 -2.1153 -1.5360
17256TIP3    H273184   2.644   6.158   7.018  0.0759 -0.5188  0.1634
17257TIP3   OH273185   6.205   2.385   2.030  0.5844  0.0883  0.1613
17257TIP3    H173186   6.260   2.415   2.102 -0.0405  0.7327  0.3769
17257TIP3    H273187   6.166   2.303   2.061 -0.6918  1.0022  1.0935
17258TIP3   OH273188   0.303   5.034   5.985  0.5751 -0.3525 -0.5214
17258TIP3    H173189   0.232   5.054   5.924 -0.7092 -0.2918  0.9365
17258TIP3    H273190   0.259   5.021   6.069  2.1193 -2.0693  0.0795
17259TIP3   OH273191   1.306   1.546  16.009 -1.0182 -0.0897 -0.2291
17259TIP3    H173192   1.226   1.598  16.014 -0.4113  0.7856  0.5938
17259TIP3    H273193   1.343   1.549  16.097  0.4056  0.2991 -0.8009
17260TIP3   OH273194   2.115   4.203   3.740 -0.4868 -0.3576 -0.0287
17260TIP3    H173195   2.130   4.184   3.833  3.7536  1.7616 -0.0345
17260TIP3    H273196   2.061   4.282   3.741 -0.1794 -0.1412  0.6576
17261TIP3   OH273197   6.099   0.947  11.086  0.2938 -0.2548 -0.6152
17261TIP3    H173198   6.160   0.945  11.160  1.3232 -0.2565 -1.4523
17261TIP3    H273199   6.087   0.855  11.063  0.5480 -0.2186 -0.9041
17262TIP3   OH273200   2.451   5.905  12.540 -0.2434  0.6595 -0.3377
17262TIP3    H173201   2.363   5.874  12.519 -0.5395  0.9437  0.4570
17262TIP3    H273202   2.454   5.906  12.636 -0.0795  2.6137 -0.3362
17263TIP3   OH273203   6.742   3.798   2.130  0.1671  0.6199  0.3567
17263TIP3    H173204   6.723   3.735   2.200  0.9417 -0.8698 -0.7127
17263TIP3    H273205   6.795   3.865   2.173  1.3646 -0.7049  1.0664
17264TIP3   OH273206   1.987   2.043   0.565  0.1063 -0.0811  0.3869
17264TIP3    H173207   2.018   2.096   0.639 -0.3145  0.5892  0.0930
17264TIP3    H273208   2.012   1.954   0.587  1.9711  0.3899  0.3041
17265TIP3   OH273209   4.838   4.443   4.111 -0.1737 -0.3633 -0.0859
17265TIP3    H173210   4.792   4.519   4.074 -1.4135 -0.9501  0.1818
17265TIP3    H273211   4.792   4.368   4.074  0.8875 -0.9929 -0.1611
17266TIP3   OH273212   4.446   1.601   5.513  0.5889  0.6437  0.5224
17266TIP3    H173213   4.399   1.518   5.519 -2.4176  2.0879 -0.5835
17266TIP3    H273214   4.418   1.638   5.429  0.7517  3.3241  1.5262
17267TIP3   OH273215   4.019   6.701  12.629 -0.6950  0.1564 -0.3224
17267TIP3    H173216   4.019   6.711  12.534 -3.2599 -2.0198 -0.6786
17267TIP3    H273217   3.932   6.730  12.656 -0.6827 -1.0278  1.0872
17268TIP3   OH273218   0.781   1.387   5.642  0.2749 -1.1806 -0.6257
17268TIP3    H173219   0.787   1.292   5.630 -0.0911 -1.0832 -1.7260
17268TIP3    H273220   0.700   1.411   5.596 -0.9713 -0.6469  1.7105
17269TIP3   OH273221   0.228   4.584  10.573 -0.4599 -0.6575 -0.4177
17269TIP3    H173222   0.168   4.591  10.499 -2.5198 -0.5307  1.1552
17269TIP3    H273223   0.196   4.649  10.636  2.3993  0.6258 -0.1453
17270TIP3   OH273224   4.399   4.807   2.029  0.5685  0.0584  0.2429
17270TIP3    H173225   4.382   4.883   2.085  0.5989 -0.1874  0.5924
17270TIP3    H273226   4.493   4.813   2.009  0.8681 -0.5783  1.3327
17271TIP3   OH273227   5.469   3.861   2.293 -0.7545 -0.4676 -0.0017
17271TIP3    H173228   5.389   3.898   2.331 -1.3122 -0.7693 -0.8770
17271TIP3    H273229   5.530   3.857   2.367 -1.2778  0.5066  0.5029
17272TIP3   OH273230   5.932   3.943   3.062 -0.0315  0.3464  0.0089
17272TIP3    H173231   5.881   4.016   3.027  0.8106  0.8432 -0.2138
17272TIP3    H273232   5.887   3.865   3.029  0.5676  0.7762 -2.0207
17273TIP3   OH273233   2.724   2.034  11.605  0.3586 -0.0240  0.3983
17273TIP3    H173234   2.733   1.972  11.678  0.6598 -1.2340 -0.6271
17273TIP3    H273235   2.631   2.057  11.604  0.4475  0.4230  1.4776
17274TIP3   OH273236   3.048   4.678   0.141  0.3769  0.0519 -0.0007
17274TIP3    H173237   3.093   4.747   0.189 -1.5546  1.0616  0.4442
17274TIP3    H273238   2.963   4.670   0.184  0.3533 -2.2927 -0.3371
17275TIP3   OH273239   2.483   3.979  11.775  0.5237  0.4052  0.5572
17275TIP3    H173240   2.502   3.936  11.858  0.4982  0.4879  0.6064
17275TIP3    H273241   2.565   3.974  11.726  0.1027 -1.0945 -0.0647
17276TIP3   OH273242   2.846   2.759  14.936 -0.4298 -0.0160 -0.2540
17276TIP3    H173243   2.793   2.838  14.941  1.0222  0.9171  1.2522
17276TIP3    H273244   2.915   2.780  14.874  0.2063  0.0769  0.4717
17277TIP3   OH273245   5.149   3.426  12.278  0.0611  0.1047 -0.6332
17277TIP3    H173246   5.195   3.364  12.336  1.8331 -0.0359 -2.0875
17277TIP3    H273247   5.146   3.382  12.193  2.2768  2.2928 -1.9930
17278TIP3   OH273248   1.539   0.363   1.068 -0.8329 -0.2747  0.3562
17278TIP3    H173249   1.530   0.399   0.979 -1.1199  0.1192  0.5396
17278TIP3    H273250   1.465   0.400   1.116 -1.0369 -0.9926  0.5963
17279TIP3   OH273251   1.407   5.540  16.022 -0.2897  0.3100  0.3535
17279TIP3    H173252   1.365   5.511  16.102  0.2092 -0.8472  0.2106
17279TIP3    H273253   1.500   5.546  16.044 -0.3798  2.0932  0.4507
17280TIP3   OH273254   1.637   5.669  14.422 -0.3092 -0.8268 -0.0156
17280TIP3    H173255   1.674   5.750  14.389  0.1839 -0.1475  2.0900
17280TIP3    H273256   1.713   5.614  14.443 -0.5787 -0.8502  0.9166
17281TIP3   OH273257   5.809   1.753  15.973 -0.3762  0.0101  0.2262
17281TIP3    H173258   5.886   1.704  16.003 -1.6145 -1.4226  1.2619
17281TIP3    H273259   5.737   1.689  15.979 -1.7033  1.3901 -0.3996
17282TIP3   OH273260   6.516   0.535  16.630  1.1646 -0.4958  0.8808
17282TIP3    H173261   6.606   0.548  16.600  0.0931  1.6211 -1.8423
17282TIP3    H273262   6.474   0.484  16.560 -0.2535  0.3894  1.0357
17283TIP3   OH273263   6.354   4.413   1.551  0.3922 -0.0877  0.6953
17283TIP3    H173264   6.443   4.380   1.565 -0.0318 -1.1292  1.0703
17283TIP3    H273265   6.350   4.494   1.601  1.3804  0.3937  0.0099
17284TIP3   OH273266   0.793   2.573  11.654  0.0113  0.2961  0.2663
17284TIP3    H173267   0.802   2.567  11.559 -1.2288  0.7069  0.1048
17284TIP3    H273268   0.762   2.487  11.681 -0.1040  0.3314  0.2447
17285TIP3   OH273269   3.988   6.229  17.123  0.2113 -0.2225  0.0891
17285TIP3    H173270   4.075   6.198  17.100 -0.0439 -1.3978  0.6223
17285TIP3    H273271   4.001   6.321  17.148  1.5377 -0.7649  1.5473
17286TIP3   OH273272   3.417   5.162   0.951  0.0708  0.1540  0.1709
17286TIP3    H173273   3.435   5.145   1.044  0.2842 -1.7091 -0.1651
17286TIP3    H273274   3.474   5.235   0.928  0.3323  0.3584  1.3996
17287TIP3   OH273275   2.279   3.257  15.773 -0.1824 -0.1149  0.5938
17287TIP3    H173276   2.231   3.340  15.761  0.6109  0.4148  0.9894
17287TIP3    H273277   2.234   3.214  15.846 -1.1573 -0.4623 -0.1885
17288TIP3   OH273278   2.997   1.406   4.148 -0.0089 -0.3832  0.5220
17288TIP3    H173279   3.046   1.425   4.068 -1.5784 -0.8017 -0.5844
17288TIP3    H273280   2.943   1.484   4.162  1.2145  0.2439  1.9559
17289TIP3   OH273281   0.480   3.610   0.809  0.0999 -0.2523  0.4493
17289TIP3    H173282   0.434   3.528   0.829 -0.2246  0.1062  1.2355
17289TIP3    H273283   0.428   3.649   0.738 -1.0552  0.3058  1.5467
17290TIP3   OH273284   1.336   5.928  16.838  0.2349  0.0237 -1.0140
17290TIP3    H173285   1.402   5.925  16.769 -0.1898  0.5773 -1.4480
17290TIP3    H273286   1.320   6.021  16.852  0.1195 -0.0927 -0.3557
17291TIP3   OH273287   0.138   5.634  16.392  0.0448  0.3059 -0.0070
17291TIP3    H173288   0.132   5.697  16.320 -0.8303  0.2991  0.0486
17291TIP3    H273289   0.098   5.555  16.357  0.4345  0.0230  0.1882
17292TIP3   OH273290   3.917   1.156  12.721 -0.5010 -0.3672  0.0331
17292TIP3    H173291   3.956   1.093  12.660 -0.1330  0.2316 -0.3572
17292TIP3    H273292   3.936   1.241  12.682  0.5942  0.0861  1.4598
17293TIP3   OH273293   2.149   6.405  17.155 -0.3969 -0.6456 -0.1709
17293TIP3    H173294   2.190   6.488  17.131 -0.9893  0.4747  2.3088
17293TIP3    H273295   2.062   6.409  17.115  0.1049 -0.7955 -1.3188
17294TIP3   OH273296   6.043   2.209  17.181 -0.2701  0.7133 -0.2941
17294TIP3    H173297   6.113   2.144  17.175  1.5918  2.4972  0.8602
17294TIP3    H273298   6.031   2.239  17.091 -0.7481 -0.7617 -0.7513
17295TIP3   OH273299   3.416   0.914   3.033  0.0357  0.0551 -0.0499
17295TIP3    H173300   3.422   0.856   3.108  1.7010 -0.7994 -0.7918
17295TIP3    H273301   3.426   1.002   3.070 -0.5177 -0.2426  0.8500
17296TIP3   OH273302   3.411   3.487  15.349 -0.0417 -0.0691 -0.7813
17296TIP3    H173303   3.475   3.463  15.416  0.0364  1.5070 -0.2274
17296TIP3    H273304   3.458   3.548  15.292 -0.5628 -0.1829 -1.3376
17297TIP3   OH273305   4.272   3.452   5.066 -0.2047 -0.1586 -0.4283
17297TIP3    H173306   4.311   3.535   5.092 -1.8460  0.2704  0.8439
17297TIP3    H273307   4.341   3.408   5.016  0.6176  2.0525 -1.3750
17298TIP3   OH273308   5.413   0.561  15.731  0.3643  0.5848  0.2353
17298TIP3    H173309   5.397   0.601  15.817 -1.1774  0.0299  0.2424
17298TIP3    H273310   5.505   0.533  15.734  0.4085  0.8160  1.5970
17299TIP3   OH273311   2.560   6.648   2.467  0.6678 -0.3715 -0.0134
17299TIP3    H173312   2.564   6.721   2.529  0.6247 -0.4370  0.0671
17299TIP3    H273313   2.514   6.683   2.391  1.2786 -0.1030 -0.2692
17300TIP3   OH273314   6.176   5.903   3.822  0.0857 -0.0366 -0.2055
17300TIP3    H173315   6.212   5.988   3.796 -1.7972  0.4655 -1.3849
17300TIP3    H273316   6.087   5.902   3.785 -0.5920 -1.7943  1.2973
17301TIP3   OH273317   0.733   2.429  15.805 -0.1440  0.3551 -0.4570
17301TIP3    H173318   0.802   2.490  15.780 -0.7643  1.0855 -0.4342
17301TIP3    H273319   0.654   2.483  15.810 -1.1426 -0.8014 -2.4532
17302TIP3   OH273320   2.050   5.258   4.494 -0.4228  0.0543  0.2057
17302TIP3    H173321   2.113   5.187   4.511 -1.5941 -1.1631 -0.3853
17302TIP3    H273322   2.103   5.328   4.455  0.5584 -0.9893 -0.4030
17303TIP3   OH273323   5.787   4.452  14.887 -0.0159 -0.4234 -0.0404
17303TIP3    H173324   5.840   4.382  14.925 -0.4800 -1.4496 -1.2079
17303TIP3    H273325   5.828   4.533  14.918 -0.3136 -1.1668  2.5207
17304TIP3   OH273326   5.117   0.740   1.911  0.3866 -0.1984 -0.1141
17304TIP3    H173327   5.087   0.659   1.869 -1.0112 -0.1994  0.8392
17304TIP3    H273328   5.205   0.718   1.943  1.1367 -0.4684 -2.1792
17305TIP3   OH273329   3.370   2.782  12.572 -0.2671  0.1169  0.1384
17305TIP3    H173330   3.369   2.823  12.485  0.1967  1.4450  0.7285
17305TIP3    H273331   3.292   2.727  12.574  0.5014 -1.1083 -1.6462
17306TIP3   OH273332   3.659   5.452   3.228 -0.1778  0.2796  0.0436
17306TIP3    H173333   3.586   5.395   3.206  1.3868 -1.4999 -0.7417
17306TIP3    H273334   3.684   5.493   3.145 -0.5737  1.3184  0.4069
17307TIP3   OH273335   0.130   4.357   2.636  0.4253 -0.0642 -0.1351
17307TIP3    H173336   0.183   4.301   2.693  0.4901 -1.6751 -1.7065
17307TIP3    H273337   0.099   4.426   2.694  3.2245  0.2845  1.1031
17308TIP3   OH273338   2.158   1.746   0.340 -0.0586 -0.2201 -0.0394
17308TIP3    H173339   2.226   1.683   0.363  0.6116 -0.3496 -2.1222
17308TIP3    H273340   2.198   1.831   0.355  0.1570 -0.3006 -0.1462
17309TIP3   OH273341   3.016   6.297  11.416  0.1867  0.4773  0.1227
17309TIP3    H173342   2.939   6.350  11.396  0.5718  0.0999 -2.7594
17309TIP3    H273343   3.078   6.359  11.454 -0.2484  1.5994 -0.9355
17310TIP3   OH273344   1.393   6.038  11.270  0.5695 -0.4141  0.1355
17310TIP3    H173345   1.358   5.981  11.201  0.3664  0.9721 -0.9444
17310TIP3    H273346   1.315   6.065  11.319  0.4824  0.1813 -0.3287
17311TIP3   OH273347   4.052   0.610   5.837  0.1146 -0.0447  0.8446
17311TIP3    H173348   4.111   0.638   5.908 -1.3888  0.5468  1.9050
17311TIP3    H273349   4.082   0.657   5.760  1.5301 -0.3855  1.1560
17312TIP3   OH273350   4.108   6.394  15.750  0.1791 -0.4629  0.4758
17312TIP3    H173351   4.096   6.334  15.823 -0.4363 -1.7449 -0.6476
17312TIP3    H273352   4.048   6.363  15.682 -2.4732  3.1484  0.8293
17313TIP3   OH273353   5.490   5.554   5.836 -0.0499 -0.0570 -0.4511
17313TIP3    H173354   5.542   5.473   5.839 -0.2527 -0.1753  0.1931
17313TIP3    H273355   5.413   5.532   5.785  0.2027 -0.0829 -0.8229
17314TIP3   OH273356   6.008   6.609  14.979  0.4123  0.2040 -0.0001
17314TIP3    H173357   6.013   6.699  14.946  0.6421  0.9321  1.9042
17314TIP3    H273358   5.966   6.618  15.065  2.6853 -1.1878  1.3376
17315TIP3   OH273359   4.979   1.518  16.956  0.2359  0.2771  0.0643
17315TIP3    H173360   4.998   1.429  16.928  0.7057 -0.9603  3.7422
17315TIP3    H273361   4.933   1.508  17.039  0.7190  3.4589  0.8574
17316TIP3   OH273362   5.121   4.093   1.953  0.4261 -0.6628 -0.3596
17316TIP3    H173363   5.190   4.088   2.020  0.3758  1.1218 -0.1321
17316TIP3    H273364   5.168   4.086   1.870  0.5330 -2.4602 -0.1825
17317TIP3   OH273365   0.427   1.303   0.033  0.0991  0.0681 -0.0526
17317TIP3    H173366   0.436   1.267   0.121 -1.8301  0.5762  0.3954
17317TIP3    H273367   0.502   1.268  -0.015  0.5862 -1.1011  1.4815
17318TIP3   OH273368   0.274   2.553   5.547  0.1767  0.1393 -0.4567
17318TIP3    H173369   0.345   2.527   5.489 -0.8239  1.1899 -2.2840
17318TIP3    H273370   0.284   2.648   5.556  0.7940 -0.0971  1.8410
17319TIP3   OH273371   1.638   6.041   2.231  0.2788 -0.1499 -0.0312
17319TIP3    H173372   1.665   6.015   2.143  1.2875 -2.2626  0.8378
17319TIP3    H273373   1.685   5.982   2.289 -1.7650 -0.0271  1.8719
17320TIP3   OH273374   4.427   1.776  10.327 -0.2262 -0.0897 -0.2854
17320TIP3    H173375   4.499   1.771  10.391  0.3143 -2.0699 -1.0003
17320TIP3    H273376   4.459   1.839  10.262 -0.2986  1.0773  0.7720
17321TIP3   OH273377   6.140   6.330   1.563 -0.9217  0.0786 -0.3625
17321TIP3    H173378   6.142   6.423   1.539 -0.6539  0.0092 -0.6215
17321TIP3    H273379   6.075   6.324   1.633  0.2524  0.7279  0.8249
17322TIP3   OH273380   6.667   4.302   3.782  0.7154  0.0958 -0.3305
17322TIP3    H173381   6.713   4.372   3.736  0.5984 -0.3652 -1.1573
17322TIP3    H273382   6.610   4.347   3.844  0.3259  0.7438 -1.1462
17323TIP3   OH273383   2.869   1.798  12.833  0.5077 -0.5279 -0.4615
17323TIP3    H173384   2.812   1.871  12.808  0.5660 -0.0042  0.8659
17323TIP3    H273385   2.815   1.742  12.888  1.3710  0.2437  1.2428
17324TIP3   OH273386   3.462   0.798   4.332  0.9627 -0.3209  0.0614
17324TIP3    H173387   3.392   0.765   4.388  1.2527 -0.9062  0.0775
17324TIP3    H273388   3.417   0.859   4.272  0.6499  0.2848  0.8909
17325TIP3   OH273389   1.581   4.333  10.655 -0.3884  0.0688 -0.2549
17325TIP3    H173390   1.665   4.365  10.686 -0.2319  0.1794 -0.7732
17325TIP3    H273391   1.599   4.299  10.567 -0.8678  0.0273 -0.3440
17326TIP3   OH273392   4.089   1.061  16.081 -0.1389 -0.1526 -0.1450
17326TIP3    H173393   4.149   1.092  16.149 -0.7303 -1.0382  0.8032
17326TIP3    H273394   4.023   1.131  16.073  1.0633  0.9181 -1.3367
17327TIP3   OH273395   2.111   5.903   4.195  0.4659 -0.3638  0.1509
17327TIP3    H173396   2.157   5.870   4.272  1.8099  1.6662  0.2681
17327TIP3    H273397   2.067   5.982   4.225 -0.4293 -0.4819 -0.7776
17328TIP3   OH273398   1.114   4.335  12.224  0.4846  0.4407 -0.1246
17328TIP3    H173399   1.180   4.292  12.169  2.4663  3.0670 -0.0507
17328TIP3    H273400   1.031   4.300  12.193  1.7108 -0.6954 -2.4900
17329TIP3   OH273401   6.049   6.310   0.068 -0.2182  0.1033 -0.0670
17329TIP3    H173402   6.142   6.317   0.090 -0.3886  0.5390  0.5589
17329TIP3    H273403   6.047   6.276  -0.021  0.5284 -0.6180  0.1889
17330TIP3   OH273404   2.233   6.002   6.225 -0.5354 -0.0227  0.0055
17330TIP3    H173405   2.265   5.917   6.255  2.7010  0.5474 -1.4318
17330TIP3    H273406   2.254   6.062   6.296 -1.6663 -0.1745  0.4894
17331TIP3   OH273407   0.326   6.377   4.638  1.1415 -0.8493 -0.0736
17331TIP3    H173408   0.389   6.441   4.605  0.6666 -0.2840  0.1129
17331TIP3    H273409   0.282   6.421   4.711 -1.1493 -0.3321 -1.6523
17332TIP3   OH273410   4.712   0.755  11.509 -0.3135 -0.0194  0.8113
17332TIP3    H173411   4.671   0.833  11.548 -0.1415 -0.3725  1.7411
17332TIP3    H273412   4.648   0.685  11.522 -0.2225 -0.1562  0.5154
17333TIP3   OH273413   1.942   6.559   4.520 -0.0009 -0.2939  0.1927
17333TIP3    H173414   1.948   6.603   4.605  1.7532 -1.4127  0.6966
17333TIP3    H273415   1.972   6.624   4.457 -1.2961  0.5387  0.4055
17334TIP3   OH273416   5.439   2.492  13.474  0.4525 -0.3992 -0.6598
17334TIP3    H173417   5.517   2.439  13.462 -0.3325 -2.0160  0.9243
17334TIP3    H273418   5.367   2.429  13.481 -1.1299  1.0391 -2.5524
17335TIP3   OH273419   4.659   2.168  14.436  0.4004 -0.0480 -0.4168
17335TIP3    H173420   4.737   2.114  14.452 -0.0535 -0.3449  0.9286
17335TIP3    H273421   4.677   2.250  14.481 -0.7584 -0.7606  1.4594
17336TIP3   OH273422   6.154   0.820  14.553  0.0942  0.4953 -0.2628
17336TIP3    H173423   6.195   0.905  14.539  0.2771  0.8099  1.9221
17336TIP3    H273424   6.227   0.758  14.554  0.2009  0.6282  0.4348
17337TIP3   OH273425   4.348   5.759   3.106 -0.4127  0.0873 -0.6049
17337TIP3    H173426   4.415   5.803   3.053  0.8513 -0.6823  0.2935
17337TIP3    H273427   4.358   5.795   3.194 -0.4187 -0.8311 -0.2094
17338TIP3   OH273428   0.924   4.364  17.167  0.5340 -0.3284  0.3687
17338TIP3    H173429   0.865   4.291  17.187 -0.9787  0.0363 -2.2894
17338TIP3    H273430   0.968   4.338  17.086  0.6378  1.3048 -0.1363
17339TIP3   OH273431   6.553   5.185   1.441  0.4277 -0.1185  0.9467
17339TIP3    H173432   6.582   5.273   1.463 -0.8273  0.1106  1.7922
17339TIP3    H273433   6.500   5.158   1.516 -1.5138 -0.5068 -0.4969
17340TIP3   OH273434   6.065   0.249   5.459  0.2522 -0.2262  0.3957
17340TIP3    H173435   6.099   0.202   5.536  0.6590 -0.3438  0.1496
17340TIP3    H273436   6.125   0.224   5.388 -1.1055 -1.4996 -0.3570
17341TIP3   OH273437   0.428   0.302   1.765 -0.3145  0.1822 -0.0815
17341TIP3    H173438   0.456   0.234   1.825 -0.1988  0.4384  0.1580
17341TIP3    H273439   0.437   0.384   1.815 -0.3990  0.3771 -0.3806
17342TIP3   OH273440   6.505   0.210  11.823 -0.1884 -0.4452  0.5894
17342TIP3    H173441   6.593   0.247  11.830 -0.0631 -0.8907  1.6313
17342TIP3    H273442   6.477   0.198  11.914 -1.3091 -0.3584  0.2687
17343TIP3   OH273443   6.413   2.065  12.297  0.2800  0.2641  0.0910
17343TIP3    H173444   6.503   2.079  12.327  0.1045  0.3793  0.5786
17343TIP3    H273445   6.409   1.972  12.275  1.1516  0.6935 -2.1229
17344TIP3   OH273446   3.825   6.502   1.743 -0.4466  0.8087  0.0833
17344TIP3    H173447   3.784   6.468   1.664  2.1765 -1.1045 -0.5810
17344TIP3    H273448   3.762   6.486   1.812 -1.3346 -0.9003 -1.0567
17345TIP3   OH273449   0.925   4.845  16.650 -0.2785 -0.2028  0.2627
17345TIP3    H173450   0.924   4.897  16.730  0.6749 -0.4564  0.4489
17345TIP3    H273451   0.891   4.904  16.582  1.1096  0.7882  0.4008
17346TIP3   OH273452   6.680   5.962  16.120 -0.0050 -0.5581  0.2295
17346TIP3    H173453   6.770   5.930  16.125  1.2096  2.5987  1.1001
17346TIP3    H273454   6.644   5.946  16.207  1.5782  2.7420  1.6412
17347TIP3   OH273455   3.830   5.461  15.002  0.0080  0.3515 -0.0566
17347TIP3    H173456   3.846   5.438  15.093 -0.0726  0.4802 -0.0089
17347TIP3    H273457   3.784   5.385  14.965  0.3755  0.1465 -0.0914
17348TIP3   OH273458   3.454   5.193   4.082  0.8059 -0.0354  0.0682
17348TIP3    H173459   3.515   5.199   4.156  0.5450  0.9799  0.2180
17348TIP3    H273460   3.369   5.213   4.120  0.6450  0.3340 -0.4783
17349TIP3   OH273461   6.384   3.297   5.244 -0.4537  0.1927  0.1242
17349TIP3    H173462   6.300   3.253   5.253 -0.4421 -0.6490 -2.8184
17349TIP3    H273463   6.366   3.372   5.186  0.2354  2.0132  2.1254
17350TIP3   OH273464   2.136   3.059   1.229 -0.0267  0.5072 -0.2026
17350TIP3    H173465   2.228   3.061   1.203  0.2360  1.1043  0.7269
17350TIP3    H273466   2.100   3.142   1.198 -0.3309  0.1810 -0.7647
17351TIP3   OH273467   3.371   4.033  15.333  0.4319 -0.4392  0.2915
17351TIP3    H173468   3.343   4.049  15.423  0.1669 -1.3433  0.3840
17351TIP3    H273469   3.454   3.987  15.341 -0.1029 -1.4942  0.1250
17352TIP3   OH273470   3.911   4.084   5.126 -0.3988 -0.4673  0.6143
17352TIP3    H173471   3.928   4.031   5.204 -2.7590  0.5651  1.9352
17352TIP3    H273472   3.897   4.173   5.160 -2.6320 -0.2038 -0.7963
17353TIP3   OH273473   6.412   3.074   3.636  0.1795 -0.0757 -0.7085
17353TIP3    H173474   6.465   3.039   3.565 -0.0154 -0.4781 -0.6579
17353TIP3    H273475   6.451   3.038   3.716  0.1557  0.0566 -0.6358
17354TIP3   OH273476   0.763   6.011   4.832 -0.4919 -0.3106 -0.5833
17354TIP3    H173477   0.712   5.955   4.774 -1.1930 -0.9329  0.5858
17354TIP3    H273478   0.731   6.100   4.815  0.3730 -0.2772 -2.1933
17355TIP3   OH273479   3.729   3.657   4.353  0.7454  0.1240 -0.6118
17355TIP3    H173480   3.762   3.606   4.427  2.1558 -1.0341 -1.9740
17355TIP3    H273481   3.647   3.614   4.329  0.9905 -0.3756 -0.5696
17356TIP3   OH273482   2.221   1.997  17.000 -0.4965 -0.0708 -0.3168
17356TIP3    H173483   2.195   2.071  16.946 -0.3554  0.7024  0.6459
17356TIP3    H273484   2.215   2.029  17.090  0.1276 -1.0460  0.0928
17357TIP3   OH273485   3.905   2.273   0.663 -0.0666 -0.4251  1.0200
17357TIP3    H173486   3.890   2.303   0.752  1.0494 -1.4410  1.5753
17357TIP3    H273487   3.925   2.180   0.672  2.6066 -0.0442  0.0232
17358TIP3   OH273488   2.625   5.682   5.962  0.0225  0.7683 -0.0935
17358TIP3    H173489   2.621   5.777   5.972 -1.8601  0.7047  0.0046
17358TIP3    H273490   2.711   5.666   5.923  0.3082  2.5106 -0.2620
17359TIP3   OH273491   2.477   2.001   4.661 -0.1843 -0.2609  0.0424
17359TIP3    H173492   2.488   2.086   4.618  1.3558  0.6285  2.0181
17359TIP3    H273493   2.445   2.023   4.749  0.2863 -1.7092  0.6019
17360TIP3   OH273494   1.275   3.945   4.534  0.2012 -0.0116 -0.7877
17360TIP3    H173495   1.332   3.867   4.532  1.4501  0.7612  1.3527
17360TIP3    H273496   1.248   3.957   4.443  3.0889 -0.7403 -1.8519
17361TIP3   OH273497   6.543   5.968   4.831 -0.1929 -0.9175  0.0029
17361TIP3    H173498   6.617   6.024   4.853 -1.0355  0.0536  0.4494
17361TIP3    H273499   6.505   6.007   4.752 -1.4092 -0.2167  0.9095
17362TIP3   OH273500   0.293   2.567   1.273 -0.5118 -0.6007  0.3305
17362TIP3    H173501   0.287   2.651   1.320  2.8879 -1.5684  2.9371
17362TIP3    H273502   0.241   2.580   1.193 -1.1947  3.4870  1.2099
17363TIP3   OH273503   4.170   2.441  11.996  0.1429  0.3828 -0.3046
17363TIP3    H173504   4.101   2.425  11.931 -0.7546  0.1757  0.6801
17363TIP3    H273505   4.190   2.354  12.031  0.9279  0.4405 -0.5953
17364TIP3   OH273506   2.167   2.015   3.927 -0.1798 -0.4141  0.1117
17364TIP3    H173507   2.252   2.046   3.958 -0.7887  1.6721 -0.1289
17364TIP3    H273508   2.143   1.944   3.986  1.4806 -0.6625  0.5097
17365TIP3   OH273509   3.969   3.492   0.429  0.4871 -0.0892 -0.5070
17365TIP3    H173510   4.014   3.548   0.492 -0.3285 -0.3858  0.3673
17365TIP3    H273511   3.960   3.547   0.351  2.4850 -0.0934 -0.7901
17366TIP3   OH273512   5.030   4.752  16.693 -0.1302  0.0433  0.2276
17366TIP3    H173513   5.077   4.825  16.652 -1.3088 -0.4038 -2.0837
17366TIP3    H273514   4.974   4.718  16.623 -1.2193 -1.7037  1.8762
17367TIP3   OH273515   5.629   2.581   0.129  0.7705  0.3047 -0.0998
17367TIP3    H173516   5.654   2.632   0.206  0.0995  0.8172 -0.2115
17367TIP3    H273517   5.712   2.549   0.094  1.1226  0.4518  0.5670
17368TIP3   OH273518   5.864   5.433   3.948 -0.2172  0.9015  0.2336
17368TIP3    H173519   5.796   5.438   4.015 -0.6916 -0.4010 -0.1208
17368TIP3    H273520   5.817   5.417   3.866  0.3518  2.6080 -0.4673
17369TIP3   OH273521   1.745   5.840   1.286 -0.6364  0.1336  0.2448
17369TIP3    H173522   1.664   5.847   1.336 -0.2512  0.2998  0.8643
17369TIP3    H273523   1.787   5.925   1.296  1.3613 -1.0301  3.0262
17370TIP3   OH273524   4.304   3.700  14.426  0.2064 -0.1242 -0.3550
17370TIP3    H173525   4.372   3.680  14.490  1.6044 -1.0614 -2.0527
17370TIP3    H273526   4.239   3.749  14.476  0.9421 -1.2777  1.9099
17371TIP3   OH273527   3.880   1.973  12.212  0.0131  0.2763 -0.5238
17371TIP3    H173528   3.861   2.038  12.279 -0.9391 -0.9804  0.4617
17371TIP3    H273529   3.799   1.922  12.204  1.0330 -1.3935 -0.5690
17372TIP3   OH273530   3.117   1.875   0.907  0.0392 -0.0770  0.3754
17372TIP3    H173531   3.126   1.809   0.976 -0.0802 -0.4187  0.0737
17372TIP3    H273532   3.059   1.833   0.843  0.8116 -0.0986 -0.3264
17373TIP3   OH273533   0.332   3.358  15.503 -0.1855  0.0430 -0.0850
17373TIP3    H173534   0.261   3.296  15.486  1.1267 -1.0211 -2.0689
17373TIP3    H273535   0.358   3.340  15.593 -0.4793 -1.6554 -0.3053
17374TIP3   OH273536   0.426   4.989   3.833  0.0935  0.2376 -0.4703
17374TIP3    H173537   0.515   5.011   3.861  0.0277  0.0313 -0.0825
17374TIP3    H273538   0.433   4.973   3.739  0.4061  0.5293 -0.4980
17375TIP3   OH273539   6.400   3.686  15.767  0.2834  0.5762  0.1397
17375TIP3    H173540   6.312   3.666  15.799  0.0377 -0.0663 -0.8741
17375TIP3    H273541   6.426   3.607  15.719 -0.0893  2.0440 -2.7048
17376TIP3   OH273542   6.710   4.310  11.653 -0.2216 -0.1074  0.1168
17376TIP3    H173543   6.747   4.233  11.696 -1.4938 -0.7480  0.1112
17376TIP3    H273544   6.786   4.364  11.630  0.7117 -1.4617 -0.0823
17377TIP3   OH273545   5.090   1.207  11.074  0.0648 -0.0932 -0.2643
17377TIP3    H173546   5.107   1.272  11.005  0.5677 -0.6951 -0.7212
17377TIP3    H273547   4.997   1.186  11.064 -0.0796  0.4868 -0.1711
17378TIP3   OH273548   2.530   0.299  15.192  0.4526  0.1443 -0.1924
17378TIP3    H173549   2.572   0.383  15.211  3.6229 -1.0402 -1.2797
17378TIP3    H273550   2.502   0.307  15.101 -0.4095  0.4157  0.0853
17379TIP3   OH273551   0.559   0.753   4.669  0.3966 -0.1422 -0.3569
17379TIP3    H173552   0.559   0.738   4.764 -1.3092  1.2530 -0.0841
17379TIP3    H273553   0.586   0.844   4.659  0.6829 -0.3148 -1.2357
17380TIP3   OH273554   2.606   1.639   2.133  0.1195  0.0522  0.5242
17380TIP3    H173555   2.570   1.552   2.150 -0.1239 -0.0338 -0.3759
17380TIP3    H273556   2.535   1.699   2.156  0.6700  0.0948  2.2226
17381TIP3   OH273557   0.146   4.950  16.328 -0.0990 -0.1197 -0.5002
17381TIP3    H173558   0.238   4.935  16.305 -0.4198 -1.3592 -1.0312
17381TIP3    H273559   0.096   4.912  16.256 -1.0487 -0.3587  0.2556
17382TIP3   OH273560   2.253   1.759  11.726  0.3330  0.0664  0.2334
17382TIP3    H173561   2.211   1.763  11.812 -0.5581  1.1283 -0.2357
17382TIP3    H273562   2.223   1.838  11.681  2.0618  0.3564 -0.4820
17383TIP3   OH273563   5.569   0.349  11.431  0.1252 -0.1293 -0.6592
17383TIP3    H173564   5.654   0.309  11.445 -0.3028 -0.7269  0.3611
17383TIP3    H273565   5.589   0.440  11.406  1.0864 -0.8260 -2.5793
17384TIP3   OH273566   5.347   1.142  11.142  0.6846  0.2093  0.5978
17384TIP3    H173567   5.253   1.164  11.139  0.2358 -1.6109 -1.2466
17384TIP3    H273568   5.391   1.223  11.119 -0.5583  0.6405 -0.3887
17385TIP3   OH273569   1.943   3.429  15.245  0.7326 -0.1039 -0.0471
17385TIP3    H173570   2.018   3.427  15.185  1.3192  3.5293  0.3666
17385TIP3    H273571   1.871   3.389  15.194  2.2821 -1.3577 -1.3755
17386TIP3   OH273572   5.873   5.436  15.009 -0.5704 -0.3517 -0.0248
17386TIP3    H173573   5.901   5.353  14.972 -3.1189 -1.2153 -0.2135
17386TIP3    H273574   5.863   5.419  15.103  0.5133  0.2559  0.2193
17387TIP3   OH273575   3.531   0.728  11.976 -0.5288 -0.0740 -0.2766
17387TIP3    H173576   3.565   0.653  11.926 -3.0631 -1.0382 -0.7060
17387TIP3    H273577   3.595   0.741  12.046  0.3985 -2.1214 -0.6650
17388TIP3   OH273578   1.924   1.882  11.770  0.2041  0.0041 -0.3375
17388TIP3    H173579   1.907   1.976  11.773 -1.0258 -0.1859 -0.8538
17388TIP3    H273580   1.985   1.866  11.842 -0.6304  0.9907  0.6227
17389TIP3   OH273581   4.892   5.302   2.901  0.5852 -0.3017 -0.4958
17389TIP3    H173582   4.800   5.328   2.892  0.5649  0.3360  1.1572
17389TIP3    H273583   4.895   5.255   2.985  1.7445 -0.4551 -0.6124
17390TIP3   OH273584   5.008   6.744  13.549 -0.1914 -0.0556  0.2443
17390TIP3    H173585   4.947   6.788  13.608 -0.1656 -0.2121  0.3861
17390TIP3    H273586   5.074   6.705  13.606  1.5361  2.3112  0.0136
17391TIP3   OH273587   1.990   3.564   1.439  0.3568  0.1616 -0.9064
17391TIP3    H173588   1.957   3.476   1.422 -1.5134  0.8240 -0.9647
17391TIP3    H273589   2.045   3.554   1.517 -3.1327 -0.4707  1.6977
17392TIP3   OH273590   4.586   1.261  11.119 -0.0799 -0.5313  0.4458
17392TIP3    H173591   4.547   1.322  11.182 -0.5567 -1.6514  1.2764
17392TIP3    H273592   4.659   1.221  11.167 -0.7091 -1.7034  0.4493
17393TIP3   OH273593   1.707   5.025   1.891 -0.0421 -0.1175  0.3951
17393TIP3    H173594   1.627   5.041   1.841 -0.0733  1.0115  0.7763
17393TIP3    H273595   1.768   4.988   1.827 -0.6804 -0.4730 -0.0266
17394TIP3   OH273596   5.358   5.111  13.627 -0.1233 -0.1675 -0.6103
17394TIP3    H173597   5.440   5.109  13.675 -0.8021 -2.0713  0.5914
17394TIP3    H273598   5.373   5.172  13.555  1.8232  0.6721  0.4476
17395TIP3   OH273599   3.782   4.782  16.845 -0.2750 -0.2257  0.2487
17395TIP3    H173600   3.852   4.826  16.894  0.4937 -0.8851 -0.2168
17395TIP3    H273601   3.748   4.716  16.905 -0.8322  0.4153  0.6450
17396TIP3   OH273602   3.861   5.155   1.594  0.2324  0.0522 -0.5667
17396TIP3    H173603   3.805   5.136   1.669  1.0494 -0.1453  0.0098
17396TIP3    H273604   3.836   5.090   1.529 -0.7408  0.4574 -0.6135
17397TIP3   OH273605   0.873   2.898   1.638 -0.1069  0.3290  0.8365
17397TIP3    H173606   0.844   2.842   1.566  0.2394 -0.4219  1.2680
17397TIP3    H273607   0.956   2.935   1.607 -0.2950  0.5472  0.5830
17398TIP3   OH273608   2.207   4.155  12.992  0.4346 -0.4710  0.0812
17398TIP3    H173609   2.188   4.091  12.924 -0.0711  0.8511 -1.0610
17398TIP3    H273610   2.244   4.230  12.945  0.0641  0.4759  1.2491
17399TIP3   OH273611   3.447   0.501   3.407 -0.1110 -0.1252 -0.6711
17399TIP3    H173612   3.397   0.531   3.483 -1.3838  0.5214 -1.7396
17399TIP3    H273613   3.415   0.553   3.334  0.7224 -1.0850 -1.7686
17400TIP3   OH273614   5.714   0.121  12.556 -0.5739  0.2742 -0.2135
17400TIP3    H173615   5.736   0.214  12.568 -1.3805  0.3088  1.3799
17400TIP3    H273616   5.798   0.076  12.552 -0.1732  0.9423  0.4175
17401TIP3   OH273617   4.672   2.752  15.008  0.0396  0.3439  0.9618
17401TIP3    H173618   4.615   2.684  14.974  0.2225  1.4543 -1.8503
17401TIP3    H273619   4.614   2.825  15.028  0.1809  0.6017  0.4685
17402TIP3   OH273620   4.075   5.035  12.686  0.3554 -0.1690  0.8195
17402TIP3    H173621   4.079   5.124  12.650  1.0676 -0.1242  1.0019
17402TIP3    H273622   4.150   5.030  12.746 -1.2277  0.0226  2.9203
17403TIP3   OH273623   0.809   2.493   2.833 -0.3222  0.2591 -0.1702
17403TIP3    H173624   0.854   2.409   2.826  2.1613  1.4852 -0.0208
17403TIP3    H273625   0.828   2.538   2.750 -0.7826  1.0647  0.1437
17404TIP3   OH273626   2.416   1.857  13.198  0.0055  0.0991 -0.0892
17404TIP3    H173627   2.483   1.805  13.242  1.6386  0.7389 -1.7186
17404TIP3    H273628   2.340   1.798  13.192  1.7905 -2.2013 -1.8879
17405TIP3   OH273629   5.302   0.545  15.133 -0.5817 -0.6572 -0.0832
17405TIP3    H173630   5.249   0.531  15.054  0.4655 -0.7447 -0.7858
17405TIP3    H273631   5.237   0.556  15.203 -1.5196 -1.4659 -0.7930
17406TIP3   OH273632   6.114   4.966  12.147  0.0533  0.3722  0.5519
17406TIP3    H173633   6.070   5.000  12.225  0.5486  0.3571  0.8454
17406TIP3    H273634   6.148   5.044  12.103 -0.5962  0.4174  0.1146
17407TIP3   OH273635   1.379   4.190  14.932 -0.0921 -0.3701  0.0455
17407TIP3    H173636   1.451   4.173  14.871 -1.0582  0.8066 -1.5067
17407TIP3    H273637   1.302   4.201  14.876 -0.8628  1.6612  1.3785
17408TIP3   OH273638   4.926   0.339   2.389  0.0528  0.1363 -0.5776
17408TIP3    H173639   4.834   0.351   2.364  0.2104 -1.3327 -2.1303
17408TIP3    H273640   4.966   0.424   2.376 -0.9600  0.6380 -0.5145
17409TIP3   OH273641   6.621   4.793  13.538  0.6653  0.0166  0.2806
17409TIP3    H173642   6.652   4.800  13.629  1.3547 -0.5789  0.1093
17409TIP3    H273643   6.700   4.808  13.486  0.1057  1.2076 -0.2476
17410TIP3   OH273644   4.761   6.616   5.975  0.2071 -0.0403 -0.5935
17410TIP3    H173645   4.822   6.685   5.950 -0.0924  0.5474  0.2398
17410TIP3    H273646   4.783   6.543   5.918  0.4513  0.7777 -1.5760
17411TIP3   OH273647   6.692   0.099   3.235 -0.4847 -0.9016  0.4012
17411TIP3    H173648   6.784   0.115   3.211 -1.1027 -0.4505 -1.9128
17411TIP3    H273649   6.696   0.027   3.297  1.3180 -2.3485 -1.2597
17412TIP3   OH273650   4.527   2.090  16.482  0.5085  0.2229 -0.6396
17412TIP3    H173651   4.474   2.102  16.560  0.2031 -0.5176 -0.7208
17412TIP3    H273652   4.485   2.018  16.435  0.6836  0.6630 -1.4926
17413TIP3   OH273653   5.885   1.878   1.918 -0.4729 -0.4512 -0.6762
17413TIP3    H173654   5.796   1.849   1.937 -0.3815 -0.5698 -0.4214
17413TIP3    H273655   5.936   1.798   1.908 -0.0246 -0.4233  0.9510
17414TIP3   OH273656   5.512   5.480   3.734  0.0748  0.5400 -0.3403
17414TIP3    H173657   5.530   5.386   3.726  1.2068  0.5933  1.1380
17414TIP3    H273658   5.418   5.488   3.717  0.0237 -0.8072 -0.8074
17415TIP3   OH273659   4.796   6.155   4.100  0.1403 -0.0231 -0.0678
17415TIP3    H173660   4.868   6.154   4.037 -0.4317 -0.8007 -0.7275
17415TIP3    H273661   4.726   6.106   4.057 -1.1397  1.5181  0.1373
17416TIP3   OH273662   2.577   0.966  15.481  0.0732  0.1415 -0.3123
17416TIP3    H173663   2.664   0.948  15.516  0.1005 -0.2868 -0.6021
17416TIP3    H273664   2.519   0.957  15.557 -0.0073 -1.8523 -0.5472
17417TIP3   OH273665   1.855   2.968   1.456 -0.5791  0.4699  0.5544
17417TIP3    H173666   1.947   2.952   1.475 -0.2151  1.2290 -0.4964
17417TIP3    H273667   1.809   2.936   1.534  0.7318  2.1598  2.1210
17418TIP3   OH273668   5.874   3.742   2.544 -0.0167  0.0180 -0.0948
17418TIP3    H173669   5.916   3.662   2.513 -1.5802 -1.2060  0.8352
17418TIP3    H273670   5.939   3.781   2.603 -0.3296 -2.1751  1.8460
17419TIP3   OH273671   3.734   6.545   2.811  0.0345  0.2925 -0.3079
17419TIP3    H173672   3.641   6.538   2.833  0.5744 -0.4824  1.9795
17419TIP3    H273673   3.772   6.597   2.881  1.4024  0.2887 -1.0122
17420TIP3   OH273674   5.632   6.524   0.656  0.5968 -0.2468 -0.0905
17420TIP3    H173675   5.644   6.587   0.585  0.0618  0.6539  0.6049
17420TIP3    H273676   5.711   6.469   0.652  0.3651 -0.5041 -1.6560
17421TIP3   OH273677   0.731   5.638   5.507  0.2439  0.2078  0.7341
17421TIP3    H173678   0.812   5.623   5.459  1.5646  1.4311  2.4644
17421TIP3    H273679   0.729   5.568   5.573 -1.1321 -0.9609 -0.4708
17422TIP3   OH273680   2.184   0.970  10.501 -0.2595  0.3479 -0.0980
17422TIP3    H173681   2.099   0.973  10.458 -0.5299 -0.3402  0.3598
17422TIP3    H273682   2.178   1.034  10.572 -0.5268  0.0375  0.1603
17423TIP3   OH273683   2.622   0.141  16.230  0.5256 -0.3458  0.0658
17423TIP3    H173684   2.639   0.077  16.299  2.7353  0.3308  0.2129
17423TIP3    H273685   2.702   0.144  16.179 -0.6246  0.0849 -1.8196
17424TIP3   OH273686   3.680   0.025  16.020  0.1446  0.6152 -0.4397
17424TIP3    H173687   3.720  -0.022  16.093  1.1269  3.0653  0.7102
17424TIP3    H273688   3.588   0.032  16.044  0.6585  2.3982  1.2232
17425TIP3   OH273689   5.147   3.402   0.958 -0.1955 -0.3896 -0.5986
17425TIP3    H173690   5.143   3.493   0.988  0.2853 -0.3965 -0.5069
17425TIP3    H273691   5.073   3.393   0.897 -0.9879 -0.2830  0.3195
17426TIP3   OH273692   2.814   3.663  16.397  0.0085 -0.2096  0.3081
17426TIP3    H173693   2.719   3.674  16.397  0.0462  0.1735  1.4446
17426TIP3    H273694   2.842   3.690  16.484  0.9533 -2.1573  0.6625
17427TIP3   OH273695   3.064   2.101  15.804 -0.1031 -0.2455  0.6117
17427TIP3    H173696   2.981   2.125  15.765  0.6666  1.1167 -0.2511
17427TIP3    H273697   3.105   2.042  15.741 -0.6318 -1.3953  1.3024
17428TIP3   OH273698   6.609   2.046   4.770 -0.3549  0.4643 -0.0639
17428TIP3    H173699   6.600   2.033   4.676 -0.3557  0.1284 -0.0189
17428TIP3    H273700   6.537   1.995   4.808  1.1166 -1.4948  0.2516
17429TIP3   OH273701   6.248   1.297   0.909 -0.2090 -0.1173 -0.0734
17429TIP3    H173702   6.295   1.367   0.955 -4.2304  2.8033  0.1304
17429TIP3    H273703   6.249   1.323   0.817  1.1365 -1.7819 -0.5958
17430TIP3   OH273704   1.339   1.275  13.139  0.3950  0.0850  0.5478
17430TIP3    H173705   1.382   1.338  13.198 -1.5386  0.9130  1.1557
17430TIP3    H273706   1.257   1.318  13.114 -0.0064 -1.3435 -0.7284
17431TIP3   OH273707   0.135   4.761   5.091  0.6535  0.2549  0.3797
17431TIP3    H173708   0.096   4.836   5.136  0.7441  0.5286  0.0125
17431TIP3    H273709   0.140   4.789   4.999 -1.1391 -0.9376 -0.1291
17432TIP3   OH273710   3.786   6.026  13.478 -0.5134  0.1651  0.4351
17432TIP3    H173711   3.765   5.938  13.508  0.0481  0.1286  0.7345
17432TIP3    H273712   3.777   6.081  13.556 -3.5612  0.8877 -0.2627
17433TIP3   OH273713   1.993   3.219   4.756  0.1331  0.3581 -0.1922
17433TIP3    H173714   1.982   3.301   4.804  2.1651 -0.7488  2.4011
17433TIP3    H273715   1.953   3.153   4.812  0.1698 -0.6658 -1.3331
17434TIP3   OH273716   6.426   4.541  13.193  0.6065  0.2924 -0.5224
17434TIP3    H173717   6.376   4.547  13.112 -0.5547  1.0726  0.2179
17434TIP3    H273718   6.445   4.448  13.203  1.8293  0.3122 -2.2834
17435TIP3   OH273719   3.708   0.735   3.299 -0.1091 -0.0783  0.5185
17435TIP3    H173720   3.615   0.754   3.294 -0.8302 -3.2465 -0.2304
17435TIP3    H273721   3.724   0.718   3.392 -0.2695  0.5153  0.6555
17436TIP3   OH273722   0.295   4.590   2.564  0.0652  0.6110 -0.3887
17436TIP3    H173723   0.252   4.504   2.562  0.3092  0.3762  1.6145
17436TIP3    H273724   0.223   4.653   2.566 -0.3045  0.2398  2.3651
17437TIP3   OH273725   5.362   1.593  10.998 -0.4058  0.2130  0.1207
17437TIP3    H173726   5.298   1.647  11.045 -0.8752  0.5986 -0.9223
17437TIP3    H273727   5.309   1.539  10.939  0.1864 -0.0009 -0.2259
17438TIP3   OH273728   4.900   6.045  16.853  0.2080  0.4086 -0.2553
17438TIP3    H173729   4.943   6.105  16.914 -1.1170 -1.2926  2.5956
17438TIP3    H273730   4.884   6.097  16.775  2.7780  2.5116  0.4887
17439TIP3   OH273731   3.370   3.525  12.486  0.0715  0.1418 -0.1963
17439TIP3    H173732   3.350   3.556  12.574  0.1913  0.4755 -0.2840
17439TIP3    H273733   3.300   3.464  12.465  0.8013 -1.0388  0.6796
17440TIP3   OH273734   3.845   3.477  17.340 -0.2835 -0.2046 -1.0391
17440TIP3    H173735   3.872   3.447  17.253  0.5778 -0.3996 -0.7133
17440TIP3    H273736   3.801   3.401  17.379 -0.0753 -0.3301 -1.0491
17441TIP3   OH273737   1.502   1.397   6.676  0.6221 -0.2084 -0.2255
17441TIP3    H173738   1.557   1.323   6.650 -0.2989 -1.0364  0.0848
17441TIP3    H273739   1.440   1.359   6.740  0.9913  1.1259  0.9820
17442TIP3   OH273740   2.013   4.433   6.539  0.2840  0.4125 -0.1022
17442TIP3    H173741   2.001   4.483   6.620  2.3481  0.5008  0.2105
17442TIP3    H273742   1.974   4.487   6.471  1.4373  1.9384  0.3986
17443TIP3   OH273743   6.324   0.630  16.973 -0.0395  0.8597  1.2334
17443TIP3    H173744   6.389   0.681  17.021 -0.8246  1.6615  1.4780
17443TIP3    H273745   6.240   0.668  16.999 -0.5259  0.8785 -0.2450
17444TIP3   OH273746   2.893   3.738  13.708 -0.3693 -0.2006  0.4137
17444TIP3    H173747   2.845   3.753  13.626  1.2039 -4.6682 -1.6381
17444TIP3    H273748   2.954   3.812  13.714 -0.8164  0.5040 -2.2416
17445TIP3   OH273749   4.848   4.094   0.417  0.2018  0.3903 -0.4227
17445TIP3    H173750   4.939   4.074   0.439  0.1442  0.0531 -0.4847
17445TIP3    H273751   4.854   4.156   0.344  0.3826  0.5062 -0.3089
17446TIP3   OH273752   0.695   5.524   3.135  0.4219 -0.0933  0.3446
17446TIP3    H173753   0.779   5.549   3.175  0.7747  1.4984 -1.2765
17446TIP3    H273754   0.631   5.584   3.172  0.2444 -0.4011  0.5421
17447TIP3   OH273755   1.580   2.453  14.788 -0.2977  0.7495  0.2256
17447TIP3    H173756   1.596   2.487  14.877  1.5245 -1.6501  0.9235
17447TIP3    H273757   1.490   2.420  14.791 -0.1964  0.5316  1.2436
17448TIP3   OH273758   1.767   0.552  11.171  0.3556  0.4080  0.2457
17448TIP3    H173759   1.674   0.573  11.160  0.0321 -0.6420  0.7584
17448TIP3    H273760   1.791   0.595  11.254 -0.3446 -1.2666  1.3777
17449TIP3   OH273761   6.607   0.144  14.127 -0.5563  0.5798  0.2207
17449TIP3    H173762   6.577   0.055  14.146 -1.8401  1.1185  0.8201
17449TIP3    H273763   6.530   0.199  14.141 -0.0173  1.6944 -1.0045
17450TIP3   OH273764   1.432   1.811   5.084 -0.5114  0.3108 -0.1570
17450TIP3    H173765   1.420   1.721   5.116  0.1879  0.3577  0.2597
17450TIP3    H273766   1.459   1.800   4.992  0.5562  0.0398  0.1714
17451TIP3   OH273767   5.587   3.580  12.410 -0.5814 -0.3319 -0.3081
17451TIP3    H173768   5.601   3.486  12.401 -1.9679 -0.4859 -1.0780
17451TIP3    H273769   5.662   3.620  12.366  0.1889 -1.0559  0.3056
17452TIP3   OH273770   0.623   0.073  14.000 -0.0063 -0.6892  0.2153
17452TIP3    H173771   0.695   0.106  14.054 -1.1761  0.2173  1.3065
17452TIP3    H273772   0.657   0.074  13.911  0.6644  1.7503  0.4281
17453TIP3   OH273773   1.995   2.244   0.757  0.6949  0.6555 -0.7154
17453TIP3    H173774   2.021   2.331   0.787  0.1702  0.5240  0.1332
17453TIP3    H273775   2.067   2.187   0.783 -0.0972  0.4091  1.0192
17454TIP3   OH273776   1.108   4.902   0.936 -0.6221  0.1598  0.7569
17454TIP3    H173777   1.037   4.846   0.966 -1.3618  1.2308  1.0748
17454TIP3    H273778   1.066   4.965   0.877 -0.3469  2.0017  2.4017
17455TIP3   OH273779   2.929   5.475   1.455 -0.0554 -0.0393  0.3631
17455TIP3    H173780   2.913   5.385   1.425 -1.8607 -0.5320  2.5321
17455TIP3    H273781   2.878   5.529   1.395  0.4635 -0.5106 -0.5274
17456TIP3   OH273782   3.716   0.244  11.920  0.3831 -0.2143  0.4421
17456TIP3    H173783   3.643   0.294  11.956 -0.7625 -0.8166 -0.9278
17456TIP3    H273784   3.765   0.215  11.997 -0.6379  0.4645  1.3920
17457TIP3   OH273785   5.767   1.871   3.072 -0.3708 -0.0685 -0.2405
17457TIP3    H173786   5.828   1.838   3.006  1.0147 -2.3326  1.9365
17457TIP3    H273787   5.806   1.843   3.155 -2.6520  1.4960  1.4741
17458TIP3   OH273788   2.128   1.919   4.708  0.0708  0.1671  0.2950
17458TIP3    H173789   2.101   1.847   4.650  0.7086 -1.1678  1.6000
17458TIP3    H273790   2.047   1.946   4.752  0.1269 -1.0968  1.2287
17459TIP3   OH273791   2.984   6.281  12.652 -0.0815  0.8247 -0.6352
17459TIP3    H173792   3.013   6.358  12.701 -0.7668  3.0397 -3.4409
17459TIP3    H273793   2.898   6.306  12.618 -1.9124 -2.5629  1.0835
17460TIP3   OH273794   6.098   4.251  13.037 -0.4249  0.0370  0.5684
17460TIP3    H173795   6.165   4.214  12.979 -0.3613 -1.6217  1.6188
17460TIP3    H273796   6.143   4.262  13.121 -0.4575  2.5877  0.3107
17461TIP3   OH273797   0.094   5.776   6.072 -0.0555 -0.0273  0.2386
17461TIP3    H173798   0.066   5.851   6.019 -2.7041  1.5306  3.4659
17461TIP3    H273799   0.042   5.703   6.038 -1.7902  0.9547  0.6508
17462TIP3   OH273800   4.322   1.561   5.011 -0.6580  0.0315 -0.6529
17462TIP3    H173801   4.257   1.629   4.995 -1.0641 -0.6647 -2.0592
17462TIP3    H273802   4.403   1.595   4.972  0.1328  1.2740  1.8201
17463TIP3   OH273803   5.572   5.772   0.725 -0.5278  0.3274  0.6259
17463TIP3    H173804   5.488   5.733   0.748 -0.4318  0.6870  1.6563
17463TIP3    H273805   5.629   5.697   0.708 -0.6065  0.0270  1.6127
17464TIP3   OH273806   0.362   5.052  11.229  0.4200 -0.0386 -0.2481
17464TIP3    H173807   0.364   5.095  11.143  0.6103 -0.8255 -0.6484
17464TIP3    H273808   0.450   5.065  11.264  0.2158  0.6521  0.0190
17465TIP3   OH273809   3.305   2.626  13.202  0.4193  0.2743 -0.0925
17465TIP3    H173810   3.237   2.611  13.136 -0.4993 -0.1711  0.9281
17465TIP3    H273811   3.265   2.599  13.285  1.5852  0.7154  0.6422
17466TIP3   OH273812   0.380   1.834  17.072  0.1505  0.5243  0.0880
17466TIP3    H173813   0.445   1.770  17.043  0.2813 -0.0870  1.6139
17466TIP3    H273814   0.296   1.787  17.066  0.2656  0.0973  1.3748
17467TIP3   OH273815   1.856   4.986   1.667  0.1462  0.6279 -0.4030
17467TIP3    H173816   1.893   4.903   1.638  1.0144  1.2343 -1.1037
17467TIP3    H273817   1.773   4.994   1.621  0.4335  0.5068 -0.9488
17468TIP3   OH273818   1.674   0.727   1.247 -0.6879  0.1363 -0.0567
17468TIP3    H173819   1.759   0.743   1.287 -0.2755 -1.5639 -0.1926
17468TIP3    H273820   1.676   0.777   1.165  0.7575 -0.9882 -0.7546
17469TIP3   OH273821   4.631   5.719   0.939  0.4631 -0.2324  0.3118
17469TIP3    H173822   4.573   5.643   0.947  0.5829 -0.2695  0.9098
17469TIP3    H273823   4.698   5.704   1.006  1.8753 -0.8193 -1.1813
17470TIP3   OH273824   5.239   5.881  11.051 -0.2073  0.8402 -0.4133
17470TIP3    H173825   5.296   5.951  11.017  1.0184 -0.7867 -1.8807
17470TIP3    H273826   5.228   5.821  10.978  1.5028 -2.1921  1.5955
17471TIP3   OH273827   6.042   2.060   5.525  0.5892 -0.0561  0.0558
17471TIP3    H173828   6.122   2.017   5.494  1.5386  1.6756 -0.0326
17471TIP3    H273829   6.071   2.148   5.551 -1.2860  0.5966  0.0810
17472TIP3   OH273830   3.383   4.210  14.594  0.2060 -0.7938  0.3005
17472TIP3    H173831   3.334   4.260  14.659  0.6692  0.8230 -0.5301
17472TIP3    H273832   3.390   4.269  14.519 -0.1628 -2.5382 -1.1635
17473TIP3   OH273833   4.650   5.504  14.038 -0.4787 -0.0131  0.0592
17473TIP3    H173834   4.571   5.557  14.047 -0.6608 -0.2348 -0.2188
17473TIP3    H273835   4.701   5.548  13.970 -0.2815  0.2257  0.3585
17474TIP3   OH273836   2.732   1.612  11.264 -0.1531 -0.4084  0.8574
17474TIP3    H173837   2.813   1.638  11.220 -0.2253 -0.4787  0.6848
17474TIP3    H273838   2.672   1.588  11.193 -0.9671  1.4553  0.8597
17475TIP3   OH273839   5.605   3.052  17.316  0.0582 -0.1797 -0.6002
17475TIP3    H173840   5.607   3.053  17.220 -0.6976  0.4956 -0.6217
17475TIP3    H273841   5.519   3.090  17.339 -0.9228 -2.7266  0.3127
17476TIP3   OH273842   4.344   2.647  12.689 -0.1784  0.1156 -0.0037
17476TIP3    H173843   4.397   2.588  12.634 -0.7831  0.3351 -0.8422
17476TIP3    H273844   4.339   2.728  12.639 -0.7372  0.3261  0.3831
17477TIP3   OH273845   3.782   1.632   0.371 -0.1112 -0.5939  0.0613
17477TIP3    H173846   3.836   1.618   0.293 -0.1253 -0.9757  0.1197
17477TIP3    H273847   3.845   1.660   0.439 -0.2476  0.8911 -0.3860
17478TIP3   OH273848   2.515   3.140   5.347 -0.3469  0.3838  0.2769
17478TIP3    H173849   2.486   3.097   5.428 -2.1818 -1.4885 -1.2738
17478TIP3    H273850   2.596   3.185   5.372  1.0316 -2.8896  2.3991
17479TIP3   OH273851   3.772   2.430   0.497 -0.6642  0.5445  0.0396
17479TIP3    H173852   3.834   2.373   0.541 -2.7648 -0.7145  1.6015
17479TIP3    H273853   3.824   2.482   0.436  1.6097 -1.6374  0.0133
17480TIP3   OH273854   2.660   0.863   4.638 -0.1683 -0.1186  0.2276
17480TIP3    H173855   2.719   0.818   4.698  0.6251 -0.7566 -0.9813
17480TIP3    H273856   2.650   0.951   4.674 -2.2776 -1.3412  3.0389
17481TIP3   OH273857   6.396   4.186   3.256 -0.4217 -0.3775 -0.7577
17481TIP3    H173858   6.334   4.116   3.236 -1.0825 -0.0094 -0.0331
17481TIP3    H273859   6.343   4.265   3.265  0.1743 -0.0081 -0.3606
17482TIP3   OH273860   0.716   0.806   0.102 -0.1630  0.2160  0.0251
17482TIP3    H173861   0.765   0.881   0.137  0.6523 -0.3606  0.1271
17482TIP3    H273862   0.624   0.835   0.104  0.2850  2.0009 -1.8686
17483TIP3   OH273863   1.972   2.546   5.049 -0.2039 -0.2052 -0.6787
17483TIP3    H173864   2.006   2.471   5.097 -0.6214 -1.2614 -1.9932
17483TIP3    H273865   1.880   2.551   5.075 -0.7838 -1.5905 -2.2806
17484TIP3   OH273866   2.328   3.459   2.723 -0.0254 -0.1910  0.6742
17484TIP3    H173867   2.306   3.387   2.782 -0.4382  1.2705  2.3766
17484TIP3    H273868   2.331   3.418   2.636  1.4943 -2.6108  1.7491
17485TIP3   OH273869   6.281   6.020   5.465  0.1070  0.3135  0.0596
17485TIP3    H173870   6.354   5.958   5.475  2.5024  2.5877 -1.9469
17485TIP3    H273871   6.218   5.973   5.410 -0.1880 -1.8019  2.0317
17486TIP3   OH273872   3.422   1.240  16.023 -0.0062  0.0633 -0.3360
17486TIP3    H173873   3.335   1.221  15.986 -0.8318 -2.1156  2.3577
17486TIP3    H273874   3.479   1.173  15.985  0.1323  0.4657 -0.8460
17487TIP3   OH273875   3.732   6.354   5.788 -0.3735  0.0092 -0.5798
17487TIP3    H173876   3.667   6.424   5.797  1.3277  1.6947 -0.7446
17487TIP3    H273877   3.795   6.371   5.858  0.2561 -1.1841 -0.8342
17488TIP3   OH273878   5.508   0.171   4.080 -0.0867 -0.8081 -0.0296
17488TIP3    H173879   5.587   0.201   4.035  0.5831 -0.2389  1.4613
17488TIP3    H273880   5.451   0.139   4.010  0.6107  0.6986 -1.3434
17489TIP3   OH273881   2.238   0.742  16.667  0.5148  0.0583  0.6780
17489TIP3    H173882   2.180   0.795  16.612  1.1630  1.3587  1.2133
17489TIP3    H273883   2.215   0.765  16.756  1.9325  0.7174  0.8985
17490TIP3   OH273884   0.303   6.029   0.369  0.3366 -0.0409 -0.4056
17490TIP3    H173885   0.264   5.958   0.319  0.2417 -1.0618  1.0649
17490TIP3    H273886   0.270   6.018   0.457  1.7924  0.7108  0.2739
17491TIP3   OH273887   0.250   6.234  16.607 -0.3447 -0.2427 -0.3201
17491TIP3    H173888   0.322   6.250  16.547 -0.8841 -1.9734 -1.4997
17491TIP3    H273889   0.292   6.209  16.689  0.3945  1.5181 -0.1252
17492TIP3   OH273890   4.997   1.150   4.350  0.5753  0.0766  0.1408
17492TIP3    H173891   4.974   1.140   4.442 -1.1839  0.2866 -0.2402
17492TIP3    H273892   5.089   1.123   4.345  1.6026  2.6184  2.4270
17493TIP3   OH273893   4.354   2.973  12.226 -0.0107 -0.0597  0.0368
17493TIP3    H173894   4.450   2.966  12.225 -0.0755 -1.4063 -1.6287
17493TIP3    H273895   4.330   2.977  12.134 -1.5822  0.0656  0.4317
17494TIP3   OH273896   0.403   0.536   3.735  0.0815 -0.1342  0.1729
17494TIP3    H173897   0.380   0.491   3.816  1.2705 -1.6214 -0.2576
17494TIP3    H273898   0.451   0.470   3.684  0.5733  1.1822 -1.1422
17495TIP3   OH273899   0.748   4.195   1.446  0.5880 -0.1194 -0.5808
17495TIP3    H173900   0.758   4.286   1.476  2.2261 -0.4733  0.0596
17495TIP3    H273901   0.799   4.144   1.508 -1.6873 -1.7209  0.0968
17496TIP3   OH273902   5.304   5.579  12.595 -0.6007  0.1940 -0.0132
17496TIP3    H173903   5.322   5.536  12.678  3.0500  1.2093 -0.1158
17496TIP3    H273904   5.349   5.526  12.529  0.5270  1.8705 -0.6581
17497TIP3   OH273905   3.142   0.154   0.792 -0.4029  0.3500 -0.2996
17497TIP3    H173906   3.069   0.217   0.791 -0.8885 -0.1883 -2.2961
17497TIP3    H273907   3.161   0.141   0.885 -1.5789  1.9624  0.2036
17498TIP3   OH273908   0.008   5.456  12.381  0.7049  0.0585  0.4742
17498TIP3    H173909  -0.008   5.533  12.326 -3.9508  0.4469  1.9286
17498TIP3    H273910   0.040   5.390  12.320  0.3421  1.8030 -1.7636
17499TIP3   OH273911   2.095   5.568  17.331 -0.2168  0.6735  0.1235
17499TIP3    H173912   2.156   5.577  17.258 -0.6230 -0.5900 -0.4049
17499TIP3    H273913   2.148   5.534  17.403 -0.3529 -0.9071 -0.4831
17500TIP3   OH273914   3.130   2.890   6.458 -0.7951  0.6238  0.5161
17500TIP3    H173915   3.098   2.974   6.426 -2.6045 -0.4205 -0.6682
17500TIP3    H273916   3.051   2.844   6.486  0.2019 -0.5161  1.5424
17501TIP3   OH273917   2.808   4.616   4.217  0.6091 -0.0866  0.3012
17501TIP3    H173918   2.823   4.593   4.309  0.5791  0.6610  0.5005
17501TIP3    H273919   2.797   4.711   4.218  1.7677  0.0827 -0.6172
17502TIP3   OH273920   4.991   5.968  13.198  0.0058  0.4765  0.1278
17502TIP3    H173921   5.070   5.983  13.250 -0.8077  1.2122  1.1813
17502TIP3    H273922   4.969   6.053  13.162 -0.5030  0.3480  0.1289
17503TIP3   OH273923   0.337   1.875  15.583 -0.2777  0.0413  0.3607
17503TIP3    H173924   0.381   1.957  15.561 -0.9053  0.0664 -0.8983
17503TIP3    H273925   0.396   1.832  15.645  1.0773  0.4892 -0.5649
17504TIP3   OH273926   1.200   5.251   2.014 -0.0883  0.0714  0.3562
17504TIP3    H173927   1.134   5.273   2.079  0.6418 -0.6288  1.3704
17504TIP3    H273928   1.281   5.289   2.048  0.5933 -1.5410  0.6482
17505TIP3   OH273929   3.038   2.284   2.797 -0.1525  0.0584  0.1662
17505TIP3    H173930   2.999   2.214   2.745  2.2034 -2.2896  1.3088
17505TIP3    H273931   2.981   2.359   2.783 -2.5009 -1.8973 -1.6090
17506TIP3   OH273932   6.615   4.612  11.368  0.9441  0.1854 -0.2098
17506TIP3    H173933   6.521   4.611  11.386  0.6479 -0.4430 -1.6684
17506TIP3    H273934   6.655   4.597  11.453 -0.1952  2.1840  0.7541
17507TIP3   OH273935   5.802   6.249  10.870  0.2046  0.1576  0.1304
17507TIP3    H173936   5.771   6.308  10.801  1.4618  0.9266  0.1881
17507TIP3    H273937   5.842   6.176  10.823  1.2247  0.7707  0.0296
17508TIP3   OH273938   1.211   5.172   3.793  0.4182 -0.1935 -0.0083
17508TIP3    H173939   1.208   5.236   3.722 -1.5004 -0.7913 -0.5364
17508TIP3    H273940   1.130   5.120   3.783  0.3326 -0.6460  2.2837
17509TIP3   OH273941   5.465   6.297  13.529 -0.1907  0.0631  0.0007
17509TIP3    H173942   5.543   6.251  13.498  0.1203  0.4981  0.1272
17509TIP3    H273943   5.393   6.237  13.512 -0.0251  0.2388 -1.4867
17510TIP3   OH273944   1.488   2.022  11.992  0.1541 -0.2238  0.0432
17510TIP3    H173945   1.455   1.940  12.029  0.6952 -0.5774 -0.2566
17510TIP3    H273946   1.448   2.090  12.046 -0.3593 -0.6792  0.2447
17511TIP3   OH273947   6.495   2.903  15.155  0.0434 -0.5231 -0.6471
17511TIP3    H173948   6.507   2.990  15.194  0.3949 -0.9978  0.3404
17511TIP3    H273949   6.492   2.919  15.061  2.0839  0.3596 -0.6083
17512TIP3   OH273950   3.883   6.695   3.028 -0.2444  0.3343 -0.2477
17512TIP3    H173951   3.959   6.641   3.048  0.0219  0.6071 -0.5134
17512TIP3    H273952   3.820   6.674   3.097 -0.1832 -0.3779 -0.4000
17513TIP3   OH273953   4.749   1.564   4.936 -0.4655 -0.1104  0.0634
17513TIP3    H173954   4.661   1.598   4.921 -0.8010 -0.7838  0.4540
17513TIP3    H273955   4.800   1.640   4.964 -1.2308  0.0539  1.0444
17514TIP3   OH273956   1.369   5.300   5.479 -0.4315  0.6449 -0.2161
17514TIP3    H173957   1.321   5.237   5.425  0.0877  0.6203 -0.6602
17514TIP3    H273958   1.363   5.266   5.568 -1.7957  0.9862 -0.1516
17515TIP3   OH273959   5.010   0.911  12.574 -0.4090 -0.4014 -0.0935
17515TIP3    H173960   5.106   0.905  12.580 -0.2518  1.8865  0.9451
17515TIP3    H273961   4.995   0.985  12.514 -1.5270 -0.6064 -0.0854
17516TIP3   OH273962   2.985   5.056   2.530  0.1744 -0.4483  0.2747
17516TIP3    H173963   2.935   4.988   2.575  0.1948 -1.4758 -1.1740
17516TIP3    H273964   2.959   5.048   2.438 -0.3397  1.9835  0.1483
17517TIP3   OH273965   2.479   2.751   1.597  0.4057  0.2625  0.1952
17517TIP3    H173966   2.532   2.798   1.534  0.1848 -0.4193 -0.5129
17517TIP3    H273967   2.541   2.720   1.663  0.6339  1.0000  0.3344
17518TIP3   OH273968   5.260   6.602  14.177 -0.2731  0.2394 -0.0056
17518TIP3    H173969   5.241   6.669  14.243  0.2783 -1.7455  2.3026
17518TIP3    H273970   5.355   6.595  14.177 -0.2897  0.0200 -0.8096
17519TIP3   OH273971   4.902   4.109  15.770  0.3135 -1.0666  0.3238
17519TIP3    H173972   4.836   4.167  15.732  0.0591 -1.5871 -0.0372
17519TIP3    H273973   4.974   4.167  15.793  0.1439 -0.6369 -0.2115
17520TIP3   OH273974   0.258   1.709  11.017  0.5872  0.1512 -0.2550
17520TIP3    H173975   0.351   1.722  11.002  0.5930  3.4742  1.6478
17520TIP3    H273976   0.215   1.769  10.955 -0.2829 -0.9387 -0.7379
17521TIP3   OH273977   4.808   5.812  16.754  0.3220 -0.4337  0.1133
17521TIP3    H173978   4.828   5.826  16.846  0.7135  0.7151 -0.1289
17521TIP3    H273979   4.719   5.777  16.753 -0.6356  1.7986  0.8318
17522TIP3   OH273980   0.688   3.570  14.198 -0.2079  0.3223  0.4168
17522TIP3    H173981   0.699   3.480  14.227  0.3696  0.0735 -0.5265
17522TIP3    H273982   0.748   3.579  14.124 -1.1802  1.1116 -0.3051
17523TIP3   OH273983   1.798   5.123   5.980  0.2407 -0.3016  0.2251
17523TIP3    H173984   1.717   5.078   5.957  0.7129 -0.5288 -1.1238
17523TIP3    H273985   1.773   5.187   6.045 -0.3732 -2.8747  2.7096
17524TIP3   OH273986   4.247   2.964  13.409 -0.2621  0.0488  0.3307
17524TIP3    H173987   4.219   3.051  13.380  0.2588  0.3493  0.7201
17524TIP3    H273988   4.328   2.979  13.457  0.7242 -0.8516 -0.9949
17525TIP3   OH273989   5.500   2.024   3.552 -0.9243 -0.0830  0.4966
17525TIP3    H173990   5.429   2.064   3.603  0.4696 -0.6613  3.0810
17525TIP3    H273991   5.540   1.961   3.612  1.9978  0.4866 -0.6983
17526TIP3   OH273992   6.018   6.153  11.555 -0.2671  0.1698 -0.0178
17526TIP3    H173993   5.933   6.118  11.530 -0.2497  1.0495 -1.4151
17526TIP3    H273994   6.081   6.089  11.523 -0.3734 -0.5274  1.0983
17527TIP3   OH273995   3.486   4.202   6.246 -0.7011  0.0720 -0.6924
17527TIP3    H173996   3.519   4.278   6.294  0.7738  0.2454 -1.9299
17527TIP3    H273997   3.562   4.146   6.233 -1.6587 -1.4223 -0.2576
17528TIP3   OH273998   0.895   5.025  10.848  0.1857 -0.1619 -0.4841
17528TIP3    H173999   0.961   5.083  10.810 -0.3280  0.5333 -0.3258
17528TIP3    H274000   0.945   4.948  10.877  0.9271  0.3755 -0.3177
17529TIP3   OH274001   0.674   4.475   0.188 -0.0978  0.3941  0.4754
17529TIP3    H174002   0.620   4.455   0.265  1.2599 -0.0809  1.3232
17529TIP3    H274003   0.757   4.505   0.224  0.4462  0.4971 -0.8214
17530TIP3   OH274004   5.330   2.253  11.553 -0.0109 -0.6089  0.7940
17530TIP3    H174005   5.289   2.238  11.468  1.5075  0.2992 -0.1305
17530TIP3    H274006   5.270   2.314  11.598 -1.1722 -1.6345  0.6910
17531TIP3   OH274007   3.031   2.637  16.675 -0.0675  0.2663  0.0642
17531TIP3    H174008   2.998   2.726  16.689 -1.0762 -0.1292  0.2455
17531TIP3    H274009   2.994   2.611  16.591  0.1620 -0.0166  0.0519
17532TIP3   OH274010   2.676   6.409   5.933 -0.3126 -0.3840 -0.1337
17532TIP3    H174011   2.761   6.406   5.975  0.6815 -1.8557 -2.0543
17532TIP3    H274012   2.619   6.357   5.990 -0.0528  0.8971  1.3389
17533TIP3   OH274013   5.430   1.861  17.015  0.6828 -0.3996  0.6590
17533TIP3    H174014   5.490   1.843  16.943 -0.3671  0.5792 -0.4935
17533TIP3    H274015   5.371   1.928  16.982 -0.9436 -1.1896  1.8060
17534TIP3   OH274016   2.662   1.374  15.690  0.5093  0.0845  0.9791
17534TIP3    H174017   2.705   1.318  15.754  1.0721 -1.1515 -0.4183
17534TIP3    H274018   2.574   1.336  15.680  0.9461 -0.7050 -0.0909
17535TIP3   OH274019   4.171   2.204  11.351 -0.2165 -0.4680 -0.3864
17535TIP3    H174020   4.196   2.266  11.283 -0.4846  1.2441  1.0103
17535TIP3    H274021   4.109   2.145  11.308 -1.2714  1.2593 -1.3462
17536TIP3   OH274022   4.925   1.113  15.537  0.0768  0.0448 -0.1228
17536TIP3    H174023   4.963   1.054  15.472  1.3370  0.4963  0.1850
17536TIP3    H274024   4.948   1.074  15.621  1.4944  1.2677  0.1058
17537TIP3   OH274025   0.974   1.926   3.938 -0.7356  0.4194 -0.4082
17537TIP3    H174026   0.988   1.980   4.016 -0.7818  1.8857 -1.3785
17537TIP3    H274027   1.047   1.948   3.880 -1.2221  0.0742 -1.1682
17538TIP3   OH274028   4.592   5.623  16.198  0.2943 -0.5963  0.8569
17538TIP3    H174029   4.637   5.543  16.224  1.2793 -0.2918  0.1307
17538TIP3    H274030   4.510   5.592  16.158  0.8751 -1.2754  0.1641
17539TIP3   OH274031   2.934   4.178   3.171  0.2526  0.1059 -0.2010
17539TIP3    H174032   2.983   4.207   3.094 -0.2727  3.6128  0.6087
17539TIP3    H274033   2.843   4.203   3.151 -0.5847 -2.4546  0.0575
17540TIP3   OH274034   1.206   3.410  12.733  0.6361 -0.1597 -0.4103
17540TIP3    H174035   1.195   3.505  12.742  1.1136  0.0768 -2.1156
17540TIP3    H274036   1.214   3.379  12.823 -0.3297  1.3099  0.2217
17541TIP3   OH274037   0.394   0.629  17.011 -0.1914  0.6886  0.2926
17541TIP3    H174038   0.451   0.659  17.082 -0.6489  0.9841  0.5362
17541TIP3    H274039   0.451   0.629  16.934  0.7486 -1.1415  0.9238
17542TIP3   OH274040   6.310   3.385  13.318  0.2561  0.6109  0.2389
17542TIP3    H174041   6.246   3.370  13.247 -0.2869  0.1220  0.8203
17542TIP3    H274042   6.358   3.303  13.324 -0.2409  0.3617  0.9623
17543TIP3   OH274043   1.763   0.582  15.413  0.4788  0.0990 -0.2917
17543TIP3    H174044   1.673   0.576  15.382  0.3155  0.9040  0.0135
17543TIP3    H274045   1.810   0.517  15.361 -0.1975 -0.0630 -0.7217
17544TIP3   OH274046   1.231   0.894  13.122 -0.2794 -0.3795 -0.1089
17544TIP3    H174047   1.160   0.898  13.058  0.2477  0.0197 -0.6777
17544TIP3    H274048   1.187   0.896  13.207 -0.9836 -0.9490 -0.4558
17545TIP3   OH274049   4.898   2.343   1.417  0.2294 -0.3585  0.1625
17545TIP3    H174050   4.841   2.348   1.494 -1.0448 -0.8943 -0.7152
17545TIP3    H274051   4.848   2.293   1.353  1.6633 -0.7676 -0.6854
17546TIP3   OH274052   6.546   1.757  11.907 -0.3257  0.3912 -0.1230
17546TIP3    H174053   6.451   1.755  11.900 -0.3372 -0.1539  0.0988
17546TIP3    H274054   6.577   1.706  11.832 -0.2296  0.1420  0.0830
17547TIP3   OH274055   5.093   4.576   3.944  0.2241 -0.0465  0.1709
17547TIP3    H174056   5.097   4.492   3.991  1.6183 -0.0537  0.0870
17547TIP3    H274057   5.154   4.565   3.871  0.0480  0.8831 -0.1205
17548TIP3   OH274058   2.553   3.162  12.753 -0.2947  0.6619  0.3329
17548TIP3    H174059   2.518   3.073  12.754 -0.4334  0.7219  0.7811
17548TIP3    H274060   2.511   3.203  12.677 -1.0024  0.6502  0.7030
17549TIP3   OH274061   2.370   5.643   2.590  0.4497  0.1913 -0.0112
17549TIP3    H174062   2.401   5.573   2.531 -0.7666 -0.9096  0.6038
17549TIP3    H274063   2.442   5.656   2.652 -0.1527 -2.2586  1.3390
17550TIP3   OH274064   3.731   5.681   0.169  0.6438  0.3283  0.3066
17550TIP3    H174065   3.826   5.687   0.180  0.7112 -0.2283  0.0581
17550TIP3    H274066   3.697   5.758   0.215  1.0575 -0.6734  2.4425
17551TIP3   OH274067   6.621   0.643   5.091 -0.0519  0.0980 -0.1124
17551TIP3    H174068   6.603   0.587   5.167  0.1511  0.9910  0.6091
17551TIP3    H274069   6.600   0.588   5.015 -0.9165 -0.5898  0.5994
17552TIP3   OH274070   4.527   4.966  16.551  0.1569 -0.5145 -0.2516
17552TIP3    H174071   4.463   4.981  16.482 -0.2058 -1.0144 -0.0330
17552TIP3    H274072   4.544   5.053  16.587 -0.7748 -0.4346  0.0182
17553TIP3   OH274073   4.589   2.804   1.996  0.3688  0.4656 -0.1153
17553TIP3    H174074   4.665   2.813   2.053  0.2747 -0.4428  0.1801
17553TIP3    H274075   4.546   2.889   1.998  1.6744  1.1673 -0.7352
17554TIP3   OH274076   6.753   1.067  16.970 -0.6862  0.4825 -0.0958
17554TIP3    H174077   6.684   1.093  16.909 -0.1010  0.1329 -0.9267
17554TIP3    H274078   6.822   1.031  16.914 -0.4515 -0.5518  0.8240
17555TIP3   OH274079   4.099   1.672  14.173 -0.4148 -0.1549  0.6359
17555TIP3    H174080   4.183   1.660  14.128 -1.4481 -2.4460 -0.8865
17555TIP3    H274081   4.033   1.650  14.107 -2.2384  1.3402  1.8575
17556TIP3   OH274082   2.086   5.034   0.808  0.1597 -0.0702 -0.7284
17556TIP3    H174083   2.134   4.990   0.878 -0.0455  2.5933  1.2858
17556TIP3    H274084   2.136   5.115   0.792 -2.7450  2.1541  0.4810
17557TIP3   OH274085   3.017   3.354  13.617 -0.0489  0.3975 -0.1693
17557TIP3    H174086   2.979   3.274  13.579  1.5112 -0.9126  0.8710
17557TIP3    H274087   3.077   3.386  13.550  0.1488  0.0651 -0.1513
17558TIP3   OH274088   5.608   2.238  11.488 -0.0807  0.1917 -0.3605
17558TIP3    H174089   5.515   2.241  11.513 -0.1457 -0.8550 -0.4241
17558TIP3    H274090   5.632   2.330  11.474 -1.3085  0.4212 -1.0870
17559TIP3   OH274091   0.230   1.107   4.686  0.4904 -0.2749  0.1252
17559TIP3    H174092   0.143   1.092   4.722  0.6447  0.7057  0.9460
17559TIP3    H274093   0.237   1.202   4.680  0.9087 -0.3767 -1.4540
17560TIP3   OH274094   0.036   6.107   4.812 -0.0745 -0.0187  0.7107
17560TIP3    H174095   0.118   6.085   4.856 -0.1558 -0.0895  0.8298
17560TIP3    H274096   0.062   6.158   4.736  0.0606  0.1929  0.8987
17561TIP3   OH274097   5.336   3.248   4.217  0.3047  0.0530  0.4711
17561TIP3    H174098   5.250   3.279   4.246 -0.0114 -0.4416  0.0873
17561TIP3    H274099   5.317   3.170   4.165  1.0228 -0.3174  0.7435
17562TIP3   OH274100   1.648   3.947   2.343  0.0456  0.0354 -0.0262
17562TIP3    H174101   1.679   3.860   2.367  0.9818  0.4445  0.2941
17562TIP3    H274102   1.626   3.989   2.426 -0.7677 -0.0200 -0.2046
17563TIP3   OH274103   3.727   1.962   0.636  0.1360 -0.1793  0.3993
17563TIP3    H174104   3.674   1.902   0.582 -0.0538 -0.9279  1.3787
17563TIP3    H274105   3.683   2.047   0.627  0.6968 -0.0491 -1.4099
17564TIP3   OH274106   0.424   5.403  17.286 -0.0590 -0.4138  0.3023
17564TIP3    H174107   0.502   5.389  17.232  1.3382 -0.4628  2.1822
17564TIP3    H274108   0.375   5.321  17.281  0.6007 -0.7956 -0.0389
17565TIP3   OH274109   5.553   6.427  14.222 -0.3472  0.0764 -0.2334
17565TIP3    H174110   5.575   6.340  14.189 -2.8431 -0.2545 -1.3092
17565TIP3    H274111   5.534   6.478  14.143 -0.5293  1.0975  0.4569
17566TIP3   OH274112   1.038   0.836  14.249  0.0878  0.1562 -0.3454
17566TIP3    H174113   1.028   0.866  14.339  0.4252 -0.5941 -0.0476
17566TIP3    H274114   0.985   0.756  14.244  0.4453 -0.0629 -0.6789
17567TIP3   OH274115   0.984   2.845   4.635 -0.0592 -0.1192 -0.1228
17567TIP3    H174116   1.022   2.930   4.611 -2.0329  0.6047 -0.9320
17567TIP3    H274117   1.020   2.827   4.722  1.2790  0.9859 -0.4034
17568TIP3   OH274118   0.285   0.626   6.099 -0.1838 -0.0637  0.1979
17568TIP3    H174119   0.265   0.649   6.190 -2.4206  0.1876 -0.2836
17568TIP3    H274120   0.379   0.610   6.097  0.4741  2.8977  1.9249
17569TIP3   OH274121   0.242   6.644  12.147  0.4989 -0.4285  0.2782
17569TIP3    H174122   0.195   6.576  12.099  0.4747 -0.2709  0.0786
17569TIP3    H274123   0.250   6.716  12.085  1.7689 -0.7645  0.0103
17570TIP3   OH274124   5.724   4.056   5.438 -0.6203 -0.1647 -0.3103
17570TIP3    H174125   5.784   4.019   5.374  1.7915  1.7125  0.6945
17570TIP3    H274126   5.768   4.135   5.470 -2.8245  0.3396  1.8614
17571TIP3   OH274127   6.394   3.343  11.494  0.0516 -0.3009 -0.1486
17571TIP3    H174128   6.372   3.413  11.556  0.8477 -0.7165  0.6097
17571TIP3    H274129   6.315   3.334  11.440  0.3232  1.9945 -1.0598
17572TIP3   OH274130   1.825   2.061  16.016 -0.2378  0.4628 -0.0874
17572TIP3    H174131   1.885   2.135  16.017  0.2917  0.0380  1.2933
17572TIP3    H274132   1.863   2.000  15.952  0.4914  0.4494  0.3514
17573TIP3   OH274133   2.996   3.491  11.460 -0.2830 -0.2066 -0.5334
17573TIP3    H174134   3.051   3.455  11.390 -1.2869 -3.8354  0.3308
17573TIP3    H274135   3.050   3.485  11.538 -0.5294  0.0077 -0.3457
17574TIP3   OH274136   2.524   1.186   4.641 -0.6161  0.6476  0.3631
17574TIP3    H174137   2.562   1.154   4.723 -2.4096  1.2257  1.4951
17574TIP3    H274138   2.564   1.271   4.627 -0.0706  0.4107  0.4693
17575TIP3   OH274139   0.824   4.928   1.250  0.0713 -0.3166  0.4272
17575TIP3    H174140   0.891   4.991   1.223 -0.6798  0.3559  0.1259
17575TIP3    H274141   0.859   4.890   1.330  1.1941 -0.5644 -0.1551
17576TIP3   OH274142   4.275   0.828  15.727  0.7256  0.5756  0.5668
17576TIP3    H174143   4.296   0.919  15.706 -0.9663  0.5863 -1.4602
17576TIP3    H274144   4.214   0.834  15.800  2.3033  0.8927  1.9163
17577TIP3   OH274145   4.144   2.436  11.591 -0.4509 -0.3707 -0.5761
17577TIP3    H174146   4.115   2.523  11.618  0.0404  0.0663 -1.3957
17577TIP3    H274147   4.080   2.409  11.525 -1.4973 -1.3197  0.7679
17578TIP3   OH274148   4.244   2.208  14.908 -0.5184  0.1099  0.1185
17578TIP3    H174149   4.167   2.153  14.899 -0.7053  0.2495  0.7959
17578TIP3    H274150   4.246   2.232  15.001  0.6893 -0.4125  0.2460
17579TIP3   OH274151   2.843   4.740   5.797  0.8279 -0.0579 -0.4108
17579TIP3    H174152   2.909   4.740   5.728 -0.6198  1.5340 -1.8989
17579TIP3    H274153   2.779   4.805   5.769 -0.4971 -0.2877  1.8255
17580TIP3   OH274154   6.084   6.329   5.610  0.7233 -0.1503  0.4304
17580TIP3    H174155   6.014   6.380   5.649  1.2078 -1.2165  2.8908
17580TIP3    H274156   6.159   6.389   5.606 -0.2471  1.0343 -2.3407
17581TIP3   OH274157   5.598   1.409  15.828  0.9250 -0.2663  0.3515
17581TIP3    H174158   5.556   1.470  15.767 -3.2435 -1.0375  2.1436
17581TIP3    H274159   5.590   1.450  15.913  2.1205 -1.3847  1.0385
17582TIP3   OH274160   6.047   5.845   3.460  0.1032  0.2496  0.4774
17582TIP3    H174161   6.140   5.827   3.442  0.1199  0.0854  0.7177
17582TIP3    H274162   6.001   5.810   3.384  0.3264  1.3726 -0.1865
17583TIP3   OH274163   3.163   1.056  10.505 -0.0442  0.0074 -0.7389
17583TIP3    H174164   3.128   1.092  10.586  1.9664 -2.6493  1.5027
17583TIP3    H274165   3.240   1.108  10.486  0.0465  0.0091 -0.3632
17584TIP3   OH274166   4.826   1.223   6.207  0.7433 -0.5007 -0.3968
17584TIP3    H174167   4.863   1.300   6.251 -1.3661 -0.1814  0.9845
17584TIP3    H274168   4.768   1.184   6.273  0.5565 -2.3777 -1.6082
17585TIP3   OH274169   5.480   5.356  13.110  0.7233  0.3562 -0.3874
17585TIP3    H174170   5.492   5.449  13.126  2.3302  0.1817 -0.4857
17585TIP3    H274171   5.568   5.319  13.111  0.0112 -1.7707  3.3090
17586TIP3   OH274172   5.479   2.732  13.394  0.0647  0.2948 -0.0901
17586TIP3    H174173   5.414   2.790  13.434 -0.8594  0.4738 -1.7406
17586TIP3    H274174   5.464   2.647  13.434 -2.3732 -0.0721 -1.5535
17587TIP3   OH274175   6.494   1.350   0.245 -0.2012 -0.3508  0.1387
17587TIP3    H174176   6.524   1.353   0.154 -0.6796  0.0574 -0.0138
17587TIP3    H274177   6.535   1.272   0.281  0.5496 -0.1446 -0.2304
17588TIP3   OH274178   5.869   0.197  16.364 -0.0656  0.2141 -0.4112
17588TIP3    H174179   5.811   0.184  16.289  0.6628  1.1628 -1.1658
17588TIP3    H274180   5.901   0.287  16.354 -0.6362  0.6871  1.5278
17589TIP3   OH274181   2.923   4.444  16.599 -0.0766  0.6700 -0.6654
17589TIP3    H174182   2.998   4.502  16.605 -0.2305  0.7012  1.2910
17589TIP3    H274183   2.956   4.358  16.625 -0.6790  0.6681  0.1458
17590TIP3   OH274184   6.386   2.384   4.334  0.1887  0.0064  0.6429
17590TIP3    H174185   6.421   2.310   4.285  1.2524  0.1142  1.2124
17590TIP3    H274186   6.462   2.424   4.376 -0.2035  1.9749 -0.3731
17591TIP3   OH274187   3.155   5.530  13.024  0.0675  0.2652 -0.0161
17591TIP3    H174188   3.086   5.583  13.064  0.6780  1.0388  0.0347
17591TIP3    H274189   3.130   5.525  12.931 -0.7871 -0.6469  0.2355
17592TIP3   OH274190   1.180   4.770   1.450  0.4340 -0.0956 -0.4109
17592TIP3    H174191   1.170   4.847   1.506 -0.9268 -1.0773  0.7653
17592TIP3    H274192   1.274   4.751   1.450  1.0321  2.4040 -1.9578
17593TIP3   OH274193   5.914   2.458   3.033  0.3991  0.0463  0.3782
17593TIP3    H174194   5.819   2.461   3.035  0.4033  0.4320  0.1677
17593TIP3    H274195   5.940   2.461   3.126  0.2352  1.4055  0.3957
17594TIP3   OH274196   0.969   3.493  16.103 -0.0694 -0.5406  0.7920
17594TIP3    H174197   0.929   3.419  16.058 -2.0877  0.4483  0.8371
17594TIP3    H274198   0.895   3.544  16.135  1.2781  0.4303  2.5398
17595TIP3   OH274199   3.186   1.959  15.554  0.0041  0.3363 -0.2007
17595TIP3    H174200   3.279   1.943  15.534 -0.7521 -2.3958 -2.1003
17595TIP3    H274201   3.156   2.018  15.486 -0.2087 -0.9401 -1.2654
17596TIP3   OH274202   3.482   6.467   2.888 -0.8228  0.1438 -0.1153
17596TIP3    H174203   3.521   6.396   2.938  1.8479  0.3734 -1.6417
17596TIP3    H274204   3.434   6.519   2.952 -0.1012 -1.2466  1.6142
17597TIP3   OH274205   1.601   1.157   0.935  0.4112  0.0221 -0.4057
17597TIP3    H174206   1.521   1.185   0.978  0.5856  0.3524 -0.2897
17597TIP3    H274207   1.664   1.227   0.954  1.1975 -0.9828  0.8511
17598TIP3   OH274208   5.068   0.114   0.547 -0.3063  0.3461 -0.2387
17598TIP3    H174209   5.014   0.143   0.474 -1.8245 -0.6372  0.4496
17598TIP3    H274210   5.076   0.191   0.603  0.7417  1.0640 -1.3181
17599TIP3   OH274211   4.521   1.973   0.649 -0.2244  0.5615  0.0532
17599TIP3    H174212   4.547   2.051   0.601  2.7468  1.1304  2.3172
17599TIP3    H274213   4.602   1.924   0.663 -1.7531 -2.2185  0.0642
17600TIP3   OH274214   1.153   6.238   4.560  0.2169  0.2986  0.1607
17600TIP3    H174215   1.139   6.212   4.651  0.1859 -0.9961 -0.1846
17600TIP3    H274216   1.067   6.263   4.529 -0.1336 -1.0208 -0.0078
17601TIP3   OH274217   0.904   5.416   2.718 -0.2240  0.2613  0.0333
17601TIP3    H174218   0.937   5.411   2.807  1.0369  1.0275 -0.3777
17601TIP3    H274219   0.817   5.456   2.727  0.1908  1.0081  0.8514
17602TIP3   OH274220   0.189   6.453   4.296  0.0360 -0.1147  0.9871
17602TIP3    H174221   0.163   6.485   4.210  1.2049 -0.3653  0.5218
17602TIP3    H274222   0.229   6.528   4.339  2.1442 -0.7112  0.1605
17603TIP3   OH274223   1.189   0.796   4.914  0.4742 -0.4354 -0.1670
17603TIP3    H174224   1.159   0.791   5.004 -1.6492  0.4004 -0.7574
17603TIP3    H274225   1.156   0.716   4.873  1.7123 -0.9748 -0.1650
17604TIP3   OH274226   3.184   0.562  15.958  0.1833  0.1678  0.1355
17604TIP3    H174227   3.223   0.492  15.905  0.3665 -0.4615  1.0627
17604TIP3    H274228   3.250   0.579  16.026 -0.6968 -0.1649  1.0965
17605TIP3   OH274229   0.645   6.342   1.721 -0.3764  0.1698 -0.4061
17605TIP3    H174230   0.668   6.417   1.776 -1.6247  1.8843 -2.0991
17605TIP3    H274231   0.575   6.298   1.769 -0.7356  1.0279 -0.1289
17606TIP3   OH274232   3.274   1.461   6.578 -0.1936  0.1576 -0.1579
17606TIP3    H174233   3.261   1.553   6.601 -0.6084  0.1912 -0.5080
17606TIP3    H274234   3.189   1.420   6.594 -0.0329 -0.1454 -0.0813
17607TIP3   OH274235   5.280   0.001   2.455  0.4549 -0.5572 -0.1870
17607TIP3    H174236   5.360   0.053   2.445  1.8932 -2.4458  0.9722
17607TIP3    H274237   5.310  -0.085   2.483 -2.0996 -0.7795  2.3093
17608TIP3   OH274238   0.412   1.942  12.565  0.4088 -0.0267  0.0373
17608TIP3    H174239   0.451   1.856  12.583  0.0308  0.1154  1.7161
17608TIP3    H274240   0.351   1.926  12.493  0.1195 -1.2445  0.5216
17609TIP3   OH274241   1.988   0.763  11.077  0.1088  0.2582 -0.1166
17609TIP3    H174242   2.075   0.749  11.114 -0.4792  0.3778  1.3797
17609TIP3    H274243   1.945   0.821  11.139 -0.8452  0.6798 -1.1477
17610TIP3   OH274244   3.972   3.681  13.835  0.2673  0.0667 -0.1157
17610TIP3    H174245   3.926   3.765  13.841 -0.8606 -0.6187  1.3163
17610TIP3    H274246   3.905   3.620  13.803  0.6558 -0.6102  0.3578
17611TIP3   OH274247   1.336   3.677   0.170 -0.0922  0.2151  0.2152
17611TIP3    H174248   1.403   3.744   0.153  0.9010 -0.5901  0.8466
17611TIP3    H274249   1.380   3.613   0.226  0.1136 -2.7014 -2.9614
17612TIP3   OH274250   3.377   5.662  14.221 -0.4696 -0.1919  0.2411
17612TIP3    H174251   3.284   5.654  14.244 -0.4123 -2.6326 -0.1694
17612TIP3    H274252   3.421   5.595  14.274  0.5387 -1.4812 -2.0905
17613TIP3   OH274253   5.958   5.212   3.155 -0.4755 -0.0564  0.3278
17613TIP3    H174254   5.885   5.225   3.215 -0.0941 -0.0908  0.8022
17613TIP3    H274255   5.941   5.274   3.083 -1.6193 -0.9339 -0.1854
17614TIP3   OH274256   1.244   2.076  12.758 -0.0016  0.6557 -0.0782
17614TIP3    H174257   1.257   2.047  12.848 -0.2211 -3.4647 -1.1698
17614TIP3    H274258   1.154   2.107  12.755  0.1235  1.1828  1.1663
17615TIP3   OH274259   2.115   3.565   6.571 -0.5884  0.2804 -0.2809
17615TIP3    H174260   2.042   3.519   6.529 -1.3562  1.9201 -0.8490
17615TIP3    H274261   2.081   3.653   6.586  0.6606  0.5347  1.2043
17616TIP3   OH274262   0.439   5.059  14.423 -0.0792 -0.2761  0.0054
17616TIP3    H174263   0.418   5.136  14.370 -1.1615 -1.2890 -1.0974
17616TIP3    H274264   0.434   5.091  14.514 -1.0656  0.8218 -0.4040
17617TIP3   OH274265   4.548   0.055   3.980 -0.0150 -0.4757 -0.1127
17617TIP3    H174266   4.537   0.120   4.049 -1.8458 -0.7196 -0.1276
17617TIP3    H274267   4.634   0.017   3.997  1.5099  2.4615 -0.5972
17618TIP3   OH274268   3.438   5.459   3.762 -0.2191 -0.2223 -0.4190
17618TIP3    H174269   3.344   5.475   3.771  0.0423  1.2233  0.0494
17618TIP3    H274270   3.479   5.537   3.800  1.2004 -1.4507  0.7054
17619TIP3   OH274271   1.543   6.276   6.651 -0.3432  0.3068  0.0277
17619TIP3    H174272   1.477   6.345   6.638 -0.6291  0.0997  0.3682
17619TIP3    H274273   1.511   6.202   6.600 -0.1228  0.3701 -0.2017
17620TIP3   OH274274   1.898   4.641   6.729  0.7303 -0.2751 -0.2204
17620TIP3    H174275   1.889   4.734   6.710 -0.3256  0.1612  2.0260
17620TIP3    H274276   1.814   4.603   6.703  1.0792 -0.5775 -0.9284
17621TIP3   OH274277   0.452   2.865   3.576  0.3597 -0.3895 -0.3333
17621TIP3    H174278   0.372   2.824   3.610  1.1614 -1.4451  0.3296
17621TIP3    H274279   0.459   2.947   3.626  1.4222 -1.8262  2.0476
17622TIP3   OH274280   3.731   5.349  13.098  0.3985 -0.0645  0.1890
17622TIP3    H174281   3.671   5.294  13.148  1.0410 -1.0130 -0.0462
17622TIP3    H274282   3.697   5.438  13.108 -0.7322 -0.5128  0.4871
17623TIP3   OH274283   5.116   1.906   1.213 -0.7954 -0.1895 -0.2796
17623TIP3    H174284   5.118   1.892   1.119 -0.5633  0.7693 -0.4212
17623TIP3    H274285   5.024   1.890   1.237 -0.9472 -0.0187 -0.7346
17624TIP3   OH274286   2.908   3.840  15.108 -0.2099  0.2221 -0.1626
17624TIP3    H174287   2.861   3.798  15.180 -1.6713 -0.8920 -1.6780
17624TIP3    H274288   3.000   3.820  15.124 -0.2224  1.8839  2.5389
17625TIP3   OH274289   0.338   4.621   3.404  0.4169  0.4049  0.3226
17625TIP3    H174290   0.287   4.697   3.375  0.6301  0.6945  0.6896
17625TIP3    H274291   0.309   4.550   3.348 -1.2349  0.2766  1.2451
17626TIP3   OH274292   4.100   0.227   2.282 -0.1501  0.4027  0.1693
17626TIP3    H174293   4.078   0.320   2.276 -1.3445  0.1176 -0.1864
17626TIP3    H274294   4.046   0.185   2.215  1.6722 -0.3495 -0.9047
17627TIP3   OH274295   2.420   3.077   0.203 -0.3487  0.0869  0.3519
17627TIP3    H174296   2.390   3.041   0.287 -0.1228 -0.2980  0.2686
17627TIP3    H274297   2.516   3.074   0.208 -0.3385 -0.2774 -0.0682
17628TIP3   OH274298   1.740   1.304  15.033 -0.4481 -0.4630 -0.4375
17628TIP3    H174299   1.776   1.384  14.995  1.2530 -1.5777 -1.2806
17628TIP3    H274300   1.811   1.267  15.084 -1.6943 -0.7077  1.2108
17629TIP3   OH274301   0.407   2.045   5.324 -1.0116 -0.4427  1.0011
17629TIP3    H174302   0.491   2.076   5.356 -0.6816 -0.3518  0.0617
17629TIP3    H274303   0.356   2.125   5.309 -0.3533 -0.3182 -0.8858
17630TIP3   OH274304   5.050   6.736  17.051  0.1058  0.2152  0.4934
17630TIP3    H174305   5.030   6.829  17.066 -0.2494  0.1249  0.6054
17630TIP3    H274306   5.023   6.693  17.133  0.4906  0.0467  0.5319
17631TIP3   OH274307   4.911   0.201   0.052  0.1371  0.5352  0.2064
17631TIP3    H174308   4.873   0.190   0.140 -0.1843 -1.4818 -0.1469
17631TIP3    H274309   4.994   0.246   0.068 -0.9718  2.3129  1.2895
17632TIP3   OH274310   5.237   5.557   2.279  0.1597  0.3986 -0.4089
17632TIP3    H174311   5.243   5.652   2.293  1.6100  0.0760  1.6167
17632TIP3    H274312   5.251   5.519   2.366 -1.8524 -1.6736 -0.8935
17633TIP3   OH274313   0.545   3.318  16.597  0.3355  0.1773  0.5364
17633TIP3    H174314   0.615   3.253  16.596 -1.1232 -1.4982 -1.3200
17633TIP3    H274315   0.473   3.275  16.644 -0.8516  0.1149 -1.2197
17634TIP3   OH274316   1.704   6.751   4.370 -0.0624 -0.3745 -0.3010
17634TIP3    H174317   1.618   6.748   4.413  0.0795  1.3538  0.1736
17634TIP3    H274318   1.728   6.659   4.358 -1.6624 -0.8901  0.1833
17635TIP3   OH274319   0.965   1.427   2.086 -0.0230 -0.0581  0.0913
17635TIP3    H174320   0.993   1.337   2.073 -0.5415 -0.1634 -0.3360
17635TIP3    H274321   0.946   1.459   1.998 -1.0074  0.0797  0.3438
17636TIP3   OH274322   4.701   0.871   3.246 -0.2782  0.4155  0.1229
17636TIP3    H174323   4.758   0.797   3.230 -0.7217 -0.2206  1.2968
17636TIP3    H274324   4.721   0.933   3.177 -1.8649 -1.9202 -2.6622
17637TIP3   OH274325   6.234   1.691   5.721  0.1203 -0.0472 -0.1459
17637TIP3    H174326   6.196   1.774   5.749 -0.8677 -0.0574 -1.4026
17637TIP3    H274327   6.248   1.643   5.803  0.9113  1.4176  0.6195
17638TIP3   OH274328   0.510   3.576  17.109  0.3172  0.1688 -0.4752
17638TIP3    H174329   0.593   3.587  17.062  0.3261  1.3203 -0.2050
17638TIP3    H274330   0.536   3.539  17.193  0.5920  0.7623 -0.2909
17639TIP3   OH274331   2.685   2.800  12.346 -0.5480  0.0408 -0.5539
17639TIP3    H174332   2.646   2.795  12.259 -0.5076  0.1079 -0.5764
17639TIP3    H274333   2.731   2.717  12.357 -0.0950  0.2487 -0.8201
17640TIP3   OH274334   2.556   0.194   5.068 -0.0864 -0.2298 -0.1510
17640TIP3    H174335   2.524   0.176   5.157 -0.2918 -2.2325 -0.5652
17640TIP3    H274336   2.584   0.108   5.035 -2.3348 -0.0442 -2.9155
17641TIP3   OH274337   3.623   6.087  11.342  0.2672 -0.1823 -0.0317
17641TIP3    H174338   3.562   6.148  11.299 -1.7170 -3.2582 -1.9890
17641TIP3    H274339   3.646   6.024  11.274  2.7570 -1.2712  1.6747
17642TIP3   OH274340   3.607   6.719  11.294 -0.3583 -0.3817 -0.6643
17642TIP3    H174341   3.582   6.628  11.309 -3.7969  0.0085 -2.8472
17642TIP3    H274342   3.556   6.768  11.359 -0.5492  0.1230 -1.1916
17643TIP3   OH274343   5.478   3.009   0.906  0.4123  0.0723 -0.1884
17643TIP3    H174344   5.481   3.079   0.841 -1.8112 -0.2765 -0.7510
17643TIP3    H274345   5.409   3.036   0.967 -0.2281 -1.4325 -0.2052
17644TIP3   OH274346   1.896   0.225  12.358 -0.3996 -0.7686 -0.4470
17644TIP3    H174347   1.944   0.293  12.311 -0.8985 -0.6292 -0.7654
17644TIP3    H274348   1.847   0.179  12.290 -1.1243 -0.5713 -0.0651
17645TIP3   OH274349   0.020   2.154   5.189 -0.4370  0.0620 -0.8182
17645TIP3    H174350   0.050   2.106   5.112 -0.3916  0.1782 -0.8734
17645TIP3    H274351   0.041   2.245   5.170  0.1220  0.0206 -0.4066
17646TIP3   OH274352   5.256   1.880  11.980 -0.1909  0.5008 -0.1758
17646TIP3    H174353   5.345   1.898  11.948 -0.6920  3.4113 -0.2549
17646TIP3    H274354   5.215   1.832  11.908  1.3100 -0.9820 -0.0999
17647TIP3   OH274355   3.768   3.540  16.877 -0.2029  0.0388 -0.2918
17647TIP3    H174356   3.805   3.519  16.963  0.0585 -0.9946 -0.6397
17647TIP3    H274357   3.826   3.607  16.841  1.1064 -1.2252 -0.6303
17648TIP3   OH274358   6.260   1.310  12.457 -0.3532 -0.0537  0.0936
17648TIP3    H174359   6.195   1.380  12.454 -1.6449 -1.1471  0.9928
17648TIP3    H274360   6.245   1.261  12.376 -1.4564 -0.9526  0.8125
17649TIP3   OH274361   5.744   3.320   4.874 -0.0328  0.4841  0.1741
17649TIP3    H174362   5.800   3.363   4.809  0.1155  0.0876  0.0411
17649TIP3    H274363   5.805   3.267   4.926 -0.5925 -2.1631 -1.6934
17650TIP3   OH274364   5.474   0.751  14.043  0.1946  0.2549  0.2884
17650TIP3    H174365   5.424   0.818  13.997  1.6636  2.3173  1.5268
17650TIP3    H274366   5.538   0.720  13.980  0.6520  1.3304  0.2079
17651TIP3   OH274367   4.479   1.994   0.273  0.3277 -0.2548  0.2688
17651TIP3    H174368   4.534   2.010   0.350 -0.4118  1.5972  0.4888
17651TIP3    H274369   4.504   2.063   0.212 -0.2707 -0.6843 -0.4745
17652TIP3   OH274370   3.737   0.408   3.010 -0.6106  0.0745 -0.0598
17652TIP3    H174371   3.762   0.492   3.049  0.2298  0.4988 -1.4358
17652TIP3    H274372   3.644   0.418   2.990 -0.0265  1.6734 -2.4353
17653TIP3   OH274373   5.844   6.595   1.307  0.5207  0.1778 -0.3411
17653TIP3    H174374   5.750   6.612   1.305  0.4984 -0.0172 -1.4335
17653TIP3    H274375   5.875   6.640   1.385 -0.5039  0.1054  0.1220
17654TIP3   OH274376   3.662   2.238  13.741  0.2589 -0.6030  0.2687
17654TIP3    H174377   3.754   2.217  13.757 -0.0147 -2.3304 -0.2411
17654TIP3    H274378   3.614   2.193  13.810 -0.3431 -1.6572 -0.7992
17655TIP3   OH274379   2.287   3.634   5.409  0.2039  0.7422  0.1316
17655TIP3    H174380   2.362   3.579   5.384  0.5501  0.3355  1.9096
17655TIP3    H274381   2.327   3.713   5.447 -0.2967  1.4220 -0.7102
17656TIP3   OH274382   3.030   6.591   5.148 -0.7896 -0.3194  0.2936
17656TIP3    H174383   3.120   6.592   5.182 -0.3122 -2.4825 -0.7285
17656TIP3    H274384   3.011   6.498   5.134 -2.3607  0.2365 -1.6723
17657TIP3   OH274385   5.528   3.119  14.528  0.0090  0.1320  0.0752
17657TIP3    H174386   5.620   3.134  14.550 -0.0702  1.2918 -0.3596
17657TIP3    H274387   5.531   3.073  14.444  0.2002 -0.6182  0.4803
17658TIP3   OH274388   3.410   2.375   2.039  0.4739  0.0044  0.0463
17658TIP3    H174389   3.475   2.430   1.996 -1.1298  2.3945  0.4623
17658TIP3    H274390   3.331   2.430   2.043 -1.1253 -2.2044  0.8963
17659TIP3   OH274391   1.793   4.826  16.345  0.8502 -0.2166  0.1835
17659TIP3    H174392   1.802   4.731  16.352 -0.4179 -0.4943 -1.3500
17659TIP3    H274393   1.839   4.848  16.264  2.5546  0.7557  1.3430
17660TIP3   OH274394   6.503   1.190  13.574 -0.2895 -0.3865  0.3950
17660TIP3    H174395   6.485   1.269  13.625 -2.4740 -2.0829  2.4310
17660TIP3    H274396   6.552   1.134  13.634  0.7730 -0.8467 -0.8538
17661TIP3   OH274397   4.178   6.619  14.405  0.0165  0.2795 -0.5292
17661TIP3    H174398   4.147   6.659  14.486  0.3759 -0.0347 -0.2338
17661TIP3    H274399   4.182   6.691  14.343  0.4482  0.6611 -0.0611
17662TIP3   OH274400   2.711   6.517  15.110  0.4368 -0.1839 -0.3670
17662TIP3    H174401   2.734   6.490  15.199  0.6582  0.7230 -0.1304
17662TIP3    H274402   2.656   6.447  15.077  1.1212 -0.9801  0.1428
17663TIP3   OH274403   1.317   1.188   2.791 -0.0463 -0.0228 -0.2875
17663TIP3    H174404   1.356   1.178   2.704  0.7894 -0.5404  0.1289
17663TIP3    H274405   1.228   1.219   2.774  0.2966  0.4598 -1.2976
17664TIP3   OH274406   5.056   5.407  13.474 -0.0807 -0.1349 -0.8582
17664TIP3    H174407   5.095   5.350  13.540  0.9872  1.7403  0.2164
17664TIP3    H274408   4.985   5.355  13.436  1.7635 -2.7218 -1.0441
17665TIP3   OH274409   3.695   5.592  14.451 -0.0320 -0.0951 -0.7988
17665TIP3    H174410   3.733   5.583  14.364  0.1447  2.2892 -1.0193
17665TIP3    H274411   3.770   5.594  14.510 -0.1391 -1.3633 -0.5805
17666TIP3   OH274412   4.179   4.304   4.651 -0.6800 -0.4827  0.3830
17666TIP3    H174413   4.185   4.256   4.569 -0.5880  0.2276 -0.0327
17666TIP3    H274414   4.103   4.267   4.696  0.2581 -2.0394  0.7531
17667TIP3   OH274415   0.307   2.327   4.958  0.7006 -1.0470  0.2778
17667TIP3    H174416   0.358   2.246   4.946  0.3719 -1.0226 -1.5804
17667TIP3    H274417   0.235   2.319   4.895  0.7380  0.7562 -0.0300
17668TIP3   OH274418   2.163   4.870  12.047 -0.2566  0.3382  0.4978
17668TIP3    H174419   2.120   4.956  12.044 -1.5571 -0.2984  0.4307
17668TIP3    H274420   2.223   4.877  12.122  0.8068  1.7955 -0.4109
17669TIP3   OH274421   3.264   6.362  12.606  0.0809  0.1907  0.3403
17669TIP3    H174422   3.224   6.421  12.669 -0.5567 -0.6126  0.7148
17669TIP3    H274423   3.257   6.276  12.646  1.7369 -0.0479  0.1641
17670TIP3   OH274424   1.574   3.916   0.692  0.2189  1.1586  0.5150
17670TIP3    H174425   1.624   3.834   0.697  0.2459  1.2473  4.1462
17670TIP3    H274426   1.625   3.979   0.743 -0.6785  3.0002 -0.7422
17671TIP3   OH274427   5.501   4.463  15.166  0.0647  0.0032  0.3148
17671TIP3    H174428   5.406   4.472  15.171 -0.2926 -0.3583 -3.2318
17671TIP3    H274429   5.517   4.370  15.183 -0.2199  0.0378  0.7753
17672TIP3   OH274430   4.174   2.530   5.864  0.3201  0.2076  0.4387
17672TIP3    H174431   4.217   2.579   5.794 -0.7129 -0.2054 -0.5055
17672TIP3    H274432   4.184   2.438   5.840 -0.5770  0.0859  0.5023
17673TIP3   OH274433   6.323   2.255  16.861 -0.2666  0.9081  0.2202
17673TIP3    H174434   6.358   2.282  16.946  0.2928  0.7092  0.0512
17673TIP3    H274435   6.233   2.287  16.862  0.1739  2.2019  0.3026
17674TIP3   OH274436   2.206   6.380   2.017  0.1878  0.0589 -0.1796
17674TIP3    H174437   2.150   6.441   1.971 -3.4986  0.4111  4.0832
17674TIP3    H274438   2.217   6.418   2.104  0.6820 -3.6486  1.5803
17675TIP3   OH274439   6.668   3.815  15.223  0.7904  0.2846  0.1546
17675TIP3    H174440   6.643   3.824  15.315 -1.6752 -3.1655 -0.0062
17675TIP3    H274441   6.588   3.833  15.174  1.6629  0.4717 -1.2543
17676TIP3   OH274442   4.008   2.130   3.152  0.5156 -0.1801 -0.0109
17676TIP3    H174443   3.953   2.113   3.076  0.6943 -0.0582 -0.1692
17676TIP3    H274444   3.990   2.221   3.175 -0.2220 -0.4822  0.6563
17677TIP3   OH274445   5.577   4.459   0.779  0.6429  0.0344  0.0671
17677TIP3    H174446   5.628   4.428   0.705  0.5018  1.4007 -0.6203
17677TIP3    H274447   5.506   4.395   0.787  0.2098  0.2911 -1.4777
17678TIP3   OH274448   4.618   0.823  13.379 -0.1158  0.2606  0.5587
17678TIP3    H174449   4.531   0.862  13.387 -0.8564 -1.2039  0.0372
17678TIP3    H274450   4.645   0.843  13.289  0.8096  2.0750  1.1967
17679TIP3   OH274451   4.205   6.428   1.617 -0.2327 -0.0552  0.0132
17679TIP3    H174452   4.124   6.472   1.641 -0.1682  0.6724 -1.0086
17679TIP3    H274453   4.191   6.337   1.642 -0.7467  0.3558  1.2814
17680TIP3   OH274454   2.059   4.933   0.567 -0.0864 -0.4348  0.4056
17680TIP3    H174455   2.085   4.846   0.597 -0.5505 -0.2325  1.4455
17680TIP3    H274456   2.056   4.986   0.647 -1.3669  0.1369  0.0053
17681TIP3   OH274457   3.995   3.172  17.090  0.0075 -0.1712 -1.1242
17681TIP3    H174458   4.045   3.090  17.087 -0.1892 -0.2997 -0.8956
17681TIP3    H274459   3.971   3.182  17.182 -3.2284 -1.8245 -1.6611
17682TIP3   OH274460   6.713   0.946   3.152  0.2190  0.5199 -0.6316
17682TIP3    H174461   6.726   0.948   3.057  4.1741  1.6970 -0.2407
17682TIP3    H274462   6.787   0.896   3.185 -0.8524  0.4783  1.8805
17683TIP3   OH274463   1.139   6.535  16.043  0.0029 -0.5398  0.3948
17683TIP3    H174464   1.046   6.549  16.026  0.3874  0.3270 -1.2128
17683TIP3    H274465   1.145   6.526  16.138 -1.5994  0.2567  0.6060
17684TIP3   OH274466   4.694   4.071   4.387  0.1458  0.0423 -0.6504
17684TIP3    H174467   4.718   3.997   4.332  3.3695  0.9142 -0.6337
17684TIP3    H274468   4.745   4.144   4.353 -0.4750  1.4802  1.2934
17685TIP3   OH274469   3.980   1.287  11.401 -0.1344 -0.4039  0.2373
17685TIP3    H174470   4.037   1.273  11.476  0.0918 -1.3340 -0.0955
17685TIP3    H274471   3.958   1.199  11.371 -0.5059 -0.0446 -0.5706
17686TIP3   OH274472   5.408   5.042   1.692  0.0704  0.2276 -0.2581
17686TIP3    H174473   5.345   5.059   1.621  0.0191 -0.7597 -0.4560
17686TIP3    H274474   5.447   4.958   1.669  2.1487  1.2386 -0.6438
17687TIP3   OH274475   5.831   6.639  16.017 -0.1411  0.3329  0.5287
17687TIP3    H174476   5.811   6.682  16.101  1.0632 -1.0646  1.5783
17687TIP3    H274477   5.837   6.546  16.038  1.5910  0.0813 -0.8255
17688TIP3   OH274478   1.198   2.948   3.124 -0.2000 -0.2300 -0.1013
17688TIP3    H174479   1.284   2.989   3.131  0.6379 -1.9674  0.3048
17688TIP3    H274480   1.174   2.958   3.032 -0.2239  1.4740  0.0547
17689TIP3   OH274481   5.791   5.607   5.945  0.1620 -0.2889  0.3098
17689TIP3    H174482   5.828   5.659   6.017  1.0319  0.4134 -0.6197
17689TIP3    H274483   5.703   5.643   5.933  0.5775  0.6476  0.0090
17690TIP3   OH274484   1.421   3.680  13.733  0.0178  0.3190  0.2003
17690TIP3    H174485   1.479   3.699  13.808 -0.6218  0.8494  0.5680
17690TIP3    H274486   1.358   3.617  13.767  0.9206 -0.9823 -0.4616
17691TIP3   OH274487   0.604   0.261   6.289 -0.6749 -0.2629 -0.4384
17691TIP3    H174488   0.585   0.182   6.339  0.0878 -0.4731 -0.4670
17691TIP3    H274489   0.691   0.246   6.253 -0.4654  0.6382 -0.3353
17692TIP3   OH274490   0.126   2.732   2.306 -0.1710 -0.5792 -0.1749
17692TIP3    H174491   0.072   2.791   2.254  0.1376  0.6031  0.8043
17692TIP3    H274492   0.154   2.784   2.381 -1.9404 -2.6717  2.0784
17693TIP3   OH274493   2.662   3.811   4.690  0.6565 -0.6019  0.3570
17693TIP3    H174494   2.614   3.850   4.763  1.1442  1.4122 -0.3315
17693TIP3    H274495   2.622   3.849   4.612  0.7610 -1.9874 -0.3953
17694TIP3   OH274496   1.646   3.178  15.732 -0.2086  0.1785  0.2475
17694TIP3    H174497   1.640   3.272  15.746 -0.8084 -0.2411  3.8524
17694TIP3    H274498   1.560   3.145  15.757  0.7723 -1.4909  1.6875
17695TIP3   OH274499   4.605   5.227   3.620  0.3383  0.4844  0.7002
17695TIP3    H174500   4.563   5.170   3.684 -0.7322  1.2244  0.6983
17695TIP3    H274501   4.540   5.234   3.549  1.4880 -0.3069 -0.4702
17696TIP3   OH274502   0.722   1.144   5.398  0.1177 -0.4607  0.2596
17696TIP3    H174503   0.754   1.123   5.486  0.9102  1.4379  0.4754
17696TIP3    H274504   0.661   1.216   5.412  0.8076  0.3625 -0.7936
17697TIP3   OH274505   2.321   1.685   4.946  0.2872  0.2936  1.2579
17697TIP3    H174506   2.361   1.771   4.941  0.4441  0.1551 -0.6697
17697TIP3    H274507   2.392   1.627   4.976  0.5185  0.6388  1.3759
17698TIP3   OH274508   6.203   2.091  10.885  0.0026 -0.2662 -0.3843
17698TIP3    H174509   6.220   2.147  10.810 -1.4895  0.2507 -0.3619
17698TIP3    H274510   6.118   2.050  10.867 -0.5788  0.1585  1.1576
17699TIP3   OH274511   0.704   3.173  11.686 -0.0523 -0.1191 -0.5079
17699TIP3    H174512   0.761   3.128  11.623 -1.6378 -1.4577 -1.0489
17699TIP3    H274513   0.732   3.265  11.682  2.7974 -0.8526  0.0913
17700TIP3   OH274514   4.583   2.634  14.650 -0.4315  0.3576 -0.1719
17700TIP3    H174515   4.570   2.543  14.624  0.2062  0.8524 -2.4540
17700TIP3    H274516   4.541   2.685  14.580 -0.1701  1.8295  0.6927
17701TIP3   OH274517   0.577   2.517   4.665 -0.5809  0.2083 -0.1592
17701TIP3    H174518   0.609   2.523   4.575  1.5555 -1.9853  0.3443
17701TIP3    H274519   0.536   2.430   4.670 -0.5347  0.2399  1.0162
17702TIP3   OH274520   0.727   5.231  14.365  0.5792 -0.4601 -0.6286
17702TIP3    H174521   0.690   5.305  14.413  1.2276  0.5693 -1.6623
17702TIP3    H274522   0.706   5.155  14.418 -4.1268 -0.1764 -1.6638
17703TIP3   OH274523   2.649   5.391  16.670 -0.0904  0.6835  0.2213
17703TIP3    H174524   2.744   5.388  16.676 -0.0366  0.1590 -0.7050
17703TIP3    H274525   2.619   5.321  16.728  0.1648 -0.1992 -0.6825
17704TIP3   OH274526   3.880   1.845   0.845  0.4927  0.0740 -0.6931
17704TIP3    H174527   3.818   1.891   0.789 -1.2082 -1.1890  0.0732
17704TIP3    H274528   3.884   1.757   0.809  1.0891 -0.1320 -0.1378
17705TIP3   OH274529   4.808   3.527   3.603  0.1813 -0.2470  0.1974
17705TIP3    H174530   4.744   3.491   3.541 -0.0953  2.2678 -1.1186
17705TIP3    H274531   4.889   3.535   3.553  0.0903  1.3555  0.2507
17706TIP3   OH274532   3.056   2.752   5.629 -0.0735 -0.6279 -0.2020
17706TIP3    H174533   2.968   2.718   5.611 -0.4800 -0.5749  1.5157
17706TIP3    H274534   3.058   2.838   5.587 -0.8998 -0.5705 -0.1460
17707TIP3   OH274535   0.628   4.129   4.440  0.0664  0.2197  0.0660
17707TIP3    H174536   0.563   4.191   4.408  0.7741  1.2349  0.5535
17707TIP3    H274537   0.712   4.173   4.426  0.8436 -1.7825 -2.2349
17708TIP3   OH274538   3.305   6.087  11.997 -0.2616  0.5396  0.2530
17708TIP3    H174539   3.311   6.182  12.001 -1.0875  0.5868  0.6829
17708TIP3    H274540   3.211   6.069  11.998 -0.1089 -0.3271  1.5322
17709TIP3   OH274541   3.287   6.453   3.712 -0.6404 -0.0294  0.2771
17709TIP3    H174542   3.347   6.518   3.748  1.8550 -1.2579 -1.3506
17709TIP3    H274543   3.233   6.501   3.649  0.2513  0.7141  0.0581
17710TIP3   OH274544   0.704   4.285  17.340  0.0994 -0.5001  0.6496
17710TIP3    H174545   0.690   4.359  17.399  1.1760  1.0810 -0.9722
17710TIP3    H274546   0.663   4.211  17.384  0.5147  0.6718  3.1740
17711TIP3   OH274547   6.171   1.266  14.439  0.1731 -0.3297  0.0940
17711TIP3    H174548   6.159   1.343  14.383  0.5401  0.0632  0.5434
17711TIP3    H274549   6.090   1.262  14.490 -0.0817 -0.5762 -0.3243
17712TIP3   OH274550   1.214   4.121  13.236  0.1909  0.1618 -0.3473
17712TIP3    H174551   1.237   4.066  13.161 -0.7667  0.2111 -0.7019
17712TIP3    H274552   1.192   4.059  13.305  1.1349  0.1158 -0.0785
17713TIP3   OH274553   4.713   6.054  11.422 -0.0860 -0.2613  0.2037
17713TIP3    H174554   4.693   5.964  11.397 -0.3899 -0.1837  0.1588
17713TIP3    H274555   4.699   6.104  11.341 -0.6696 -0.0686  0.4169
17714TIP3   OH274556   1.707   2.528  13.535  0.7104  0.3773 -0.1729
17714TIP3    H174557   1.788   2.479  13.522  0.8316  0.0741  1.5184
17714TIP3    H274558   1.735   2.611  13.572  0.2132 -0.0615  1.2307
17715TIP3   OH274559   5.307   4.777   0.271 -0.0263  0.2717  0.1444
17715TIP3    H174560   5.272   4.831   0.342  0.6468  1.9065 -0.7112
17715TIP3    H274561   5.238   4.777   0.205  0.0543  0.2779  0.0593
17716TIP3   OH274562   1.097   3.413  15.807 -0.3653 -0.2044 -0.1845
17716TIP3    H174563   1.144   3.487  15.768  0.9477 -1.4011 -0.9729
17716TIP3    H274564   1.039   3.453  15.872  2.4339  1.3555  1.5688
17717TIP3   OH274565   2.291   0.255  11.166 -0.0051 -0.3294 -0.1107
17717TIP3    H174566   2.271   0.251  11.260  0.7510  0.8197  0.1143
17717TIP3    H274567   2.323   0.344  11.152 -1.6488  0.0602 -1.7820
17718TIP3   OH274568   5.885   2.680  13.983 -0.9123  0.0884 -0.5432
17718TIP3    H174569   5.950   2.644  13.923 -1.4614  0.5454 -1.4410
17718TIP3    H274570   5.844   2.603  14.024 -0.0434 -0.2031 -0.2080
17719TIP3   OH274571   0.352   2.811   5.559 -0.2448 -0.2768  0.2437
17719TIP3    H174572   0.353   2.849   5.471 -1.3879  0.0333  0.3466
17719TIP3    H274573   0.387   2.880   5.615  2.9490 -1.3559 -0.2415
17720TIP3   OH274574   3.764   1.381  11.245  0.0139  0.4375 -0.2656
17720TIP3    H174575   3.834   1.339  11.295 -1.5795  0.7102  2.4042
17720TIP3    H274576   3.697   1.314  11.236 -1.7800  1.6548  2.4442
17721TIP3   OH274577   2.108   3.909   4.814  0.5553 -0.6429  0.0157
17721TIP3    H174578   2.093   3.875   4.902  0.6666  2.1512  1.1982
17721TIP3    H274579   2.057   3.851   4.757  0.5025 -2.5381  1.8583
17722TIP3   OH274580   1.439   2.873  14.143 -0.2731 -0.1783 -0.2852
17722TIP3    H174581   1.419   2.967  14.139 -1.9769 -0.4108  1.3036
17722TIP3    H274582   1.455   2.848  14.052 -0.6309  1.4757 -0.8464
17723TIP3   OH274583   4.858   1.129   1.586 -0.9479  0.4043  0.2658
17723TIP3    H174584   4.880   1.071   1.659 -3.3131  0.1269  0.8640
17723TIP3    H274585   4.914   1.099   1.514  0.5189 -0.1635  1.5918
17724TIP3   OH274586   3.879   0.514  13.607 -0.1984 -0.1700 -0.2936
17724TIP3    H174587   3.918   0.518  13.520  1.8973  1.2899  0.6256
17724TIP3    H274588   3.901   0.426  13.639  0.5161 -0.1081 -0.5938
17725TIP3   OH274589   5.477   0.136  11.744 -0.7367 -0.4702 -0.9638
17725TIP3    H174590   5.566   0.172  11.741 -1.1887  0.6309 -1.7304
17725TIP3    H274591   5.425   0.194  11.687 -1.7820 -1.5653 -1.1653
17726TIP3   OH274592   2.218   0.208   0.721 -0.2163  0.3197  0.5100
17726TIP3    H174593   2.302   0.177   0.755 -0.8248 -0.3429  1.4683
17726TIP3    H274594   2.241   0.258   0.642  1.0638  0.1192  0.7272
17727TIP3   OH274595   3.535   2.471  16.442  0.2754 -0.1822  0.4186
17727TIP3    H174596   3.455   2.454  16.393  1.2975 -0.3918 -1.2685
17727TIP3    H274597   3.522   2.429  16.527 -1.4621 -0.0220  0.2602
17728TIP3   OH274598   2.527   6.046   6.277  0.5154 -0.5271 -0.2436
17728TIP3    H174599   2.521   5.951   6.264  0.7216 -0.5684 -0.0357
17728TIP3    H274600   2.439   6.072   6.305  0.4083 -0.6290 -0.4835
17729TIP3   OH274601   2.677   0.664   1.038  0.1647  0.4723 -1.0120
17729TIP3    H174602   2.763   0.677   0.996 -0.1089  1.8935 -1.2026
17729TIP3    H274603   2.698   0.626   1.123  1.0123  0.8843 -1.0156
17730TIP3   OH274604   3.295   4.376  13.734  0.0186  0.2175 -0.1335
17730TIP3    H174605   3.336   4.452  13.693  0.3505 -0.1284 -0.4525
17730TIP3    H274606   3.203   4.401  13.743  0.0057  0.4326 -0.7839
17731TIP3   OH274607   2.392   0.758   0.395 -0.0494  0.4209  0.1837
17731TIP3    H174608   2.321   0.823   0.398 -1.1130 -0.7291  1.1737
17731TIP3    H274609   2.425   0.763   0.306 -1.0320  1.3416 -0.1617
17732TIP3   OH274610   6.414   4.383   0.107  0.0953  0.1541 -0.0796
17732TIP3    H174611   6.344   4.410   0.047  0.0837 -1.4096 -0.8209
17732TIP3    H274612   6.492   4.378   0.052  0.8741  2.0566  0.7747
17733TIP3   OH274613   1.491   6.382  13.406  0.1825 -0.3209 -0.0575
17733TIP3    H174614   1.488   6.360  13.499  0.6063 -1.7330 -0.3618
17733TIP3    H274615   1.528   6.471  13.404  2.3334 -1.1178  1.0213
17734TIP3   OH274616   2.081   1.698   5.395 -0.0751 -0.3284 -0.2527
17734TIP3    H174617   1.996   1.691   5.350 -1.0023  1.6092  1.0883
17734TIP3    H274618   2.099   1.792   5.399  0.7179 -0.5307  2.0390
17735TIP3   OH274619   0.916   2.946  14.675 -0.5693  0.3516 -0.0080
17735TIP3    H174620   0.917   2.856  14.709 -2.2193  0.8460  1.5025
17735TIP3    H274621   0.892   2.937  14.583 -1.7394 -0.7127  0.3809
17736TIP3   OH274622   0.147   1.222  14.057  0.7101  0.4471 -0.6379
17736TIP3    H174623   0.056   1.191  14.053  0.2180  1.0296  2.8437
17736TIP3    H274624   0.197   1.145  14.082  0.3468  1.0039  2.1859
17737TIP3   OH274625   2.346   2.425  13.838  0.4094 -0.4856  0.4591
17737TIP3    H174626   2.273   2.411  13.778  0.4686  1.1455 -0.0418
17737TIP3    H274627   2.423   2.428  13.782  0.2417  3.3840  0.1782
17738TIP3   OH274628   6.163   5.828  12.647 -0.5447 -0.1179  0.3661
17738TIP3    H174629   6.191   5.793  12.732  2.1838  0.6713 -0.1157
17738TIP3    H274630   6.169   5.923  12.656  0.8812 -0.0395 -1.0098
17739TIP3   OH274631   6.422   2.246  17.137  0.3255  0.0428  0.1694
17739TIP3    H174632   6.435   2.307  17.209 -0.1845 -2.1263  2.1975
17739TIP3    H274633   6.505   2.199  17.129  0.6141  0.7075 -1.1767
17740TIP3   OH274634   3.361   2.415  12.517 -0.2604  0.1666 -1.1119
17740TIP3    H174635   3.328   2.358  12.586  0.2785 -0.9143 -1.7325
17740TIP3    H274636   3.331   2.376  12.436 -0.6028  1.2476 -1.5338
17741TIP3   OH274637   4.200   0.986  16.600 -0.6352  0.7344  0.0676
17741TIP3    H174638   4.151   1.056  16.645  0.0700  0.2669  1.6414
17741TIP3    H274639   4.201   0.914  16.663  0.5868  0.1227 -0.6190
17742TIP3   OH274640   1.220   3.503  13.778  0.0672 -0.2904  0.2964
17742TIP3    H174641   1.192   3.447  13.705 -1.3316  0.7509 -0.0134
17742TIP3    H274642   1.210   3.449  13.856  1.2300 -1.2998 -0.2201
17743TIP3   OH274643   1.138   0.691   0.484  0.9874 -0.0802 -0.0224
17743TIP3    H174644   1.156   0.602   0.515  0.2055  0.6795  2.9531
17743TIP3    H274645   1.117   0.680   0.391 -0.0171 -3.1427  0.4372
17744TIP3   OH274646   4.961   3.443   2.453  0.4006  0.4059  0.6215
17744TIP3    H174647   4.885   3.387   2.436  1.7903 -1.8206  1.3115
17744TIP3    H274648   4.995   3.464   2.366 -0.0309  0.0190  0.3517
17745TIP3   OH274649   2.574   1.276  13.583  0.2888 -0.6822 -0.6641
17745TIP3    H174650   2.578   1.193  13.629  1.6389 -0.8068 -0.9637
17745TIP3    H274651   2.509   1.262  13.514 -1.5562 -0.5715  0.9487
17746TIP3   OH274652   0.828   5.037   4.870 -0.0540 -0.6636  0.4531
17746TIP3    H174653   0.809   5.121   4.826  0.4220 -0.8846 -0.1907
17746TIP3    H274654   0.751   4.983   4.851 -0.5746 -0.2195  1.2697
17747TIP3   OH274655   0.059   6.553  14.503 -0.2124  0.3276 -0.1840
17747TIP3    H174656   0.134   6.612  14.495  1.7123 -1.7821  1.0728
17747TIP3    H274657   0.061   6.501  14.423 -0.9515  0.8659 -0.5692
17748TIP3   OH274658   5.237   3.484   0.150 -0.0778 -0.3205  0.2189
17748TIP3    H174659   5.279   3.500   0.234 -0.1069 -0.7240  0.3075
17748TIP3    H274660   5.281   3.407   0.115 -0.4663 -0.5006  0.1252
17749TIP3   OH274661   3.533   2.377  16.747  0.2865 -0.3334 -0.6232
17749TIP3    H174662   3.584   2.356  16.825 -0.6771 -3.2103 -0.6499
17749TIP3    H274663   3.534   2.297  16.695 -1.0310  0.7622 -2.4909
17750TIP3   OH274664   2.873   5.318   4.302 -0.1830  0.1026  0.6785
17750TIP3    H174665   2.818   5.397   4.300  0.5019  0.5797  0.0924
17750TIP3    H274666   2.810   5.246   4.308 -0.8518  0.6577  0.5730
17751TIP3   OH274667   3.507   3.792  13.704  0.2248 -0.0959 -0.1122
17751TIP3    H174668   3.421   3.760  13.731  0.2859 -0.7579 -0.6765
17751TIP3    H274669   3.519   3.872  13.754 -0.1416 -0.7025  0.9819
17752TIP3   OH274670   2.595   3.138   5.866  0.2834  0.0897 -1.0426
17752TIP3    H174671   2.645   3.138   5.948  0.4734  1.4118 -1.1334
17752TIP3    H274672   2.504   3.126   5.893  0.5275 -1.3821 -0.8027
17753TIP3   OH274673   0.622   0.327   3.328  0.1270  0.0289  0.3858
17753TIP3    H174674   0.573   0.407   3.310 -0.9443 -0.3423  1.5042
17753TIP3    H274675   0.713   0.355   3.332 -0.2977  1.3652  1.5961
17754TIP3   OH274676   4.363   3.553  17.199 -0.4232 -0.2109  0.1192
17754TIP3    H174677   4.305   3.627  17.181  1.7114  1.3952 -0.5451
17754TIP3    H274678   4.303   3.481  17.222 -2.5573  1.8468  1.4216
17755TIP3   OH274679   2.662   2.350   5.506 -0.2414 -0.4867  0.1466
17755TIP3    H174680   2.612   2.269   5.515  0.3036 -0.8626 -0.2268
17755TIP3    H274681   2.595   2.419   5.509 -0.7305 -0.9548  0.1851
17756TIP3   OH274682   3.528   3.815  11.236 -0.0618  0.1080 -0.5177
17756TIP3    H174683   3.450   3.832  11.288  0.4830  0.8130  0.0865
17756TIP3    H274684   3.528   3.720  11.223 -0.0738 -0.1316  1.0197
17757TIP3   OH274685   1.973   0.755  11.940 -0.0224 -0.0645 -0.3274
17757TIP3    H174686   2.022   0.681  11.975  0.5035  0.6238  0.4358
17757TIP3    H274687   1.883   0.739  11.968  0.4853  0.7979  2.0259
17758TIP3   OH274688   6.295   3.519  17.157  0.7544  0.1517 -0.1628
17758TIP3    H174689   6.311   3.431  17.192  0.2690 -0.3386 -1.1032
17758TIP3    H274690   6.382   3.559  17.151  1.3031 -1.1463 -1.8809
17759TIP3   OH274691   4.071   0.467  15.536  0.4699  0.2135 -0.1222
17759TIP3    H174692   4.048   0.542  15.482 -0.1456  0.8885  1.0471
17759TIP3    H274693   4.108   0.505  15.616 -0.3991 -0.6959  0.7423
17760TIP3   OH274694   0.807   6.570  12.176 -0.3337  0.1104  0.1965
17760TIP3    H174695   0.748   6.624  12.122 -0.1025  0.3148  0.1479
17760TIP3    H274696   0.846   6.508  12.113  1.4259  1.5991 -0.2667
17761TIP3   OH274697   2.585   1.411  12.341  0.1477  0.3128  0.4994
17761TIP3    H174698   2.642   1.441  12.270 -1.1053 -0.7683 -1.0147
17761TIP3    H274699   2.496   1.430  12.311 -0.5107 -1.7821  0.9316
17762TIP3   OH274700   3.389   1.902   2.394  0.0785 -0.7129 -0.1133
17762TIP3    H174701   3.326   1.833   2.414 -2.2318  0.8533 -1.5137
17762TIP3    H274702   3.361   1.977   2.447 -1.2179  0.9376 -2.8650
17763TIP3   OH274703   6.202   5.873  16.517  0.2695  0.3021 -0.3224
17763TIP3    H174704   6.291   5.903  16.536  0.1458  0.9035 -0.6502
17763TIP3    H274705   6.213   5.801  16.455  0.5844 -0.5136  0.6500
17764TIP3   OH274706   1.804   3.477   2.132  0.1484  0.2674 -0.2062
17764TIP3    H174707   1.854   3.454   2.210  0.8429  0.3056 -0.6313
17764TIP3    H274708   1.830   3.566   2.111  0.2916  0.1116 -0.7203
17765TIP3   OH274709   0.582   1.799  16.644  0.4001 -0.2516  0.5310
17765TIP3    H174710   0.571   1.717  16.595  0.9339 -0.5316  0.8704
17765TIP3    H274711   0.607   1.863  16.578 -0.9696 -0.1247  0.1050
17766TIP3   OH274712   2.399   0.957  15.087  0.4335 -0.3285 -0.2990
17766TIP3    H174713   2.405   0.861  15.087  0.4674 -0.3315  0.1668
17766TIP3    H274714   2.355   0.978  15.005 -0.5949 -0.8165  0.0974
17767TIP3   OH274715   2.112   4.413  13.196 -0.6101 -0.1590  0.3205
17767TIP3    H174716   2.092   4.454  13.112 -1.0218 -0.5712  0.2069
17767TIP3    H274717   2.066   4.329  13.192 -0.3954 -0.3037  0.8432
17768TIP3   OH274718   4.481   6.736   5.451  0.0512  0.5033 -0.5028
17768TIP3    H174719   4.393   6.718   5.482  0.6957 -0.0630  1.1076
17768TIP3    H274720   4.499   6.826   5.481  0.1726  0.4583 -0.4372
17769TIP3   OH274721   3.081   0.197  11.981  0.0164 -0.4837 -0.2560
17769TIP3    H174722   3.069   0.104  12.000  1.3965 -0.0955  3.2808
17769TIP3    H274723   3.002   0.238  12.016 -0.3812 -0.2351 -1.4029
17770TIP3   OH274724   4.017   0.187   4.991 -0.7731  0.5338  0.0205
17770TIP3    H174725   4.018   0.144   4.905 -0.2277  1.0286 -0.2404
17770TIP3    H274726   4.100   0.161   5.031 -0.7602  0.7704  0.1492
17771TIP3   OH274727   4.407   5.148  16.803 -0.0452 -0.1790 -0.3185
17771TIP3    H174728   4.347   5.215  16.770  1.6197  1.0168 -1.0450
17771TIP3    H274729   4.398   5.076  16.741 -0.5742  0.0649 -0.5353
17772TIP3   OH274730   3.917   2.775  16.229 -0.0035  0.3767 -0.5888
17772TIP3    H174731   3.904   2.834  16.303  0.9125  0.8813 -0.8059
17772TIP3    H274732   3.971   2.825  16.167  0.1221 -0.3990 -1.1330
17773TIP3   OH274733   4.466   1.541   4.320 -0.2549  0.1639  0.1143
17773TIP3    H174734   4.392   1.487   4.348 -0.2040  0.4188  0.7668
17773TIP3    H274735   4.442   1.571   4.233 -0.1433 -1.1641 -0.3942
17774TIP3   OH274736   4.966   2.671  17.296 -0.0553 -0.4298  0.3203
17774TIP3    H174737   4.875   2.639  17.299 -0.9345  1.9023  0.4854
17774TIP3    H274738   4.993   2.675  17.387  0.1089 -0.8234  0.2901
17775TIP3   OH274739   0.631   1.274  11.633  0.5570  0.1604  0.2522
17775TIP3    H174740   0.689   1.261  11.708 -1.4644  0.3444  1.9433
17775TIP3    H274741   0.628   1.189  11.589  0.6369 -0.3680  1.2422
17776TIP3   OH274742   6.609   1.336  15.395  0.3716 -0.0456  0.4201
17776TIP3    H174743   6.595   1.242  15.382 -3.1750  0.2464  1.0512
17776TIP3    H274744   6.626   1.370  15.307 -0.0644 -1.0575 -0.0710
17777TIP3   OH274745   5.133   3.463   4.396 -0.2184  0.3599 -0.2241
17777TIP3    H174746   5.120   3.454   4.302  2.1133  3.2330 -0.9989
17777TIP3    H274747   5.071   3.531   4.423 -0.1128  0.3481  0.0514
17778TIP3   OH274748   0.495   6.288  14.693 -0.2042 -0.2281  0.0862
17778TIP3    H174749   0.522   6.364  14.641 -0.6007 -0.0443  0.1368
17778TIP3    H274750   0.562   6.279  14.760 -0.5730  0.5989  0.5899
17779TIP3   OH274751   2.128   6.088  11.950 -0.7052 -0.1488 -0.2961
17779TIP3    H174752   2.061   6.079  11.882 -1.4718  1.9032  0.0960
17779TIP3    H274753   2.079   6.113  12.028  0.3135 -0.9793  0.6458
17780TIP3   OH274754   1.234   5.634   2.079  0.2801  0.3466  0.1048
17780TIP3    H174755   1.282   5.634   1.996  1.7208 -1.2479  0.8591
17780TIP3    H274756   1.287   5.688   2.137  0.8619 -0.8657  0.7514
17781TIP3   OH274757   1.053   5.152  14.972  0.1734  0.0137 -0.0596
17781TIP3    H174758   1.006   5.171  14.890  0.3786 -0.2168 -0.2322
17781TIP3    H274759   1.027   5.223  15.031 -0.3817 -0.1012 -0.1571
17782TIP3   OH274760   1.322   0.424   6.458 -0.1167  0.1241  0.1196
17782TIP3    H174761   1.397   0.481   6.474  0.6208 -1.0817  1.2186
17782TIP3    H274762   1.285   0.409   6.545 -1.4060  0.3797 -0.3640
17783TIP3   OH274763   6.162   4.867  12.640  0.4899 -0.4638  0.0805
17783TIP3    H174764   6.188   4.868  12.548 -1.6032  2.1368 -0.6004
17783TIP3    H274765   6.091   4.803  12.645  1.3372 -1.4062  0.1389
17784TIP3   OH274766   6.162   3.221  17.008 -0.6248  0.0507 -0.4022
17784TIP3    H174767   6.153   3.294  17.071 -1.9706  0.2194 -0.7592
17784TIP3    H274768   6.105   3.153  17.043 -0.5131 -0.2762 -0.8577
17785TIP3   OH274769   3.773   6.025  10.892 -0.1267 -0.5510 -0.1435
17785TIP3    H174770   3.864   6.016  10.863 -0.2343  0.4084 -0.8393
17785TIP3    H274771   3.727   6.057  10.814 -1.1995 -1.6891 -0.0006
17786TIP3   OH274772   2.435   2.315   0.495  0.1570 -0.2427 -0.1534
17786TIP3    H174773   2.445   2.409   0.513 -1.7122  0.0657 -0.6116
17786TIP3    H274774   2.418   2.310   0.401 -0.8322 -0.9429  0.0540
17787TIP3   OH274775   1.070   4.376  14.895 -0.0150 -0.2856 -0.0053
17787TIP3    H174776   0.982   4.390  14.859  0.8851  1.5368 -1.6577
17787TIP3    H274777   1.089   4.284  14.876 -0.9411 -0.2826 -1.0404
17788TIP3   OH274778   5.588   6.059   1.850  0.1134 -0.1239 -0.2070
17788TIP3    H174779   5.578   6.033   1.942  1.4312 -1.5400 -0.4104
17788TIP3    H274780   5.620   5.980   1.807  1.0294  0.9551 -1.5888
17789TIP3   OH274781   4.257   1.042  16.325  0.0698  0.2768 -0.1362
17789TIP3    H174782   4.238   1.031  16.418 -0.1723  1.8465  0.0204
17789TIP3    H274783   4.306   0.963  16.302  2.4858  1.0309  1.9556
17790TIP3   OH274784   0.355   1.701   5.056  0.2290  0.6582 -0.3045
17790TIP3    H174785   0.349   1.734   5.146 -0.7559  0.7779 -0.4024
17790TIP3    H274786   0.272   1.655   5.042  0.3470  0.6960 -1.1759
17791TIP3   OH274787   1.388   5.328   5.923  0.1676 -0.1904  0.3704
17791TIP3    H174788   1.321   5.375   5.974 -0.8787  0.1366 -1.2544
17791TIP3    H274789   1.470   5.351   5.967 -0.4902  1.7414  0.7173
17792TIP3   OH274790   2.685   4.252   0.796  0.2703 -0.0058  0.9475
17792TIP3    H174791   2.752   4.186   0.816  0.9981  0.6089  0.6102
17792TIP3    H274792   2.692   4.263   0.701  0.2616  0.6672  1.0247
17793TIP3   OH274793   1.701   0.101   3.861 -0.0952 -0.5647  0.2649
17793TIP3    H174794   1.633   0.085   3.796 -0.5201  1.6917  0.0985
17793TIP3    H274795   1.654   0.127   3.940  0.5310  1.9576 -0.1262
17794TIP3   OH274796   0.289   5.185   2.742 -0.1120  0.1511  0.0247
17794TIP3    H174797   0.352   5.257   2.739  0.0013  0.0227 -0.6836
17794TIP3    H274798   0.333   5.116   2.791  2.0481 -1.5867 -3.9807
17795TIP3   OH274799   5.613   4.298  15.660 -0.0153  0.1438 -0.2327
17795TIP3    H174800   5.532   4.267  15.699  1.8714 -0.9298  3.2721
17795TIP3    H274801   5.604   4.393  15.658 -1.6199  0.0032 -0.6076
17796TIP3   OH274802   0.822   6.190  11.286  0.0124 -0.2192 -0.1790
17796TIP3    H174803   0.839   6.124  11.353  1.1368  0.4895  0.2697
17796TIP3    H274804   0.742   6.162  11.243 -0.2084 -1.1877  0.8479
17797TIP3   OH274805   1.696   5.015   5.538  0.3281  0.6545 -0.7168
17797TIP3    H174806   1.738   4.935   5.569 -0.0707  1.3980  2.0216
17797TIP3    H274807   1.718   5.080   5.604 -2.5618  1.8214 -0.7597
17798TIP3   OH274808   3.068   4.316   5.122 -0.1387  0.0151 -0.2583
17798TIP3    H174809   3.161   4.307   5.142  0.0878  3.0817  0.7433
17798TIP3    H274810   3.028   4.340   5.206 -1.6629 -0.3013 -0.8607
17799TIP3   OH274811   3.903   3.599  11.601 -0.0208 -0.6706  0.5612
17799TIP3    H174812   3.938   3.677  11.644  0.3899 -0.5954  0.1041
17799TIP3    H274813   3.978   3.561  11.555 -0.4533 -0.7201 -0.1236
17800TIP3   OH274814   1.068   5.979  16.484  0.0689  0.0610  0.1595
17800TIP3    H174815   1.015   6.054  16.511 -2.0978 -0.6371 -1.7930
17800TIP3    H274816   1.141   6.017  16.435  0.2245  0.9677  1.0605
17801TIP3   OH274817   3.081   5.042  15.284  0.1010 -0.1948  0.4209
17801TIP3    H174818   3.003   5.017  15.235  1.3113  1.1760 -2.4564
17801TIP3    H274819   3.149   5.049  15.218  2.4420 -0.2633  2.6594
17802TIP3   OH274820   6.114   4.091  13.392  0.2777  0.1296  0.4092
17802TIP3    H174821   6.034   4.105  13.342 -0.4600  1.5761  1.9078
17802TIP3    H274822   6.094   4.015  13.448 -0.3151  0.8998  1.2628
17803TIP3   OH274823   2.650   3.498  16.956 -0.2602 -0.2285 -0.1533
17803TIP3    H174824   2.643   3.593  16.946  3.3439  0.2309  0.3835
17803TIP3    H274825   2.661   3.465  16.867  0.4852  0.1119 -0.1938
17804TIP3   OH274826   4.339   6.254   6.086  0.0711  0.0703  0.0902
17804TIP3    H174827   4.358   6.325   6.025  0.2082 -2.2495 -2.7736
17804TIP3    H274828   4.400   6.269   6.159  0.8683  2.2334 -0.9280
17805TIP3   OH274829   4.825   4.379  16.199  0.0949 -0.3127 -0.5519
17805TIP3    H174830   4.747   4.424  16.165  0.1708 -0.9551 -1.6414
17805TIP3    H274831   4.798   4.341  16.282 -0.2463  0.9224 -0.0800
17806TIP3   OH274832   5.909   3.024   0.669  0.1813  0.6660 -0.7287
17806TIP3    H174833   5.927   3.105   0.716  0.2312  0.3198 -0.1378
17806TIP3    H274834   5.849   2.975   0.727  0.3558  0.1743 -0.9549
17807TIP3   OH274835   2.473   2.279   4.528  0.0730  0.3571 -0.2099
17807TIP3    H174836   2.397   2.294   4.472  0.1311  0.9519 -0.1423
17807TIP3    H274837   2.464   2.344   4.598 -2.6589 -3.4037  3.3780
17808TIP3   OH274838   1.717   5.206  13.083 -0.5851 -0.5608  0.2648
17808TIP3    H174839   1.666   5.163  13.151 -1.3253 -0.0749  0.0305
17808TIP3    H274840   1.803   5.164  13.087 -0.6698 -0.6603  1.3717
17809TIP3   OH274841   1.298   4.258  16.792 -0.1902 -0.0562 -0.3090
17809TIP3    H174842   1.224   4.197  16.802  0.3647 -0.4704  1.7975
17809TIP3    H274843   1.294   4.313  16.870 -0.1405  2.0908 -1.7403
17810TIP3   OH274844   2.326   2.994  12.302 -0.0541 -0.3527  0.1317
17810TIP3    H174845   2.390   3.023  12.237 -0.0489  1.2990  0.8168
17810TIP3    H274846   2.277   3.074  12.324 -2.4765 -1.5853 -0.5025
17811TIP3   OH274847   6.740   4.095  10.780  0.4688  0.2329  0.4720
17811TIP3    H174848   6.706   4.065  10.696 -0.6538  0.0351  0.9793
17811TIP3    H274849   6.706   4.033  10.844 -0.7072  1.7074  1.3670
17812TIP3   OH274850   0.170   6.683  13.697 -0.3013 -0.7968 -0.1204
17812TIP3    H174851   0.097   6.709  13.752  0.3920  1.4123 -0.1549
17812TIP3    H274852   0.132   6.672  13.610 -0.9803 -2.0676  0.3007
17813TIP3   OH274853   1.843   1.496  17.172 -0.0744 -0.0288 -0.4669
17813TIP3    H174854   1.843   1.590  17.152 -1.3004 -0.0900 -0.8785
17813TIP3    H274855   1.808   1.490  17.261 -1.7825 -0.1752 -1.1114
17814TIP3   OH274856   2.827   1.823  14.439 -0.3344  0.2068 -0.2479
17814TIP3    H174857   2.846   1.898  14.382 -1.0678  1.0366  0.5653
17814TIP3    H274858   2.869   1.845  14.522 -2.4544  0.8165  0.7275
17815TIP3   OH274859   3.733   2.353   3.688 -0.2433  0.6514 -0.0202
17815TIP3    H174860   3.751   2.361   3.594 -0.5418  0.0412 -0.1322
17815TIP3    H274861   3.772   2.269   3.713  1.4508  1.6384  0.7983
17816TIP3   OH274862   0.312   2.382  12.278 -0.1400  0.4490 -0.1221
17816TIP3    H174863   0.222   2.412  12.269  0.0451  1.2791  0.6424
17816TIP3    H274864   0.351   2.443  12.341  1.2559  0.7667 -1.2518
17817TIP3   OH274865   5.124   1.646  10.768 -0.0904  0.4121 -0.6420
17817TIP3    H174866   5.162   1.719  10.817  0.8835 -0.6967  0.3128
17817TIP3    H274867   5.092   1.686  10.687  1.0461  1.7741 -0.4661
17818TIP3   OH274868   5.239   1.655  15.392 -0.5665  0.3266  0.0584
17818TIP3    H174869   5.192   1.738  15.382  0.3158  0.7517 -0.7314
17818TIP3    H274870   5.332   1.679  15.382 -0.2921 -0.7274  0.0080
17819TIP3   OH274871   3.963   0.371   5.665 -0.1466  0.6121 -0.6942
17819TIP3    H174872   3.874   0.337   5.679 -0.3495  1.0203 -0.9485
17819TIP3    H274873   3.984   0.416   5.747  0.6183 -1.1487  0.1256
17820TIP3   OH274874   4.711   4.533  14.943 -0.0410  0.1091  0.0166
17820TIP3    H174875   4.627   4.551  14.985 -0.0886 -1.7444  0.8098
17820TIP3    H274876   4.689   4.498  14.857 -0.0610  0.1423  0.0087
17821TIP3   OH274877   3.588   0.305  14.623 -0.0072 -0.2029 -0.3814
17821TIP3    H174878   3.616   0.396  14.615 -2.0435  0.4335 -1.0083
17821TIP3    H274879   3.583   0.273  14.534 -1.5440 -0.1488 -0.3431
17822TIP3   OH274880   4.686   5.519  14.806 -0.0641  0.4198 -0.2331
17822TIP3    H174881   4.612   5.494  14.861  0.5107 -1.5015 -0.2479
17822TIP3    H274882   4.730   5.588  14.854 -1.3696  0.9884  0.1809
17823TIP3   OH274883   5.245   6.682  15.576 -0.4252  0.5037 -0.2068
17823TIP3    H174884   5.210   6.675  15.664  0.9891 -0.3925  0.3209
17823TIP3    H274885   5.182   6.736  15.529 -1.7131  0.1630  1.0721
17824TIP3   OH274886   2.964   6.677  15.936 -0.5501  0.0433 -0.0009
17824TIP3    H174887   2.921   6.638  16.012  0.9295  2.0300  2.0261
17824TIP3    H274888   3.028   6.612  15.908 -0.9453 -0.6173  0.6092
17825TIP3   OH274889   4.785   3.574  16.588 -0.1396  0.5353  0.6612
17825TIP3    H174890   4.842   3.583  16.664 -0.3680  0.0277  0.8977
17825TIP3    H274891   4.836   3.524  16.525  0.0272  0.9036  0.5034
17826TIP3   OH274892   5.540   4.829  12.025  0.2876  0.9797  0.3331
17826TIP3    H174893   5.509   4.778  12.100  0.1400 -2.4137 -1.8107
17826TIP3    H274894   5.474   4.815  11.957  2.0037  1.1555 -1.4567
17827TIP3   OH274895   6.288   2.143   1.371  0.5153 -0.4246 -0.1628
17827TIP3    H174896   6.228   2.147   1.445 -0.7953  1.4625 -1.2116
17827TIP3    H274897   6.258   2.067   1.320  1.2927 -1.6011  1.0831
17828TIP3   OH274898   3.385   3.555   2.027 -0.3042 -0.6962  0.0891
17828TIP3    H174899   3.453   3.555   1.959 -0.7705 -0.4648 -0.3817
17828TIP3    H274900   3.314   3.502   1.991 -1.7550  1.7015 -0.8584
17829TIP3   OH274901   0.758   4.461  15.417 -0.1344  0.2184 -0.1755
17829TIP3    H174902   0.671   4.489  15.390 -0.2128 -0.9683 -1.2258
17829TIP3    H274903   0.817   4.530  15.385 -0.6001  0.6102 -0.1930
17830TIP3   OH274904   2.082   1.453  16.489 -0.4887 -0.0288 -0.3546
17830TIP3    H174905   2.154   1.397  16.519 -1.4957 -0.9847  0.3578
17830TIP3    H274906   2.092   1.456  16.394  1.0122  0.6121 -0.2217
17831TIP3   OH274907   0.552   5.239  16.206  0.1292 -0.5445  0.9802
17831TIP3    H174908   0.602   5.234  16.287  0.7769  0.0139  0.6295
17831TIP3    H274909   0.509   5.325  16.209  1.8399  0.4172 -0.1859
17832TIP3   OH274910   6.598   3.717   1.889 -0.3483 -0.1686 -0.1810
17832TIP3    H174911   6.524   3.681   1.937 -0.8362 -0.3791 -1.0791
17832TIP3    H274912   6.636   3.782   1.948 -1.6111  0.3730  0.0557
17833TIP3   OH274913   2.244   5.079   4.091 -0.1971 -0.4639  0.4759
17833TIP3    H174914   2.291   5.061   4.010  0.1399 -0.2842  0.6293
17833TIP3    H274915   2.312   5.107   4.153 -0.5281  0.0097  0.6374
17834TIP3   OH274916   3.307   0.475   5.758 -0.0056 -0.1657 -0.0719
17834TIP3    H174917   3.391   0.518   5.741  0.5317 -0.6246  1.2731
17834TIP3    H274918   3.323   0.422   5.837 -1.6090 -0.1058  0.3184
17835TIP3   OH274919   4.613   1.003  14.662 -0.0301  0.1892  0.1187
17835TIP3    H174920   4.612   0.912  14.632 -0.9298  0.3646 -0.4052
17835TIP3    H274921   4.522   1.024  14.680 -0.1047  1.5855 -1.6224
17836TIP3   OH274922   5.979   2.605  12.229  0.3552 -0.1682 -0.0753
17836TIP3    H174923   6.056   2.623  12.282  2.7697 -0.3928 -3.2663
17836TIP3    H274924   5.992   2.516  12.196 -0.0908  0.5859 -2.4650
17837TIP3   OH274925   4.736   3.549  14.746  0.4424 -0.5546 -0.4120
17837TIP3    H174926   4.714   3.597  14.666 -0.4901 -1.1326 -0.5175
17837TIP3    H274927   4.766   3.464  14.716 -0.2459 -0.9008 -0.1472
17838TIP3   OH274928   0.759   4.127   3.794 -0.3903  0.0733  0.0726
17838TIP3    H174929   0.690   4.163   3.737 -0.0534 -0.5278 -0.7439
17838TIP3    H274930   0.764   4.035   3.770  0.1759 -0.0605  0.6717
17839TIP3   OH274931   5.827   1.046  15.807 -0.3839  0.0364  0.1767
17839TIP3    H174932   5.756   1.091  15.853  0.0549  0.1993  0.7102
17839TIP3    H274933   5.848   0.971  15.862  0.5502  0.5637  0.5816
17840TIP3   OH274934   2.056   5.998  12.249 -1.0132 -0.7825 -0.3943
17840TIP3    H174935   2.082   6.078  12.295 -1.3421 -1.9061  1.8618
17840TIP3    H274936   1.960   6.003  12.245 -1.0869 -1.3956  0.4311
17841TIP3   OH274937   4.752   5.337  16.851 -0.0575 -0.0834  0.4218
17841TIP3    H174938   4.834   5.380  16.877 -0.2064  2.0608 -2.1051
17841TIP3    H274939   4.778   5.272  16.786 -0.2128 -0.9042  1.1632
17842TIP3   OH274940   0.771   3.700   2.365 -0.7845 -0.4991  0.2893
17842TIP3    H174941   0.772   3.763   2.293 -1.5063 -0.0237  0.6789
17842TIP3    H274942   0.852   3.650   2.355 -0.8193 -0.3586 -0.7788
17843TIP3   OH274943   2.203   0.571   3.366 -0.7618 -1.1104  0.1949
17843TIP3    H174944   2.137   0.508   3.394  1.4072 -3.5257  0.2904
17843TIP3    H274945   2.238   0.534   3.285  0.2731  0.2488 -0.0220
17844TIP3   OH274946   3.037   2.113   0.209  0.3040  0.0310  0.2942
17844TIP3    H174947   3.078   2.175   0.269 -0.0539 -0.4577  1.0643
17844TIP3    H274948   3.093   2.113   0.132  1.2651  0.0295  0.9779
17845TIP3   OH274949   3.481   2.760   0.027 -0.3744  0.3251 -0.1749
17845TIP3    H174950   3.505   2.812  -0.049  0.8722 -0.0511 -0.0626
17845TIP3    H274951   3.420   2.694  -0.007 -0.3416  0.5705 -0.7118
17846TIP3   OH274952   6.295   0.104   5.448 -0.2873 -0.0745  0.1970
17846TIP3    H174953   6.305   0.070   5.359  0.2071 -0.4424  0.3897
17846TIP3    H274954   6.352   0.049   5.502  0.1548  0.7463  0.5941
17847TIP3   OH274955   5.043   3.917   5.099  0.0633  0.8783 -0.2094
17847TIP3    H174956   5.027   3.935   5.191 -0.5352 -0.2198 -0.0774
17847TIP3    H274957   5.023   3.824   5.089  1.0962  0.7432 -1.2400
17848TIP3   OH274958   6.375   3.922  17.151  0.1977  0.5165  0.3929
17848TIP3    H174959   6.323   3.876  17.216 -0.3252 -0.4658 -0.6953
17848TIP3    H274960   6.466   3.910  17.180 -0.0698  0.8929  1.4270
17849TIP3   OH274961   6.435   3.083   6.587 -0.3534 -0.7792  0.6862
17849TIP3    H174962   6.390   3.002   6.614  1.2886 -0.7794  3.8592
17849TIP3    H274963   6.372   3.152   6.605 -2.0220 -1.2077 -2.6407
17850TIP3   OH274964   3.599   3.537  12.902 -0.2107  0.1788 -0.2296
17850TIP3    H174965   3.680   3.587  12.914 -0.2531  0.6174 -1.5812
17850TIP3    H274966   3.621   3.448  12.929  0.2149  0.6429  1.0530
17851TIP3   OH274967   5.103   2.206   5.160  0.4473 -0.4440 -0.2390
17851TIP3    H174968   5.113   2.112   5.170  0.0604 -0.4751 -0.1179
17851TIP3    H274969   5.190   2.237   5.133  1.0251 -0.6073  1.3548
17852TIP3   OH274970   4.945   6.154  15.897 -0.3639  0.1591 -0.0684
17852TIP3    H174971   4.930   6.248  15.911 -2.1576 -0.1365  0.2112
17852TIP3    H274972   5.037   6.148  15.872  0.8225  1.6451  3.2372
17853TIP3   OH274973   2.322   2.745   5.143 -0.3845  0.5775  0.0110
17853TIP3    H174974   2.336   2.748   5.237  0.2661  1.5075 -0.1072
17853TIP3    H274975   2.252   2.808   5.127  0.9870  2.0624 -0.3636
17854TIP3   OH274976   6.090   6.478  15.887 -0.4434  0.0717  0.0435
17854TIP3    H174977   6.025   6.409  15.878 -0.4239  0.1047 -0.3618
17854TIP3    H274978   6.132   6.484  15.801  0.5458 -0.3842  0.4763
17855TIP3   OH274979   2.098   3.145   0.815 -0.2794 -0.7555 -0.7574
17855TIP3    H174980   2.142   3.072   0.857  0.4097  1.2021  2.2623
17855TIP3    H274981   2.005   3.131   0.832 -0.1387 -0.8809 -0.0865
17856TIP3   OH274982   2.776   5.695  17.184 -0.2864  0.1918 -0.0762
17856TIP3    H174983   2.746   5.606  17.205 -2.3168  0.8662  0.1801
17856TIP3    H274984   2.847   5.712  17.246  0.5851 -1.4529 -0.5615
17857TIP3   OH274985   3.345   2.142  14.611  0.3292  0.0689  0.0881
17857TIP3    H174986   3.259   2.134  14.650 -0.5773  3.3572 -0.9724
17857TIP3    H274987   3.339   2.094  14.528  0.1527 -1.2094  0.8146
17858TIP3   OH274988   1.867   5.607   0.252  0.0955 -0.1965  0.3205
17858TIP3    H174989   1.935   5.674   0.252  2.6760 -2.4102 -3.5301
17858TIP3    H274990   1.891   5.549   0.324  2.2973 -0.8157 -0.8260
17859TIP3   OH274991   6.580   1.190   1.098  0.0118  0.6516 -0.7884
17859TIP3    H174992   6.528   1.110   1.094 -1.2131  1.4737 -4.0530
17859TIP3    H274993   6.646   1.172   1.165 -2.3344 -1.7102  1.0794
17860TIP3   OH274994   3.720   4.130   1.608  0.0518  0.2663  0.0117
17860TIP3    H174995   3.628   4.102   1.603  0.1434  0.1779 -2.2124
17860TIP3    H274996   3.732   4.187   1.533  1.7410  0.5798  0.4762
17861TIP3   OH274997   1.002   2.402  15.921  0.5116 -0.0900  0.5717
17861TIP3    H174998   0.966   2.480  15.879  1.9027 -0.0547 -0.6343
17861TIP3    H274999   0.927   2.345  15.935 -0.6495  1.6894  2.0900
17862TIP3   OH275000   0.103   2.088  14.812 -0.1812 -0.3267 -0.1507
17862TIP3    H175001   0.026   2.131  14.774 -0.2197 -0.7763 -0.5944
17862TIP3    H275002   0.067   2.027  14.876 -0.1595 -0.1418  0.0397
17863TIP3   OH275003   5.628   2.214   5.186 -0.0061  0.3954 -0.0408
17863TIP3    H175004   5.659   2.297   5.152  1.0409  0.1857  0.3626
17863TIP3    H275005   5.707   2.168   5.214 -0.6969 -0.0162  1.3542
17864TIP3   OH275006   1.332   5.874  14.513  0.3381 -0.3652  0.1283
17864TIP3    H175007   1.349   5.870  14.607  0.8372 -0.1583  0.0516
17864TIP3    H275008   1.353   5.787  14.481  1.1930 -0.1386  0.0497
17865TIP3   OH275009   1.214   2.133   1.432  0.1683  0.4820  0.3297
17865TIP3    H175010   1.194   2.178   1.349 -0.2848 -0.5626 -0.1423
17865TIP3    H275011   1.289   2.078   1.411 -0.3979 -0.3275  0.4230
17866TIP3   OH275012   3.675   3.709   2.873  0.4297  0.1785  0.1548
17866TIP3    H175013   3.630   3.668   2.947  0.7353 -1.9623 -0.7532
17866TIP3    H275014   3.768   3.694   2.891  0.4754 -1.3390 -1.1095
17867TIP3   OH275015   0.713   4.848  11.184 -0.5444  0.4294  0.4097
17867TIP3    H175016   0.644   4.836  11.119 -1.7449  2.9081  1.0642
17867TIP3    H275017   0.722   4.943  11.192  2.2796  0.2003  1.1097
17868TIP3   OH275018   3.924   2.225  13.543  0.2486  0.1966 -0.2410
17868TIP3    H175019   3.946   2.222  13.636  0.7414 -0.9381 -0.3905
17868TIP3    H275020   3.829   2.239  13.542  0.2578  0.3555  0.4270
17869TIP3   OH275021   5.749   4.427  14.001 -0.5509  0.3142  0.1882
17869TIP3    H175022   5.805   4.440  14.078 -2.1498  0.2705  1.4075
17869TIP3    H275023   5.810   4.420  13.928  0.9773  2.0608  1.1987
17870TIP3   OH275024   5.781   2.536  14.998  0.3664  0.2670  0.2742
17870TIP3    H175025   5.762   2.460  15.053  0.8221 -2.2655 -2.7701
17870TIP3    H275026   5.698   2.582  14.990 -0.7292 -1.6995 -0.2285
17871TIP3   OH275027   4.583   3.670   2.648 -0.1709  0.1513 -0.5965
17871TIP3    H175028   4.503   3.719   2.627  0.5905  0.3005 -3.5552
17871TIP3    H275029   4.607   3.627   2.566  0.0281 -4.1145  1.4740
17872TIP3   OH275030   1.741   6.213  14.335  0.0788  0.8144  0.1299
17872TIP3    H175031   1.679   6.165  14.390  0.2444 -1.7666 -1.7585
17872TIP3    H275032   1.827   6.186  14.367  0.1737  0.0376 -0.7336
17873TIP3   OH275033   5.101   5.744  11.390 -0.3999 -0.2190 -0.2286
17873TIP3    H175034   5.095   5.807  11.462  0.6496 -1.4024  0.9567
17873TIP3    H275035   5.151   5.789  11.322 -0.3149  0.4864  0.2919
17874TIP3   OH275036   0.702   6.755  12.001 -0.0898 -0.7002 -0.0705
17874TIP3    H175037   0.722   6.776  11.910 -0.0742  2.4802  0.5582
17874TIP3    H275038   0.654   6.831  12.033  0.0250 -1.6682  2.6328
17875TIP3   OH275039   5.295   0.820  17.164  0.2074  0.9228 -0.4586
17875TIP3    H175040   5.220   0.792  17.112 -1.2998 -1.4611  2.6100
17875TIP3    H275041   5.257   0.866  17.239  1.8184  0.2457  0.8476
17876TIP3   OH275042   2.217   4.296   0.512 -0.4563  0.4442 -0.3690
17876TIP3    H175043   2.158   4.370   0.528 -0.0195  0.6425  0.3728
17876TIP3    H275044   2.266   4.286   0.594 -0.0555 -0.2602 -0.6825
17877TIP3   OH275045   1.600   4.866  11.422  0.4950 -0.1706 -0.1106
17877TIP3    H175046   1.539   4.897  11.355 -0.7405  0.1207  1.1086
17877TIP3    H275047   1.662   4.938  11.433  1.4359 -0.6750 -1.7331
17878TIP3   OH275048   0.495   5.752  12.071  0.5495  0.6298 -0.2056
17878TIP3    H175049   0.405   5.782  12.078  0.2032 -0.4943  0.4096
17878TIP3    H275050   0.489   5.656  12.080  1.9272  0.6363  1.0813
17879TIP3   OH275051   2.838   1.150  13.650  0.5649 -0.3862  0.3418
17879TIP3    H175052   2.807   1.177  13.564  0.2840 -1.3133  0.1381
17879TIP3    H275053   2.759   1.125  13.697  0.5796  1.3092  1.3212
17880TIP3   OH275054   4.627   1.482   0.253 -0.4366  0.1034  0.0157
17880TIP3    H175055   4.608   1.398   0.294 -0.8141  0.0349 -0.2956
17880TIP3    H275056   4.558   1.493   0.188 -0.4822  0.7285  0.1653
17881TIP3   OH275057   1.613   4.480   4.051  0.1026  0.1639  0.6270
17881TIP3    H175058   1.621   4.450   3.960  2.3138 -0.3317  0.9224
17881TIP3    H275059   1.581   4.404   4.099 -1.9317  0.6752  0.1902
17882TIP3   OH275060   5.440   5.704  15.533  0.4407  0.0613  0.7484
17882TIP3    H175061   5.345   5.696  15.523  0.4883  0.6030 -0.1887
17882TIP3    H275062   5.453   5.710  15.628 -0.2042 -3.0374  1.1620
17883TIP3   OH275063   3.076   2.369   4.401 -0.3654  0.1085  0.5552
17883TIP3    H175064   3.099   2.410   4.318  0.2201  0.0959  0.7111
17883TIP3    H275065   3.092   2.437   4.467 -1.1152  0.2217  0.6334
17884TIP3   OH275066   3.780   5.154   4.557  0.1468 -0.6792  0.0875
17884TIP3    H175067   3.838   5.108   4.497  0.5100 -1.6198  1.1025
17884TIP3    H275068   3.833   5.225   4.593  0.0734 -0.3963 -0.3652
17885TIP3   OH275069   0.892   3.853  15.389  0.0213 -0.2450 -0.0127
17885TIP3    H175070   0.803   3.825  15.367  0.4212 -1.0442 -0.6876
17885TIP3    H275071   0.894   3.856  15.484 -0.4962 -1.0033  0.0268
17886TIP3   OH275072   3.830   2.914   4.204  0.0024 -0.1785 -0.6429
17886TIP3    H175073   3.912   2.956   4.232 -0.1613 -0.1634 -0.1827
17886TIP3    H275074   3.859   2.841   4.148  0.3462 -0.3539 -0.2464
17887TIP3   OH275075   6.168   3.089   4.886 -0.3912  0.6980 -0.3523
17887TIP3    H175076   6.134   3.134   4.809 -1.3315 -0.3366 -0.5653
17887TIP3    H275077   6.108   3.112   4.956 -0.4954  0.3210 -0.3143
17888TIP3   OH275078   4.320   3.633  15.910  0.0027 -0.2513 -0.0889
17888TIP3    H175079   4.321   3.702  15.976  2.4885  0.7062 -0.9926
17888TIP3    H275080   4.229   3.630  15.879 -1.1617 -0.4980  3.0347
17889TIP3   OH275081   6.515   6.701   5.888  0.0375  0.3568  0.1534
17889TIP3    H175082   6.582   6.638   5.914 -0.2555  0.3896  1.0166
17889TIP3    H275083   6.432   6.659   5.911 -0.1158  1.9036  2.8485
17890TIP3   OH275084   0.827   3.942  10.922 -0.0458  0.1876  0.1493
17890TIP3    H175085   0.915   3.974  10.942  0.3818 -1.6068  1.4013
17890TIP3    H275086   0.833   3.909  10.833  0.8259 -0.6902  0.5082
17891TIP3   OH275087   3.716   3.118   0.920 -0.0782  0.2786 -0.0467
17891TIP3    H175088   3.675   3.031   0.919 -0.5440  0.4544  1.2984
17891TIP3    H275089   3.788   3.109   0.982  1.3089  0.2614 -1.6131
17892TIP3   OH275090   1.393   4.461   6.683  0.1217 -0.6255  0.2676
17892TIP3    H175091   1.324   4.400   6.711 -0.8312 -0.4534 -1.5312
17892TIP3    H275092   1.345   4.537   6.651  1.0133 -1.0726 -2.3942
17893TIP3   OH275093   3.314   1.967  13.088 -0.2201 -0.3851 -0.5393
17893TIP3    H175094   3.315   2.001  13.177  1.2429 -2.1763  0.1891
17893TIP3    H275095   3.221   1.970  13.062 -0.9009 -1.1453  1.5958
17894TIP3   OH275096   0.965   4.290   3.799 -1.2115 -0.3652  0.3947
17894TIP3    H175097   0.947   4.349   3.726 -0.2064  0.1459  0.5400
17894TIP3    H275098   0.879   4.267   3.834 -1.6056  1.8087  0.9560
17895TIP3   OH275099   5.247   3.082  15.035 -0.4460  0.3774 -0.1452
17895TIP3    H175100   5.194   3.022  15.087  0.4793 -1.7100 -1.4893
17895TIP3    H275101   5.292   3.137  15.100 -0.9934 -0.6602  1.1523
17896TIP3   OH275102   6.740   4.620  16.779  0.1838  0.2808  0.0681
17896TIP3    H175103   6.784   4.648  16.698  2.6805  1.7741  1.7667
17896TIP3    H275104   6.649   4.607  16.754  0.7035  1.3803 -2.8229
17897TIP3   OH275105   2.239   3.648  16.110 -0.0545 -0.2142  0.5839
17897TIP3    H175106   2.228   3.553  16.114  0.5354 -0.3359 -0.4484
17897TIP3    H275107   2.152   3.682  16.088 -0.0213 -0.5983 -0.1420
17898TIP3   OH275108   5.941   1.005  15.164 -0.0464  0.1226  0.9590
17898TIP3    H175109   5.999   0.934  15.191  1.5968  1.6855  1.7205
17898TIP3    H275110   5.943   1.002  15.068 -2.0227 -2.3739  0.8914
17899TIP3   OH275111   0.490   2.598   0.467  0.0036 -0.4288 -0.0929
17899TIP3    H175112   0.541   2.670   0.430 -1.2542  0.2897 -0.5047
17899TIP3    H275113   0.481   2.620   0.560  1.7838 -1.3954  0.3408
17900TIP3   OH275114   1.422   5.552  14.550  0.1428 -0.0072  0.3053
17900TIP3    H175115   1.499   5.579  14.500  0.0275  0.5122  0.4006
17900TIP3    H275116   1.455   5.487  14.612  0.9262  1.6769  1.7299
17901TIP3   OH275117   4.311   5.950  12.459  0.3269  0.2911 -0.1257
17901TIP3    H175118   4.293   6.021  12.397 -1.7709  1.1856  1.4105
17901TIP3    H275119   4.237   5.952  12.520  1.4269 -1.6987  1.3756
17902TIP3   OH275120   3.536   3.928   4.490  0.1312 -0.4788  0.1042
17902TIP3    H175121   3.626   3.960   4.483 -0.2400  0.4762 -0.5053
17902TIP3    H275122   3.497   3.981   4.559  0.0741 -1.0044  0.4802
17903TIP3   OH275123   1.532   5.423  12.288  0.4006  0.2571  0.0570
17903TIP3    H175124   1.442   5.455  12.284  0.4845  0.6555  1.0457
17903TIP3    H275125   1.531   5.341  12.239 -0.4334  0.4055 -0.1794
17904TIP3   OH275126   2.354   4.763  12.942  0.1692 -0.4535 -0.0120
17904TIP3    H175127   2.404   4.791  13.018  0.6255 -1.2180 -0.0206
17904TIP3    H275128   2.420   4.741  12.876 -0.2166  0.2108 -0.6405
17905TIP3   OH275129   3.953   3.053  15.090 -0.0241 -0.1144  0.1296
17905TIP3    H175130   3.953   2.979  15.150 -0.6950  0.4467  0.8445
17905TIP3    H275131   3.861   3.082  15.087  0.2060  0.6234 -0.2038
17906TIP3   OH275132   1.135   2.121  14.750  0.4813 -0.0214 -0.4945
17906TIP3    H175133   1.162   2.107  14.659  0.1304  1.1539 -0.7855
17906TIP3    H275134   1.099   2.036  14.777  1.5441 -0.6985 -1.0994
17907TIP3   OH275135   0.648   6.070   5.152 -0.1967  0.2384 -0.1133
17907TIP3    H175136   0.722   6.039   5.204  0.9420  2.1858 -0.4573
17907TIP3    H275137   0.609   6.139   5.204  0.3520  1.5404 -1.3601
17908TIP3   OH275138   2.677   1.428   3.985 -0.0041 -0.0950 -0.6759
17908TIP3    H175139   2.729   1.349   3.967  1.3482  0.0787  2.0371
17908TIP3    H275140   2.617   1.401   4.055 -1.1207  0.7180 -1.2851
17909TIP3   OH275141   1.383   6.162  11.753 -0.1805 -0.4021 -0.2065
17909TIP3    H175142   1.465   6.150  11.801 -0.2788 -0.4881 -0.0599
17909TIP3    H275143   1.407   6.214  11.677 -0.2348  0.7287  0.5290
17910TIP3   OH275144   1.048   0.600  12.388 -0.3786 -0.3542  0.3003
17910TIP3    H175145   1.019   0.610  12.479 -3.3233 -1.4585 -0.4296
17910TIP3    H275146   0.968   0.596  12.337  1.1858  0.8446 -2.4841
17911TIP3   OH275147   6.700   2.968  15.530  0.0539 -0.7045  0.7794
17911TIP3    H175148   6.750   2.964  15.449 -1.4682 -1.6267 -0.1833
17911TIP3    H275149   6.654   2.884  15.534 -2.1788  0.4342  1.0426
17912TIP3   OH275150   0.139   2.603   4.396 -0.0533  0.6562 -0.0958
17912TIP3    H175151   0.208   2.546   4.361 -1.3245 -0.4438 -0.9774
17912TIP3    H275152   0.156   2.607   4.490 -0.5678 -2.2287  0.2176
17913TIP3   OH275153   2.032   4.384  15.678 -0.0064 -0.0266  0.7177
17913TIP3    H175154   2.103   4.446  15.661  0.5314 -0.5916  0.8795
17913TIP3    H275155   1.954   4.439  15.683  0.2047  0.4530 -0.8333
17914TIP3   OH275156   6.556   0.619  14.149  0.2654  0.9076  0.1400
17914TIP3    H175157   6.466   0.628  14.181  0.1040  1.1844 -0.3775
17914TIP3    H275158   6.578   0.527  14.163 -0.2448  0.7488 -0.1026
17915TIP3   OH275159   1.337   6.057   6.151  0.3225  0.2733 -0.0381
17915TIP3    H175160   1.265   6.103   6.194  0.9249  0.6742  0.5627
17915TIP3    H275161   1.312   6.054   6.058  0.6717  2.6162 -0.2530
17916TIP3   OH275162   4.427   3.959  16.001 -0.0261 -0.1982 -0.2785
17916TIP3    H175163   4.343   3.967  15.956 -1.2027  1.9404  2.0272
17916TIP3    H275164   4.491   3.991  15.937 -1.2453  0.1123 -1.4008
17917TIP3   OH275165   0.244   2.583  14.180 -0.0012  0.3653  0.1536
17917TIP3    H175166   0.211   2.494  14.168  0.6691 -0.2695  2.5068
17917TIP3    H275167   0.212   2.609  14.267  2.1204  1.3198  0.7205
17918TIP3   OH275168   0.913   4.145   1.825 -0.8276 -0.1597  0.2959
17918TIP3    H175169   0.862   4.227   1.824  0.3481  0.5922  0.3639
17918TIP3    H275170   0.894   4.105   1.740 -0.5581  0.7484 -0.2146
17919TIP3   OH275171   2.163   1.193   5.100  0.5250 -0.2845  0.2769
17919TIP3    H175172   2.141   1.286   5.094 -0.0044 -0.4809 -2.6140
17919TIP3    H275173   2.079   1.149   5.101  0.7767 -0.7566  1.5137
17920TIP3   OH275174   2.341   1.729  16.717  0.2434 -0.6886 -0.3177
17920TIP3    H175175   2.389   1.811  16.732  1.5457 -1.6858  1.3746
17920TIP3    H275176   2.384   1.689  16.642 -0.6008  0.2578 -1.3591
17921TIP3   OH275177   4.625   3.557  11.362 -0.1652  0.0459  0.6702
17921TIP3    H175178   4.689   3.625  11.338 -4.2344  3.4929 -1.9373
17921TIP3    H275179   4.610   3.570  11.456  1.3015  0.6910  0.8389
17922TIP3   OH275180   0.702   0.014   2.796 -0.3510  0.3731  0.0229
17922TIP3    H175181   0.758  -0.060   2.820 -1.5111 -0.8761 -0.9639
17922TIP3    H275182   0.621   0.000   2.845 -0.9536  0.4169 -0.9324
17923TIP3   OH275183   0.096   4.612   2.241  0.4784  0.1598  0.7055
17923TIP3    H175184   0.188   4.598   2.266  0.8137 -1.3869 -1.1022
17923TIP3    H275185   0.069   4.528   2.203 -1.6635  0.6341  1.0574
17924TIP3   OH275186   6.057   4.973  13.352  0.6702  0.4940 -0.4285
17924TIP3    H175187   6.082   4.953  13.262  3.2177  4.2462 -0.7729
17924TIP3    H275188   6.139   4.966  13.402  0.1777  2.2915  0.7501
17925TIP3   OH275189   5.534   1.069   1.465  0.2257 -0.5032  0.5571
17925TIP3    H175190   5.470   1.119   1.415  0.2570 -0.7569  0.2643
17925TIP3    H275191   5.591   1.135   1.504  0.7221 -0.3374 -0.4321
17926TIP3   OH275192   0.707   4.354  16.972  0.4601 -0.6483  0.4743
17926TIP3    H175193   0.760   4.368  17.050  0.0468  0.2225  0.6081
17926TIP3    H275194   0.629   4.408  16.985  0.7027  0.0763 -0.8516
17927TIP3   OH275195   0.611   3.145  11.953 -0.1697 -0.8232 -0.3946
17927TIP3    H175196   0.591   3.237  11.966 -3.5566 -1.4509 -0.2300
17927TIP3    H275197   0.625   3.136  11.858 -1.4876 -0.3471 -0.6591
17928TIP3   OH275198   4.316   3.988   0.731  0.0746  0.4654 -0.3991
17928TIP3    H175199   4.278   4.076   0.723 -0.9638  0.2473  1.6164
17928TIP3    H275200   4.255   3.931   0.685 -0.7856  0.4423  0.7457
17929TIP3   OH275201   6.231   3.795  16.661 -0.1983  0.1614  0.0336
17929TIP3    H175202   6.192   3.882  16.648  0.9580  0.8155  0.8003
17929TIP3    H275203   6.172   3.752  16.723 -0.6493  0.4849 -0.1609
17930TIP3   OH275204   2.182   6.481  13.645 -0.5586 -0.5250 -0.4254
17930TIP3    H175205   2.152   6.453  13.731 -1.3320  1.0348 -0.1509
17930TIP3    H275206   2.109   6.531  13.609  0.3687  0.2702 -1.2806
17931TIP3   OH275207   3.067   1.925   5.357 -0.8327 -0.0598  0.2485
17931TIP3    H175208   2.986   1.975   5.369 -0.9249 -0.0826 -0.2266
17931TIP3    H275209   3.137   1.991   5.358 -0.9589  0.0966 -0.4286
17932TIP3   OH275210   6.101   2.991  11.431  0.0994  0.4808 -0.6618
17932TIP3    H175211   6.090   2.918  11.370  1.9866  0.0414 -0.5487
17932TIP3    H275212   6.184   3.032  11.405 -1.2118  3.0400 -1.1201
17933TIP3   OH275213   6.401   4.697   4.152 -0.0322  0.2087 -0.1629
17933TIP3    H175214   6.437   4.651   4.228  0.2402 -4.2753 -2.6638
17933TIP3    H275215   6.477   4.736   4.109  0.6253 -1.5199 -0.6516
17934TIP3   OH275216   1.704   1.455  15.363  0.6169 -0.3044 -0.0227
17934TIP3    H175217   1.719   1.509  15.441  1.1705 -0.3106 -0.1206
17934TIP3    H275218   1.724   1.366  15.392  1.1295 -0.2681 -0.2509
17935TIP3   OH275219   6.486   2.103  11.621  0.2826 -0.1604  0.0157
17935TIP3    H175220   6.474   2.197  11.634  0.8859 -0.0590 -0.1105
17935TIP3    H275221   6.404   2.072  11.584  0.1150  0.3340 -0.0215
17936TIP3   OH275222   5.865   1.213  13.598  0.4017  0.0171 -0.5606
17936TIP3    H175223   5.923   1.273  13.551 -0.9788  1.0992 -0.9672
17936TIP3    H275224   5.898   1.126  13.577  0.3187  0.4896 -2.9463
17937TIP3   OH275225   2.662   5.361   2.754 -0.3759  0.0963 -0.2796
17937TIP3    H175226   2.591   5.377   2.816  1.2155  0.3605  1.5788
17937TIP3    H275227   2.656   5.268   2.732 -1.3037  0.1330 -0.2066
17938TIP3   OH275228   4.262   0.620  10.927 -0.3853  0.9483  0.6903
17938TIP3    H175229   4.192   0.674  10.964 -0.9145 -0.4186  1.7733
17938TIP3    H275230   4.251   0.629  10.832  0.0307  3.3045  0.8111
17939TIP3   OH275231   2.710   3.013   1.518  0.1825  0.4021  0.3510
17939TIP3    H175232   2.716   3.061   1.436 -1.9781 -1.6095 -1.1282
17939TIP3    H275233   2.729   2.922   1.494  0.8890 -0.0375  2.3680
17940TIP3   OH275234   0.774   2.043   5.760  0.3251  0.1574 -0.1830
17940TIP3    H175235   0.852   1.997   5.791 -1.6606 -2.3052  1.6006
17940TIP3    H275236   0.772   2.025   5.666  1.3414 -0.6709 -0.0629
17941TIP3   OH275237   6.706   2.800   2.867 -0.3748  0.6335  0.3631
17941TIP3    H175238   6.626   2.774   2.912  0.0369 -0.3868  0.5356
17941TIP3    H275239   6.776   2.778   2.928  0.0608  1.1638  0.0600
17942TIP3   OH275240   6.053   5.855   2.509 -0.1063 -0.1529  0.3196
17942TIP3    H175241   6.024   5.845   2.599  0.5550 -3.1356  0.2789
17942TIP3    H275242   6.109   5.780   2.493 -0.4433  0.1208 -2.6802
17943TIP3   OH275243   1.836   2.540  14.693 -0.7364  0.0343  0.2588
17943TIP3    H175244   1.840   2.635  14.699  1.1029 -0.1023  1.9125
17943TIP3    H275245   1.744   2.519  14.708 -0.9614  1.4941  1.0751
17944TIP3   OH275246   1.520   2.088   0.183 -0.6095 -0.1191  1.1152
17944TIP3    H175247   1.431   2.071   0.211 -0.8385 -0.4829  0.1999
17944TIP3    H275248   1.539   2.176   0.214 -0.9818 -0.3537  2.0398
17945TIP3   OH275249   2.560   4.266  13.279 -0.3337  0.0687  0.3119
17945TIP3    H175250   2.589   4.263  13.188 -0.2958  0.1750  0.3211
17945TIP3    H275251   2.470   4.233  13.277  0.1154 -1.2228  0.4196
17946TIP3   OH275252   3.632   6.193  14.320 -0.2095  0.2397  0.3472
17946TIP3    H175253   3.560   6.240  14.278  0.8545  2.6519  1.0572
17946TIP3    H275254   3.635   6.229  14.409  1.4739 -0.2684  0.5247
17947TIP3   OH275255   1.994   6.123   4.650  0.5280  0.0209  0.5184
17947TIP3    H175256   1.929   6.157   4.588  1.6977 -1.1718 -1.4643
17947TIP3    H275257   1.947   6.056   4.700 -0.2820  0.5779  0.5258
17948TIP3   OH275258   1.774   5.595   4.792  0.3452  0.1226  0.3915
17948TIP3    H175259   1.717   5.561   4.861  1.1742  0.0415  1.0472
17948TIP3    H275260   1.811   5.517   4.751  0.0345  0.1776 -0.0002
17949TIP3   OH275261   5.066   6.461  11.807  0.3328  0.1362  0.1755
17949TIP3    H175262   5.131   6.451  11.876  0.5689  1.0007  0.0918
17949TIP3    H275263   5.069   6.555  11.785  0.6842 -0.2058 -1.3899
17950TIP3   OH275264   6.504   6.611   0.844  0.3135  0.1609 -0.3406
17950TIP3    H175265   6.471   6.527   0.877 -0.0654  0.7217  0.7753
17950TIP3    H275266   6.598   6.597   0.835  0.2126 -0.4825 -0.4634
17951TIP3   OH275267   0.182   2.024  16.845  0.0293  0.3896 -0.1479
17951TIP3    H175268   0.198   2.058  16.933 -1.7147 -0.6285  0.6057
17951TIP3    H275269   0.176   2.102  16.790  1.4400  1.0296  0.5434
17952TIP3   OH275270   1.320   5.207   4.237 -0.4249 -0.4797 -0.0165
17952TIP3    H175271   1.317   5.228   4.144 -0.7445  0.1693  0.1313
17952TIP3    H275272   1.259   5.269   4.277  1.8276  1.2046  0.9902
17953TIP3   OH275273   1.284   0.178  11.590 -0.2024 -0.0833  0.5718
17953TIP3    H175274   1.360   0.227  11.622 -1.2720  1.5178  0.7692
17953TIP3    H275275   1.237   0.152  11.669 -0.2918 -0.3700  0.4278
17954TIP3   OH275276   5.787   3.294  11.889  0.4558 -0.4329  0.2381
17954TIP3    H175277   5.715   3.324  11.833  0.4591 -0.5718  0.1597
17954TIP3    H275278   5.760   3.206  11.917 -0.0989  0.0900  1.3989
17955TIP3   OH275279   3.748   1.802  11.535 -0.4061  0.6771  0.0777
17955TIP3    H175280   3.727   1.874  11.476 -1.9204 -1.6077 -2.3729
17955TIP3    H275281   3.675   1.799  11.597 -0.8451  0.6460 -0.4374
17956TIP3   OH275282   6.547   1.105  14.383 -0.4388 -0.0336 -0.0842
17956TIP3    H175283   6.563   1.017  14.349  0.8437 -0.4162  1.3920
17956TIP3    H275284   6.501   1.150  14.312  0.8891 -1.1913 -1.7579
17957TIP3   OH275285   3.616   1.786  15.259 -0.5159 -0.2907 -0.0423
17957TIP3    H175286   3.601   1.694  15.238  1.5229 -0.6434 -0.1607
17957TIP3    H275287   3.631   1.828  15.174  1.5072 -0.4812  0.1705
17958TIP3   OH275288   3.611   2.373  12.080 -0.0610  0.5760 -0.0686
17958TIP3    H175289   3.575   2.428  12.010 -0.4142  1.1479  0.5410
17958TIP3    H275290   3.663   2.307  12.035 -0.1156  1.0568 -0.8562
17959TIP3   OH275291   2.384   5.696   3.433 -0.2733 -0.4048 -0.1861
17959TIP3    H175292   2.292   5.720   3.419 -0.4150 -0.6768  0.2703
17959TIP3    H275293   2.388   5.671   3.525 -0.0028 -1.5610 -0.4974
17960TIP3   OH275294   6.251   4.405  12.110 -0.0431 -0.1481  0.0426
17960TIP3    H175295   6.297   4.323  12.091  0.8482  0.2260  0.4948
17960TIP3    H275296   6.265   4.459  12.033 -0.3530 -0.2981 -0.1211
17961TIP3   OH275297   1.034   3.667   0.785  0.6137 -0.1793 -0.2103
17961TIP3    H175298   0.950   3.625   0.804  0.6097 -0.6757 -1.2646
17961TIP3    H275299   1.010   3.749   0.742  0.5953  1.3622  2.5353
17962TIP3   OH275300   3.073   3.715   1.680  0.5640  0.3386  0.6400
17962TIP3    H175301   3.132   3.675   1.616  0.3877  2.9144 -1.3272
17962TIP3    H275302   3.129   3.740   1.753  1.6525  1.2479 -0.4676
17963TIP3   OH275303   5.369   3.658  15.406 -0.0494  0.4984 -0.3854
17963TIP3    H175304   5.419   3.735  15.432 -0.2823  0.5480 -0.0809
17963TIP3    H275305   5.348   3.614  15.489  1.0669 -0.5103 -0.6068
17964TIP3   OH275306   0.391   2.841  14.110 -0.3757  0.0290  0.0273
17964TIP3    H175307   0.356   2.757  14.142  0.2556 -0.2141  0.1017
17964TIP3    H275308   0.444   2.817  14.033  0.4540  0.2596  0.5192
17965TIP3   OH275309   3.372   2.302   0.704 -0.6135 -0.2327 -0.4460
17965TIP3    H175310   3.303   2.255   0.656  0.2365 -0.4824 -1.4609
17965TIP3    H275311   3.358   2.279   0.795 -2.0181 -0.0980 -0.6009
17966TIP3   OH275312   6.681   0.696   5.519 -0.5083  0.1611  0.0974
17966TIP3    H175313   6.610   0.639   5.491  0.4414 -1.5388  1.0334
17966TIP3    H275314   6.647   0.785   5.504 -2.3539 -0.6029 -0.5654
17967TIP3   OH275315   3.443   0.538   4.708  0.1010  0.3241  0.0007
17967TIP3    H175316   3.513   0.480   4.739  0.9217  1.0544 -0.4460
17967TIP3    H275317   3.402   0.490   4.636  0.6008  0.1792 -0.1919
17968TIP3   OH275318   1.574   1.503   5.474 -0.2398 -0.7238  0.3833
17968TIP3    H175319   1.545   1.412   5.461 -1.8286 -0.2300  0.1950
17968TIP3    H275320   1.629   1.500   5.552  0.8255 -2.0455 -0.3663
17969TIP3   OH275321   5.659   1.951  12.847  0.3303  0.2440  0.1347
17969TIP3    H175322   5.729   1.940  12.781  0.5495 -1.6334  0.6239
17969TIP3    H275323   5.626   1.862  12.861  0.0243  0.6548  2.2794
17970TIP3   OH275324   2.121   6.216   0.590  0.1997  0.1360  0.4116
17970TIP3    H175325   2.033   6.239   0.560  0.0877 -1.3379 -0.4855
17970TIP3    H275326   2.156   6.297   0.626 -0.9568  1.1352 -0.6142
17971TIP3   OH275327   2.452   5.374   3.349  0.3037  0.1841 -0.1690
17971TIP3    H175328   2.391   5.447   3.341 -1.1402 -1.0291 -0.8035
17971TIP3    H275329   2.499   5.389   3.431 -1.0470  1.0157  0.4725
17972TIP3   OH275330   1.713   5.107  12.613  0.1483  0.4322  0.5881
17972TIP3    H175331   1.668   5.191  12.599  1.8499  1.2178 -0.4271
17972TIP3    H275332   1.645   5.049  12.648 -1.5596  1.6691 -0.5327
17973TIP3   OH275333   3.344   6.193  16.877 -0.4383  0.4688  0.1471
17973TIP3    H175334   3.310   6.242  16.802 -0.7505  1.8699  1.1635
17973TIP3    H275335   3.372   6.109  16.840  1.2240  1.8066 -1.8913
17974TIP3   OH275336   3.846   4.472  11.369  0.7289 -0.2000  0.3444
17974TIP3    H175337   3.844   4.560  11.407 -1.2641 -0.4645  0.9926
17974TIP3    H275338   3.868   4.486  11.277  4.3093  0.5883  1.1555
17975TIP3   OH275339   3.909   6.404   6.516  0.5539  0.0065 -0.2006
17975TIP3    H175340   3.870   6.348   6.582 -0.7655  2.4569  1.2311
17975TIP3    H275341   3.996   6.366   6.500 -1.3034 -4.2185 -1.7286
17976TIP3   OH275342   3.218   2.405   4.170  0.1966 -0.1670 -0.2436
17976TIP3    H175343   3.314   2.397   4.165  0.4260  0.2964  2.0718
17976TIP3    H275344   3.202   2.499   4.164 -0.0897 -0.2221 -0.3447
17977TIP3   OH275345   6.065   0.415  17.048 -0.1064 -0.1518  0.0883
17977TIP3    H175346   6.070   0.463  16.965  0.3971  1.4092  0.9798
17977TIP3    H275347   6.083   0.481  17.115 -0.5005 -1.3756  1.4536
17978TIP3   OH275348   4.666   5.897   1.795  0.0565 -0.2191 -0.1383
17978TIP3    H175349   4.601   5.938   1.851 -0.6923 -1.0136 -0.4020
17978TIP3    H275350   4.733   5.864   1.856 -0.0120  0.1893  0.1639
17979TIP3   OH275351   3.092   4.040   4.993 -0.1477  0.4279  0.1879
17979TIP3    H175352   3.054   4.003   5.072 -1.2067  0.5782 -0.2409
17979TIP3    H275353   3.142   4.116   5.023 -0.3169  0.3219  0.7385
17980TIP3   OH275354   5.429   4.817  16.488 -0.8391 -0.4482  0.2746
17980TIP3    H175355   5.392   4.739  16.448 -2.1759  0.9531 -1.3804
17980TIP3    H275356   5.368   4.887  16.465  0.3554  1.1111  1.6220
17981TIP3   OH275357   6.606   4.013  12.164 -0.2154  0.2510 -0.3182
17981TIP3    H175358   6.696   3.988  12.183 -0.3104 -0.4226 -0.7013
17981TIP3    H275359   6.560   3.930  12.151 -0.8635  0.5883 -0.2523
17982TIP3   OH275360   4.044   6.087   0.803  0.6554 -0.0792 -0.1500
17982TIP3    H175361   4.032   5.992   0.800 -0.2701 -0.1987  3.2621
17982TIP3    H275362   3.987   6.121   0.734  0.2376 -1.9306 -0.7722
17983TIP3   OH275363   4.838   4.116  17.218  0.5206 -0.0637  0.5120
17983TIP3    H175364   4.904   4.113  17.148  0.8356 -0.8756  0.8346
17983TIP3    H275365   4.763   4.159  17.177  0.9511  0.1180 -0.1143
17984TIP3   OH275366   0.651   2.480   6.128  0.0818  0.6406 -0.0021
17984TIP3    H175367   0.600   2.404   6.100  1.4167  0.2463 -1.5157
17984TIP3    H275368   0.618   2.500   6.216 -2.0045 -0.1451 -0.5452
17985TIP3   OH275369   3.530   1.300   3.604  0.5115  0.1762 -0.0134
17985TIP3    H175370   3.621   1.318   3.625  0.5801  0.7964 -0.8211
17985TIP3    H275371   3.497   1.382   3.567  0.0925 -0.5537 -1.2856
17986TIP3   OH275372   5.727   1.619  13.544 -0.2114  0.0121  0.2453
17986TIP3    H175373   5.823   1.620  13.542 -0.2164  0.1966 -0.0766
17986TIP3    H275374   5.705   1.595  13.633  0.1211  1.6541  0.7974
17987TIP3   OH275375   3.305   6.202  15.035 -0.2550  0.6876 -0.2318
17987TIP3    H175376   3.258   6.275  15.075  1.9623  0.2175  3.7825
17987TIP3    H275377   3.264   6.123  15.071  0.5125  0.1417 -0.5087
17988TIP3   OH275378   1.935   5.369   0.461 -0.2253 -0.0298 -0.1071
17988TIP3    H175379   1.964   5.282   0.436 -2.2955 -1.5042  2.1757
17988TIP3    H275380   1.859   5.354   0.516 -0.0017  3.1918  1.2978
17989TIP3   OH275381   0.006   4.072   0.591  0.1454 -0.3354  0.7034
17989TIP3    H175382   0.001   3.988   0.546  0.1003 -0.2075  0.4696
17989TIP3    H275383   0.072   4.058   0.659 -0.7170 -0.9144  1.4404
17990TIP3   OH275384   2.557   3.222  10.633  0.2003  0.1254  0.0359
17990TIP3    H175385   2.508   3.141  10.646 -0.0309  0.1101 -0.8433
17990TIP3    H275386   2.644   3.204  10.670 -0.1645 -0.1671  0.7644
17991TIP3   OH275387   6.309   1.450  17.208  0.5388  0.5814 -0.3888
17991TIP3    H175388   6.303   1.545  17.200 -0.5018  0.7076  1.3969
17991TIP3    H275389   6.254   1.417  17.137 -0.5383  1.3748  0.0492
17992TIP3   OH275390   2.512   2.127   0.204  0.3417 -0.1147  0.2540
17992TIP3    H175391   2.547   2.216   0.204 -0.7971  0.4494 -2.5609
17992TIP3    H275392   2.426   2.135   0.245  0.5918 -0.1179  0.7912
17993TIP3   OH275393   2.173   1.434  12.285 -0.1007 -0.2103 -0.1723
17993TIP3    H175394   2.115   1.358  12.289 -2.0137  1.2373  1.3545
17993TIP3    H275395   2.234   1.421  12.358  0.4143 -0.9051 -0.7207
17994TIP3   OH275396   0.579   3.819  16.547  0.1955  0.7488  0.1312
17994TIP3    H175397   0.495   3.861  16.563  0.6915  1.3515  1.2480
17994TIP3    H275398   0.562   3.725  16.560 -0.8368  0.5564 -2.0619
17995TIP3   OH275399   2.322   1.963   1.632 -0.1143 -0.0148 -0.4889
17995TIP3    H175400   2.283   2.005   1.555  0.4767  0.5873 -0.4652
17995TIP3    H275401   2.414   1.987   1.629  0.0056 -0.3650  0.1597
17996TIP3   OH275402   5.960   5.706   6.608 -0.2824  0.0055  0.0147
17996TIP3    H175403   6.051   5.713   6.636  0.2462 -2.0906 -0.9968
17996TIP3    H275404   5.917   5.660   6.680 -0.5154  0.7357  0.3605
17997TIP3   OH275405   1.294   2.120   4.940  0.1687 -0.1555 -0.4384
17997TIP3    H175406   1.276   2.148   5.030  0.9490  1.8910 -0.8663
17997TIP3    H275407   1.385   2.089   4.942 -1.1206 -4.5166  0.3733
17998TIP3   OH275408   0.450   4.446  11.945 -0.2313 -0.0364 -0.3848
17998TIP3    H175409   0.363   4.435  11.905 -1.9434 -0.1383  2.9876
17998TIP3    H275410   0.502   4.374  11.908 -1.1754  0.6425 -3.2979
17999TIP3   OH275411   5.196   2.279  15.857 -0.1774 -0.3156 -0.8018
17999TIP3    H175412   5.279   2.295  15.814  2.7771 -1.2938  3.8157
17999TIP3    H275413   5.170   2.365  15.893  2.7034 -0.8788  3.3538
18000TIP3   OH275414   0.342   6.530  16.367  0.1982 -0.2212 -0.2670
18000TIP3    H175415   0.306   6.503  16.282 -0.8191  1.4862 -0.4113
18000TIP3    H275416   0.433   6.553  16.347  0.8516 -2.5642 -0.3014
18001TIP3   OH275417   3.403   6.622  11.965  0.1491  0.2542  0.4405
18001TIP3    H175418   3.477   6.608  11.906 -0.0805 -0.1715  0.2517
18001TIP3    H275419   3.368   6.708  11.939 -1.7713 -1.1308 -2.0788
18002TIP3   OH275420   1.494   3.644  14.017  0.3649 -0.3085 -0.1601
18002TIP3    H175421   1.508   3.738  14.033  0.2860 -0.1748 -0.8716
18002TIP3    H275422   1.410   3.625  14.059  0.3076 -0.0296 -0.1453
18003TIP3   OH275423   5.886   4.256  15.061  0.7248  0.0008 -0.0985
18003TIP3    H175424   5.866   4.162  15.060  1.1189 -0.0981  0.6656
18003TIP3    H275425   5.821   4.294  15.120  1.5655 -0.0476  0.8948
18004TIP3   OH275426   0.949   3.854  11.794 -0.2635 -0.1871 -0.1562
18004TIP3    H175427   0.949   3.936  11.843 -1.4423 -0.4275  0.2817
18004TIP3    H275428   1.039   3.822  11.800 -0.4203 -0.3554  2.1452
18005TIP3   OH275429   0.322   4.634   3.888 -0.4641  0.2090 -0.4502
18005TIP3    H175430   0.313   4.675   3.802 -1.8509  1.0725  0.0580
18005TIP3    H275431   0.405   4.587   3.884 -1.0828 -0.8470 -2.6953
18006TIP3   OH275432   3.294   4.609  12.638  0.4882 -0.0037 -0.6351
18006TIP3    H175433   3.240   4.629  12.713 -0.1763 -0.2609 -1.0372
18006TIP3    H275434   3.294   4.514  12.632 -0.2157  0.0341 -1.4874
18007TIP3   OH275435   2.361   5.076   5.205 -0.0669  0.4502 -0.0908
18007TIP3    H175436   2.278   5.073   5.251  0.5329 -1.0632  0.9878
18007TIP3    H275437   2.338   5.083   5.113 -1.3977 -0.2852  0.1687
18008TIP3   OH275438   3.322   2.468   3.121  0.1444 -0.4285  0.6707
18008TIP3    H175439   3.328   2.523   3.043 -1.1887 -0.8810  0.2359
18008TIP3    H275440   3.406   2.483   3.166  1.7611 -1.5720 -1.7346
18009TIP3   OH275441   4.447   1.093   5.970 -0.4484 -0.4548  0.0372
18009TIP3    H175442   4.520   1.031   5.970 -0.0961 -0.0567  0.7559
18009TIP3    H275443   4.369   1.039   5.967 -0.1560 -0.9505  1.1603
18010TIP3   OH275444   0.281   0.583   4.124  0.4422  0.3320 -0.0690
18010TIP3    H175445   0.307   0.548   4.209 -2.4451 -0.0986  0.7192
18010TIP3    H275446   0.269   0.505   4.069 -0.4421  0.4221 -0.0131
18011TIP3   OH275447   1.885   4.736  15.741 -0.1591 -0.6750 -0.0168
18011TIP3    H175448   1.817   4.691  15.792  0.1596 -0.6607  0.4194
18011TIP3    H275449   1.967   4.710  15.782  0.1461 -1.2054 -0.9356
18012TIP3   OH275450   1.419   3.861  14.860  0.4245 -0.0338  0.4475
18012TIP3    H175451   1.501   3.895  14.825 -0.0955  0.1655 -0.6210
18012TIP3    H275452   1.420   3.886  14.953  0.2067  2.6666 -0.1953
18013TIP3   OH275453   2.047   4.319   6.117  0.3627 -0.2758  0.3996
18013TIP3    H175454   2.073   4.260   6.188  0.5482 -0.9877 -0.2468
18013TIP3    H275455   2.127   4.365   6.093  0.0260  0.9931  1.5586
18014TIP3   OH275456   4.970   1.193   1.320 -0.0413 -0.3384 -0.4500
18014TIP3    H175457   4.917   1.273   1.322 -1.7488 -1.4204 -0.0945
18014TIP3    H275458   4.918   1.131   1.270  0.1043 -1.9518  1.2752
18015TIP3   OH275459   2.026   5.222   4.098 -0.2739  0.4889 -0.6761
18015TIP3    H175460   2.001   5.254   4.185 -0.3226  0.5607 -0.7161
18015TIP3    H275461   2.103   5.168   4.113 -0.7862 -0.2022 -0.4709
18016TIP3   OH275462   2.050   4.498  17.174  0.1127  0.2492 -0.0677
18016TIP3    H175463   1.978   4.439  17.195  0.0347 -0.6252 -2.4889
18016TIP3    H275464   2.050   4.563  17.245 -2.8116  0.0799  0.1799
18017TIP3   OH275465   2.992   2.750   3.672  0.2554  0.3661 -0.5520
18017TIP3    H175466   2.962   2.789   3.591 -1.0706 -0.1324 -0.3228
18017TIP3    H275467   2.921   2.767   3.735  1.5134  1.2953  0.6822
18018TIP3   OH275468   3.495   6.148  11.646  0.0913 -0.1848  0.1509
18018TIP3    H175469   3.438   6.225  11.644  0.2543 -0.0625  0.1658
18018TIP3    H275470   3.530   6.142  11.557 -0.6936 -0.8313 -0.1300
18019TIP3   OH275471   3.903   6.558  12.947 -0.4076  0.1406 -0.3574
18019TIP3    H175472   3.860   6.502  12.882 -1.2881  0.7370 -0.3014
18019TIP3    H275473   3.896   6.646  12.911 -2.3901  0.7120  1.2796
18020TIP3   OH275474   4.049   0.573   5.103 -0.5894  0.2110 -0.6018
18020TIP3    H175475   4.119   0.637   5.110  0.6967 -1.1573 -0.3355
18020TIP3    H275476   4.081   0.510   5.038 -0.3796 -1.8138  1.3544
18021TIP3   OH275477   6.065   3.832   2.697  0.4580 -0.1095  0.2238
18021TIP3    H175478   6.149   3.788   2.683  1.2398  1.8741 -2.0978
18021TIP3    H275479   6.089   3.925   2.706 -1.3844  0.3092  1.3125
18022TIP3   OH275480   4.756   5.482  15.309 -0.8762  0.0483  0.8472
18022TIP3    H175481   4.742   5.429  15.230  0.5712  0.2940  0.3939
18022TIP3    H275482   4.697   5.556  15.298 -1.8083 -0.6845  0.7507
18023TIP3   OH275483   4.751   2.378  16.339 -0.0248  0.0305 -0.0882
18023TIP3    H175484   4.662   2.354  16.314  0.5812 -0.2997 -2.0944
18023TIP3    H275485   4.791   2.408  16.257  2.0745 -0.9541  0.5248
18024TIP3   OH275486   0.768   5.063   2.067  0.3359 -0.1022  0.2619
18024TIP3    H175487   0.846   5.044   2.016  0.5743 -0.2692  0.6842
18024TIP3    H275488   0.757   5.158   2.059  0.1062 -0.1809 -0.4659
18025TIP3   OH275489   2.956   3.640   5.814 -0.1391  0.3056  0.2632
18025TIP3    H175490   2.971   3.730   5.784  0.7526  0.4577  1.1115
18025TIP3    H275491   3.030   3.590   5.778 -0.2085  0.0681  0.4421
18026TIP3   OH275492   0.699   6.432  11.819  0.5470  0.3812 -0.4198
18026TIP3    H175493   0.621   6.410  11.767  0.3049  0.2460 -0.0105
18026TIP3    H275494   0.664   6.470  11.900  0.7686 -1.9356  0.8691
18027TIP3   OH275495   2.491   6.604   5.201 -0.1646 -0.0804  0.2918
18027TIP3    H175496   2.586   6.598   5.192 -0.1742  0.7975 -0.5629
18027TIP3    H275497   2.477   6.687   5.246 -0.6303  1.8546 -3.0721
18028TIP3   OH275498   5.028   6.715   2.298  0.7866 -0.1111  0.4540
18028TIP3    H175499   5.060   6.711   2.208  0.0308 -0.2502  0.1846
18028TIP3    H275500   5.106   6.733   2.351  1.0126  1.5997 -0.3766
18029TIP3   OH275501   2.127   0.010  14.369  0.2069 -0.1389  0.1598
18029TIP3    H175502   2.115  -0.040  14.450  0.5756 -0.0864  0.2497
18029TIP3    H275503   2.221   0.031  14.368  0.3277 -0.6593 -0.5789
18030TIP3   OH275504   3.306   6.719  15.409  0.2034 -0.0569 -0.1109
18030TIP3    H175505   3.222   6.721  15.453  0.3088 -0.3229  0.1062
18030TIP3    H275506   3.370   6.708  15.480  0.3208 -1.2345 -0.3818
18031TIP3   OH275507   5.950   6.337   0.321  0.1891  0.2232 -0.1583
18031TIP3    H175508   5.961   6.292   0.237 -2.1627 -0.0504 -0.4122
18031TIP3    H275509   5.861   6.314   0.349  0.8556  0.4335  2.3643
18032TIP3   OH275510   0.259   1.006   1.601  0.1886  0.5983 -0.1918
18032TIP3    H175511   0.219   0.921   1.583 -0.7917  0.4815  2.2607
18032TIP3    H275512   0.345   0.985   1.635  0.4123  0.6492 -0.7192
18033TIP3   OH275513   0.675   5.615   1.141 -0.1015  0.2742 -0.3040
18033TIP3    H175514   0.770   5.601   1.143 -0.1863 -0.3687 -0.4857
18033TIP3    H275515   0.642   5.543   1.087 -0.7019  0.4493 -0.1703
18034TIP3   OH275516   0.945   5.500   5.423  0.6166 -0.2454 -0.1268
18034TIP3    H175517   0.998   5.454   5.489  0.0035 -1.2725 -0.3235
18034TIP3    H275518   1.008   5.528   5.357  1.3467  1.4085  1.1884
18035TIP3   OH275519   4.774   3.458  10.486 -0.3059 -0.5665 -0.1693
18035TIP3    H175520   4.705   3.495  10.541  0.7878  1.8398 -0.2773
18035TIP3    H275521   4.765   3.363  10.497 -3.7059 -0.4100 -0.3251
18036TIP3   OH275522   4.695   5.662  12.257  0.3209  0.3893 -0.0029
18036TIP3    H175523   4.666   5.677  12.167 -2.4254  1.0104  0.9024
18036TIP3    H275524   4.617   5.676  12.311  1.1256 -2.7787  2.2723
18037TIP3   OH275525   6.540   6.268   1.240 -0.5737 -0.3015  0.1373
18037TIP3    H175526   6.634   6.283   1.244 -1.0071  3.0248  0.9714
18037TIP3    H275527   6.503   6.352   1.214 -3.4147 -1.0964  1.1749
18038TIP3   OH275528   5.572   0.090  16.557  0.6989 -0.7331 -0.4806
18038TIP3    H175529   5.553   0.173  16.599  3.5741  0.8999 -2.1051
18038TIP3    H275530   5.598   0.032  16.629  1.1435  0.5620  0.4350
18039TIP3   OH275531   1.601   4.666   3.285 -0.2122  0.6442 -0.0047
18039TIP3    H175532   1.546   4.731   3.329  0.7927  1.3689  0.2254
18039TIP3    H275533   1.667   4.642   3.350  1.7202  2.2582 -1.2665
18040TIP3   OH275534   5.297   2.946  15.426 -0.7844  0.1297 -0.4771
18040TIP3    H175535   5.314   2.889  15.352 -1.2331  0.0297 -0.5080
18040TIP3    H275536   5.245   3.018  15.390  0.0961  0.7698 -0.5176
18041TIP3   OH275537   0.210   2.782   2.570  0.2988 -0.4503 -0.1088
18041TIP3    H175538   0.296   2.824   2.562  0.7201 -1.5255 -1.8268
18041TIP3    H275539   0.227   2.690   2.553 -0.8062 -1.1961  2.3118
18042TIP3   OH275540   1.858   2.574  12.741 -0.3722 -0.2688  0.5120
18042TIP3    H175541   1.776   2.537  12.774  0.5876 -2.3214  0.7592
18042TIP3    H275542   1.831   2.641  12.679 -2.2652 -1.7510 -0.3630
18043TIP3   OH275543   5.123   0.899   2.710  0.4430  0.0619  0.1068
18043TIP3    H175544   5.096   0.985   2.677  0.2924 -0.8419 -2.3980
18043TIP3    H275545   5.219   0.901   2.706  0.6026  0.9065  2.4865
18044TIP3   OH275546   1.454   0.798   2.070 -0.2245  0.3264  0.2422
18044TIP3    H175547   1.542   0.780   2.039  0.0880  1.4770  0.4071
18044TIP3    H275548   1.464   0.815   2.164 -1.0932 -2.6448  0.9700
18045TIP3   OH275549   2.835   0.955   5.418  0.1139  0.4679  0.2530
18045TIP3    H175550   2.927   0.933   5.435  0.2735  0.7248 -0.2432
18045TIP3    H275551   2.821   1.039   5.461  0.5984  1.2607 -1.0826
18046TIP3   OH275552   3.765   2.538  13.769 -0.5806 -0.6216  0.2734
18046TIP3    H175553   3.756   2.446  13.742  0.3077 -0.9596  1.0666
18046TIP3    H275554   3.675   2.570  13.773 -0.8158 -0.8850 -1.8654
18047TIP3   OH275555   0.351   1.635  15.971 -0.3520 -0.2597 -0.3475
18047TIP3    H175556   0.271   1.609  15.927 -0.3677 -2.5317  0.8693
18047TIP3    H275557   0.329   1.636  16.064  1.0115 -0.9815  0.0203
18048TIP3   OH275558   3.525   4.906  16.494  0.3653 -0.5335 -0.4035
18048TIP3    H175559   3.470   4.941  16.563 -1.3517 -1.5330 -1.2010
18048TIP3    H275560   3.590   4.852  16.540 -0.7378 -1.1705  0.4461
18049TIP3   OH275561   3.773   4.070   2.761  0.2414 -0.8175 -0.0211
18049TIP3    H175562   3.713   4.006   2.724  0.6233 -0.4760 -1.2583
18049TIP3    H275563   3.857   4.053   2.717  0.5790 -0.0768  0.3193
18050TIP3   OH275564   3.268   5.680  15.836  0.0438  0.2357 -0.2550
18050TIP3    H175565   3.287   5.682  15.742 -0.1025 -1.8106 -0.3781
18050TIP3    H275566   3.176   5.706  15.842  0.0648  0.4100 -0.6707
18051TIP3   OH275567   2.589   3.390  11.388 -0.4636  0.1855  0.1651
18051TIP3    H175568   2.570   3.441  11.467  0.8437  0.1708  0.5179
18051TIP3    H275569   2.610   3.455  11.321  0.4115  0.1672  0.3989
18052TIP3   OH275570   1.781   1.336  13.898 -0.0080  0.2971  0.8774
18052TIP3    H175571   1.746   1.351  13.985  0.9867  0.4608  1.2581
18052TIP3    H275572   1.722   1.384  13.840 -1.3465 -0.7411  1.3216
18053TIP3   OH275573   3.460   3.379  10.538  0.2085 -0.3518 -0.4264
18053TIP3    H175574   3.479   3.445  10.472  2.3402 -1.3312 -0.8790
18053TIP3    H275575   3.371   3.350  10.519 -0.1669  1.2120 -1.2100
18054TIP3   OH275576   4.224   0.360  13.707 -0.2944 -0.2042  0.2974
18054TIP3    H175577   4.165   0.312  13.649 -0.3229  0.6377 -0.3739
18054TIP3    H275578   4.258   0.292  13.767  0.0832 -1.1675 -0.9685
18055TIP3   OH275579   3.969   1.919  16.351 -0.4255  0.6482  0.7318
18055TIP3    H175580   3.980   1.829  16.382 -1.3049  0.6577  1.1074
18055TIP3    H275581   3.882   1.920  16.310 -0.0065  1.0802 -0.1754
18056TIP3   OH275582   3.331   4.653   3.816  0.2780  0.3121 -0.5129
18056TIP3    H175583   3.383   4.655   3.897  0.7242 -0.6947 -0.7622
18056TIP3    H275584   3.346   4.566   3.780 -1.5164  0.0315 -0.6547
18057TIP3   OH275585   3.429   6.129  12.759  0.0209  0.0458 -0.0810
18057TIP3    H175586   3.417   6.034  12.757 -0.7062  0.1196  0.3429
18057TIP3    H275587   3.469   6.150  12.674  2.3020 -0.8920  0.6833
18058TIP3   OH275588   1.862   2.458  13.861 -0.3247 -0.6850  0.1319
18058TIP3    H175589   1.926   2.424  13.798 -0.8959  0.1911 -0.9711
18058TIP3    H275590   1.906   2.455  13.945  1.8092  1.4747 -0.8259
18059TIP3   OH275591   1.098   5.332   5.618  0.3781  0.3177  0.0105
18059TIP3    H175592   1.099   5.288   5.703  0.3138  0.6924  0.2088
18059TIP3    H275593   1.175   5.389   5.620  1.0016 -0.4795 -0.6193
18060TIP3   OH275594   6.034   4.525  11.313  0.0600 -0.1147 -0.5578
18060TIP3    H175595   5.949   4.541  11.271  0.3368 -0.7622 -1.3762
18060TIP3    H275596   6.098   4.546  11.246  0.4960 -1.8359 -0.7109
18061TIP3   OH275597   3.145   3.069  12.752 -0.1307 -0.0085  0.5907
18061TIP3    H175598   3.072   3.041  12.806  0.2762  1.0261  1.7207
18061TIP3    H275599   3.223   3.048  12.804  0.3152  0.1199 -0.0127
18062TIP3   OH275600   5.033   1.572  13.448  0.7009  0.7583  0.1865
18062TIP3    H175601   5.050   1.541  13.359  0.6122  1.2491 -0.0014
18062TIP3    H275602   4.946   1.611  13.444 -1.0760 -2.6576  1.3712
18063TIP3   OH275603   1.418   3.852   3.618 -0.4139  0.2214 -0.0773
18063TIP3    H175604   1.414   3.935   3.570  1.0899 -0.9012 -2.3410
18063TIP3    H275605   1.483   3.865   3.686  0.2230  0.7518 -0.7776
18064TIP3   OH275606   5.800   4.300   1.160  0.6553  0.9591 -0.7042
18064TIP3    H175607   5.778   4.388   1.191 -2.0601 -0.2408  1.1837
18064TIP3    H275608   5.742   4.286   1.084 -0.4503  0.1362  0.2502
18065TIP3   OH275609   0.778   6.502  16.833 -0.0054 -0.3080 -0.0498
18065TIP3    H175610   0.802   6.595  16.822  1.7942 -0.9483 -2.3560
18065TIP3    H275611   0.857   6.454  16.808 -0.9238 -2.4910  1.0234
18066TIP3   OH275612   1.810   6.118   3.650 -0.5857  0.1065  0.3286
18066TIP3    H175613   1.730   6.066   3.653 -0.7084  0.3319  1.4274
18066TIP3    H275614   1.825   6.144   3.741  1.5538 -1.1681  0.3943
18067TIP3   OH275615   5.719   2.069   4.109  0.2662  0.3216  0.1686
18067TIP3    H175616   5.660   2.144   4.101  0.5610  0.5325 -0.0517
18067TIP3    H275617   5.749   2.072   4.200 -0.2850  0.0431  0.3618
18068TIP3   OH275618   0.306   1.462   5.444  0.5026  0.2314 -0.0776
18068TIP3    H175619   0.252   1.532   5.481 -0.5825  0.3844 -1.8045
18068TIP3    H275620   0.244   1.391   5.428  1.1493 -0.2523 -0.4611
18069TIP3   OH275621   0.105   0.402   0.369  0.3622  0.3807 -0.0965
18069TIP3    H175622   0.135   0.328   0.421 -1.1954  0.9573  1.7379
18069TIP3    H275623   0.185   0.448   0.345  1.3079 -1.4226 -0.6263
18070TIP3   OH275624   4.658   2.805   3.888 -0.0051  0.3103 -0.1253
18070TIP3    H175625   4.592   2.741   3.860  2.2547 -1.4664 -1.7539
18070TIP3    H275626   4.696   2.767   3.967 -0.1663  0.8099  0.2012
18071TIP3   OH275627   0.319   2.322   5.322  0.0469  0.4478  0.1075
18071TIP3    H175628   0.324   2.377   5.243  2.3530 -0.2947 -0.3674
18071TIP3    H275629   0.392   2.353   5.376  1.5986 -2.1809 -0.2889
18072TIP3   OH275630   4.265   3.173  16.102 -0.3868  0.0349 -0.1517
18072TIP3    H175631   4.312   3.205  16.025 -1.0643 -0.2445 -0.6908
18072TIP3    H275632   4.279   3.078  16.100 -1.3974 -0.1087 -0.6074
18073TIP3   OH275633   6.000   5.277   4.417 -0.5590  0.2945 -0.2908
18073TIP3    H175634   6.034   5.308   4.333 -2.1355  2.4976 -0.2051
18073TIP3    H275635   5.982   5.184   4.404  0.5180  0.2968 -1.9418
18074TIP3   OH275636   4.691   0.130  16.401  0.0061 -0.2060 -0.2351
18074TIP3    H175637   4.699   0.174  16.317  0.1418 -1.1249 -0.7163
18074TIP3    H275638   4.773   0.082  16.411  0.3589  0.5941  0.8388
18075TIP3   OH275639   2.307   2.806   2.709  0.4082  0.3834 -0.2708
18075TIP3    H175640   2.278   2.755   2.784 -0.1530 -0.0124 -0.7481
18075TIP3    H275641   2.403   2.807   2.716  0.3524  0.4826  0.5260
18076TIP3   OH275642   5.303   5.031  17.164 -0.0629  0.0534 -0.2785
18076TIP3    H175643   5.394   5.057  17.147  0.3708 -0.6684  0.8729
18076TIP3    H275644   5.272   4.997  17.080  0.7323  0.2725 -0.6710
18077TIP3   OH275645   4.358   1.287  14.592  0.6490 -0.7490  0.0600
18077TIP3    H175646   4.433   1.346  14.586  0.5680 -0.6579 -0.0763
18077TIP3    H275647   4.363   1.250  14.680  1.0453 -1.0054 -0.0683
18078TIP3   OH275648   4.799   0.874   4.193 -0.8712  0.2162  0.2859
18078TIP3    H175649   4.788   0.955   4.142 -0.3585 -0.0095 -0.1837
18078TIP3    H275650   4.884   0.840   4.167 -2.2106 -1.9661 -1.6253
18079TIP3   OH275651   2.060   2.918  11.594 -0.9789 -0.6569 -0.1468
18079TIP3    H175652   1.981   2.970  11.610 -1.0866 -0.4950 -1.1375
18079TIP3    H275653   2.097   2.955  11.514  0.3024 -0.4990  0.5089
18080TIP3   OH275654   1.899   4.194   4.554  0.2231  0.3687  0.4953
18080TIP3    H175655   1.905   4.181   4.460 -1.8761 -2.4787  0.6009
18080TIP3    H275656   1.973   4.146   4.590 -1.1199 -1.9465  0.3597
18081TIP3   OH275657   5.124   0.039   2.804 -0.0160 -0.3037 -0.3206
18081TIP3    H175658   5.160  -0.050   2.807  1.7297  0.3757  0.3761
18081TIP3    H275659   5.104   0.053   2.712 -1.9533 -1.9837 -0.2427
18082TIP3   OH275660   6.287   2.100  13.757 -0.1680 -0.0239 -0.1625
18082TIP3    H175661   6.215   2.163  13.758 -0.6512 -0.4867 -1.9256
18082TIP3    H275662   6.244   2.014  13.755  0.4205 -0.3162 -0.6877
18083TIP3   OH275663   5.816   5.697   5.315  0.0731 -0.4028 -0.3549
18083TIP3    H175664   5.797   5.604   5.300 -0.4823 -0.9754  3.1668
18083TIP3    H275665   5.745   5.743   5.270  0.0542 -1.6493 -1.7102
18084TIP3   OH275666   4.140   1.511   3.412  0.5100 -0.5458 -0.4686
18084TIP3    H175667   4.172   1.465   3.489 -0.7202 -0.1728  0.2803
18084TIP3    H275668   4.166   1.454   3.339  0.3616 -1.6657  0.3197
18085TIP3   OH275669   6.755   2.048  12.161 -0.1233  0.2435 -0.1186
18085TIP3    H175670   6.669   2.060  12.121 -1.4282 -1.7835  1.8455
18085TIP3    H275671   6.776   1.956  12.145  0.3787 -0.0032  1.7435
18086TIP3   OH275672   1.752   3.583  16.838 -0.0481 -0.3447  0.3850
18086TIP3    H175673   1.677   3.571  16.780 -0.2869 -1.3512  0.8865
18086TIP3    H275674   1.824   3.537  16.794  0.2530  0.4785 -0.0131
18087TIP3   OH275675   4.739   2.384  14.189  0.1664 -0.4602  0.4700
18087TIP3    H175676   4.807   2.420  14.133 -0.3706 -0.6945 -0.3506
18087TIP3    H275677   4.768   2.404  14.278  0.6878  0.5416  0.0942
18088TIP3   OH275678   1.192   5.832  13.079 -0.0270 -0.5533  0.1688
18088TIP3    H175679   1.266   5.778  13.049 -1.5355 -2.4751 -0.3292
18088TIP3    H275680   1.223   5.922  13.071  3.0854 -1.2777  2.1979
18089TIP3   OH275681   0.031   2.766   0.277 -0.1757  0.2720  0.1979
18089TIP3    H175682   0.108   2.713   0.256  0.8622  1.2308  1.3808
18089TIP3    H275683   0.044   2.791   0.369 -1.7911  0.6590  0.3501
18090TIP3   OH275684   0.880   4.263   3.133  0.1737 -0.0368  0.5191
18090TIP3    H175685   0.949   4.205   3.101 -0.2016 -0.2765  0.1211
18090TIP3    H275686   0.912   4.351   3.116 -0.9193 -0.1247 -2.6599
18091TIP3   OH275687   2.085   3.200   4.078  0.3316 -0.2788 -0.2636
18091TIP3    H175688   2.021   3.179   4.146 -0.3045 -0.0468 -0.7761
18091TIP3    H275689   2.165   3.156   4.105  0.1281 -0.0555  0.7103
18092TIP3   OH275690   2.804   5.871  15.317  0.5494 -0.6969  0.5835
18092TIP3    H175691   2.731   5.834  15.366 -0.1017 -1.9154 -1.2271
18092TIP3    H275692   2.803   5.965  15.338 -0.8275 -0.8890  1.4401
18093TIP3   OH275693   0.242   5.939  15.267 -0.4690  0.2381 -0.0455
18093TIP3    H175694   0.314   6.002  15.274  0.4418 -0.8245  0.6329
18093TIP3    H275695   0.164   5.993  15.255  0.3718  1.4528 -0.2766
18094TIP3   OH275696   3.146   0.944  14.526 -0.5347 -0.2099 -0.1011
18094TIP3    H175697   3.098   0.903  14.453 -0.8407  1.5819 -0.9691
18094TIP3    H275698   3.237   0.947  14.495 -0.1074 -2.1082  0.8571
18095TIP3   OH275699   1.595   2.136  17.092  0.2954 -0.2035  0.0251
18095TIP3    H175700   1.591   2.089  17.175  1.2131 -0.6557 -0.1770
18095TIP3    H275701   1.688   2.141  17.072  0.2179  1.5559 -0.0433
18096TIP3   OH275702   2.283   4.602  12.700  0.2067  0.2928  0.1792
18096TIP3    H175703   2.188   4.607  12.702  0.2185  0.3183  1.6951
18096TIP3    H275704   2.302   4.529  12.641 -0.7581  0.0703  0.1331
18097TIP3   OH275705   2.513   5.667   5.642 -0.2059  0.4424  0.3397
18097TIP3    H175706   2.428   5.711   5.653 -0.6219 -0.6884  2.0282
18097TIP3    H275707   2.575   5.739   5.629 -1.2701  1.3633  0.1725
18098TIP3   OH275708   4.100   5.803   2.021  0.5136  0.6028  0.4879
18098TIP3    H175709   4.175   5.766   2.066 -1.3944 -0.9847  2.6131
18098TIP3    H275710   4.098   5.760   1.936  0.3557 -1.6653  1.5734
18099TIP3   OH275711   6.290   5.424  13.620 -0.1091 -0.6612  0.9510
18099TIP3    H175712   6.335   5.503  13.651 -1.7909  0.3750  0.9042
18099TIP3    H275713   6.331   5.405  13.536 -0.2352  0.7133  0.5420
18100TIP3   OH275714   2.855   6.180  13.660  0.1843  0.1005  0.2322
18100TIP3    H175715   2.835   6.086  13.665  2.2050 -0.3634  0.5235
18100TIP3    H275716   2.823   6.207  13.574 -2.9709 -0.1571  1.2165
18101TIP3   OH275717   6.050   3.857   1.802 -0.1350  0.6127 -0.9242
18101TIP3    H175718   6.079   3.814   1.722 -1.6879 -0.4241 -0.9649
18101TIP3    H275719   5.956   3.838   1.807 -0.2979  1.6380  0.5407
18102TIP3   OH275720   3.119   6.141   1.742  0.1027 -0.5021 -0.5826
18102TIP3    H175721   3.044   6.197   1.761  1.2561  2.1282 -3.0730
18102TIP3    H275722   3.082   6.052   1.738 -2.6558  0.5543 -0.6204
18103TIP3   OH275723   0.133   3.144   3.081  0.0095  1.0177  0.0575
18103TIP3    H175724   0.148   3.172   2.991 -1.1534  1.7115  0.0546
18103TIP3    H275725   0.083   3.216   3.120 -2.2491 -0.5793  0.3208
18104TIP3   OH275726   1.033   2.792   4.371 -0.1882 -0.6575  0.4329
18104TIP3    H175727   0.996   2.807   4.458  0.2184  1.6764  0.2593
18104TIP3    H275728   1.123   2.823   4.377 -0.2470 -0.1387 -0.9026
18105TIP3   OH275729   0.843   0.941  11.870  0.7478 -0.1209  0.1410
18105TIP3    H175730   0.867   0.981  11.787  0.9180  1.7172  1.0269
18105TIP3    H275731   0.898   0.862  11.875  1.2184  0.1032 -1.1773
18106TIP3   OH275732   1.018   6.335   1.434  0.1135  0.5788 -0.4797
18106TIP3    H175733   1.086   6.323   1.368  0.8269  0.4236  0.2631
18106TIP3    H275734   1.016   6.430   1.449 -0.4689  0.6760 -1.1504
18107TIP3   OH275735   5.142   1.362   0.510  0.1859  0.1013 -0.7934
18107TIP3    H175736   5.214   1.422   0.492  0.4361 -0.3867 -1.4645
18107TIP3    H275737   5.088   1.408   0.575  1.4124  0.2077  0.1887
18108TIP3   OH275738   1.849   4.927  13.725  0.2030  0.3460 -0.0631
18108TIP3    H175739   1.855   5.001  13.785  1.4186 -0.3463  0.6949
18108TIP3    H275740   1.755   4.905  13.725  0.1270  0.5313  1.3873
18109TIP3   OH275741   1.496   5.335  12.582  0.8403 -0.4639 -0.3899
18109TIP3    H175742   1.412   5.379  12.598  1.1549 -0.1976  0.5751
18109TIP3    H275743   1.493   5.311  12.490 -0.6725 -1.2420 -0.1668
18110TIP3   OH275744   3.295   2.662  13.656 -0.1859 -0.2335  0.2253
18110TIP3    H175745   3.273   2.692  13.744  0.9792 -1.3852  0.9350
18110TIP3    H275746   3.382   2.699  13.639  0.0929 -0.9707  0.0269
18111TIP3   OH275747   0.763   5.191   5.618 -0.0686  0.0817  0.1292
18111TIP3    H175748   0.769   5.109   5.569  1.2868 -0.0296  0.4419
18111TIP3    H275749   0.831   5.247   5.580  0.6278  0.1941  1.4654
18112TIP3   OH275750   3.279   0.249   6.508  0.3691 -0.4838 -0.3780
18112TIP3    H175751   3.219   0.311   6.548 -1.1083 -1.1885 -1.3945
18112TIP3    H275752   3.273   0.171   6.564 -1.0818 -1.1806 -1.4158
18113TIP3   OH275753   0.691   3.073   2.959  0.2289  1.0848  0.1853
18113TIP3    H175754   0.779   3.084   2.925  0.5006  0.0827  0.5130
18113TIP3    H275755   0.646   3.021   2.892 -0.0516  1.4141  0.1147
18114TIP3   OH275756   1.619   5.405  16.219 -0.0813  0.3203  0.4473
18114TIP3    H175757   1.705   5.365  16.232  0.7578  2.0579  0.4803
18114TIP3    H275758   1.566   5.335  16.181  1.5578 -0.5893 -0.2859
18115TIP3   OH275759   0.040   0.239   2.932 -0.3216 -0.1982 -0.1141
18115TIP3    H175760   0.066   0.160   2.885 -0.7054 -0.1331 -0.4416
18115TIP3    H275761  -0.030   0.277   2.878 -1.3183 -0.5353  0.9039
18116TIP3   OH275762   3.716   5.627   6.276 -0.4583 -0.1628 -0.5351
18116TIP3    H175763   3.735   5.568   6.350 -1.5117  0.3736  0.1962
18116TIP3    H275764   3.646   5.684   6.309 -2.2274 -1.0600 -2.5166
18117TIP3   OH275765   3.930   5.887  12.243 -0.0428 -0.7966 -0.3422
18117TIP3    H175766   3.966   5.962  12.197 -0.4718  0.6573  1.5449
18117TIP3    H275767   3.873   5.844  12.179 -1.3987  1.7019 -0.9523
18118TIP3   OH275768   1.204   1.581   4.264  0.1407  0.4424  0.4738
18118TIP3    H175769   1.157   1.635   4.201 -0.7950  0.7582  1.4117
18118TIP3    H275770   1.146   1.578   4.340  1.3504  0.2691  1.4091
18119TIP3   OH275771   2.845   0.946  14.895  0.5021 -0.0011 -0.0456
18119TIP3    H175772   2.892   0.952  14.812 -0.5313 -0.4181 -0.6818
18119TIP3    H275773   2.888   0.875  14.942  0.7896 -0.0793 -0.4291
18120TIP3   OH275774   1.649   1.024  11.499 -0.3329  0.1208 -0.3333
18120TIP3    H175775   1.605   0.953  11.547  0.0033  0.6278  0.7577
18120TIP3    H275776   1.578   1.067  11.452 -0.5164 -1.0459 -1.1686
18121TIP3   OH275777   5.513   5.857  14.231 -0.2913 -0.3374 -0.3669
18121TIP3    H175778   5.527   5.857  14.136  0.4562  0.2132 -0.2661
18121TIP3    H275779   5.599   5.880  14.268 -0.3572 -1.3511  0.4810
18122TIP3   OH275780   4.056   4.993   1.159  0.2647  0.2579  0.2344
18122TIP3    H175781   4.011   4.915   1.190  2.5444 -0.7103  1.3555
18122TIP3    H275782   4.112   4.962   1.088 -0.6280  1.3977 -1.0190
18123TIP3   OH275783   2.460   4.163  14.524 -0.0771  0.7393  0.0374
18123TIP3    H175784   2.473   4.248  14.566 -0.2711  1.3991 -1.1906
18123TIP3    H275785   2.412   4.183  14.443 -1.2556 -0.6820  0.3432
18124TIP3   OH275786   4.233   2.819   3.136  0.7853 -0.4657 -0.1123
18124TIP3    H175787   4.253   2.836   3.044  1.0786  0.8902  0.1812
18124TIP3    H275788   4.314   2.841   3.183  0.2098  0.2406  0.5889
18125TIP3   OH275789   1.900   0.822   1.365 -0.5383  0.6263  0.1437
18125TIP3    H175790   1.931   0.912   1.357  0.1811  0.4425  0.7136
18125TIP3    H275791   1.942   0.789   1.445 -0.4489 -0.3483 -0.2850
18126TIP3   OH275792   6.669   4.154   4.704 -0.1447  0.6606  0.1098
18126TIP3    H175793   6.718   4.236   4.718  1.4282 -0.3959  1.1779
18126TIP3    H275794   6.624   4.139   4.787  1.1454 -0.5104  0.6394
18127TIP3   OH275795   2.238   2.324   5.141  0.1554  0.1105 -1.1999
18127TIP3    H175796   2.289   2.248   5.169 -1.6830 -0.6191  0.3735
18127TIP3    H275797   2.153   2.288   5.117 -0.5748  1.6171 -0.9801
18128TIP3   OH275798   5.867   0.843  16.051 -0.0536  0.2157  0.3336
18128TIP3    H175799   5.932   0.798  16.105  0.6549  2.2050  1.2459
18128TIP3    H275800   5.846   0.781  15.981  0.4157 -1.6986  1.8359
18129TIP3   OH275801   3.221   4.015   4.657  0.0753 -0.1865  0.0282
18129TIP3    H175802   3.147   4.034   4.600  0.8166 -3.0892 -2.1616
18129TIP3    H275803   3.204   3.928   4.691  1.7357 -0.2897  0.7097
18130TIP3   OH275804   3.443   6.169  13.678 -0.2071  0.5149  0.8596
18130TIP3    H175805   3.376   6.228  13.644 -2.7143 -2.8491 -0.6357
18130TIP3    H275806   3.402   6.129  13.755  1.3040  0.4455  1.6695
18131TIP3   OH275807   2.374   1.498  14.019  0.2784 -0.0995 -0.0008
18131TIP3    H175808   2.377   1.422  13.961 -2.5179  0.6732 -1.3299
18131TIP3    H275809   2.418   1.567  13.970 -0.5374  0.0916 -0.4879
18132TIP3   OH275810   3.194   1.511   5.783  0.1453 -0.4202 -0.1023
18132TIP3    H175811   3.290   1.504   5.782  0.4936  2.2912  1.7710
18132TIP3    H275812   3.173   1.573   5.713 -0.2826 -1.2380 -0.7057
18133TIP3   OH275813   0.233   3.487   3.065  0.1645  0.0322 -0.4902
18133TIP3    H175814   0.312   3.447   3.100 -1.8208 -1.7814  2.3706
18133TIP3    H275815   0.202   3.425   2.998 -0.3500 -0.8101  0.5017
18134TIP3   OH275816   3.075   2.622   0.999  0.5172  0.2444  0.1682
18134TIP3    H175817   3.062   2.636   1.092  1.4334  1.1434  0.1748
18134TIP3    H275818   3.105   2.531   0.992  2.4336  0.7760  0.9789
18135TIP3   OH275819   3.606   0.597   1.691  0.3405  0.0834  0.2650
18135TIP3    H175820   3.577   0.508   1.708  0.5597  0.0417  0.4256
18135TIP3    H275821   3.674   0.613   1.757  0.7403  0.1445 -0.1507
18136TIP3   OH275822   5.808   5.875  12.086  0.0473  0.1614 -0.0499
18136TIP3    H175823   5.786   5.787  12.117 -1.1742  0.4723  0.0439
18136TIP3    H275824   5.759   5.884  12.004  1.7278  0.0505 -1.1051
18137TIP3   OH275825   1.524   5.084   4.384 -0.6440 -0.1022  0.4014
18137TIP3    H175826   1.433   5.111   4.367 -0.2499 -0.0697 -2.0063
18137TIP3    H275827   1.536   5.006   4.329  1.5830  1.5555 -1.6841
18138TIP3   OH275828   6.183   3.381  16.465 -0.4317  0.3429 -0.0452
18138TIP3    H175829   6.229   3.462  16.483 -0.0677 -0.0343  0.8034
18138TIP3    H275830   6.205   3.360  16.374  0.5255  0.5245  0.1315
18139TIP3   OH275831   0.300   1.104   4.252 -0.3254 -0.1202 -0.0500
18139TIP3    H175832   0.232   1.071   4.310 -1.3891 -1.5465 -1.9852
18139TIP3    H275833   0.259   1.176   4.205 -0.2217 -0.4347 -0.6302
18140TIP3   OH275834   1.746   1.995   0.311  0.1508 -0.5549 -0.0599
18140TIP3    H175835   1.671   2.013   0.254  0.1016  1.8786  0.6574
18140TIP3    H275836   1.797   2.076   0.311  1.4591 -1.3099  1.4225
18141TIP3   OH275837   4.290   0.736   5.096 -0.1610 -0.1509 -0.5353
18141TIP3    H175838   4.371   0.702   5.059  1.0357  2.8206 -0.8862
18141TIP3    H275839   4.273   0.817   5.048 -1.9437  0.6079  1.2209
18142TIP3   OH275840   4.783   1.665   0.665 -0.1130 -0.3206  0.0840
18142TIP3    H175841   4.792   1.749   0.710  0.0545 -0.0138 -0.5071
18142TIP3    H275842   4.730   1.684   0.588  3.6348  0.3192 -2.6446
18143TIP3   OH275843   3.004   3.888  11.210  0.5326 -0.5790  0.5640
18143TIP3    H175844   3.066   3.853  11.146 -0.4726 -0.2162 -0.6508
18143TIP3    H275845   2.938   3.934  11.158  1.0376  1.9893  1.9887
18144TIP3   OH275846   5.659   0.971   3.379 -0.0782 -0.5163  0.8798
18144TIP3    H175847   5.696   1.014   3.302 -1.4754 -0.2857  0.3213
18144TIP3    H275848   5.721   0.993   3.449  0.4320  0.5282  0.1408
18145TIP3   OH275849   4.814   1.731   1.244 -0.4767 -0.1320  0.0715
18145TIP3    H175850   4.729   1.710   1.206 -0.9866 -1.3885  1.7450
18145TIP3    H275851   4.800   1.814   1.290 -0.5645  0.0913 -0.3592
18146TIP3   OH275852   0.235   0.037  11.913 -0.1455  0.8503 -0.4641
18146TIP3    H175853   0.318   0.024  11.867 -1.3991 -1.4652 -2.2656
18146TIP3    H275854   0.173   0.064  11.846 -1.2827  0.7586  0.5024
18147TIP3   OH275855   0.673   6.728  11.121 -0.4209  0.0587 -0.0324
18147TIP3    H175856   0.768   6.732  11.134 -0.6199 -1.1330  2.1678
18147TIP3    H275857   0.663   6.694  11.032  1.2994 -2.6895  0.7078
18148TIP3   OH275858   5.819   6.646   4.757  0.1861 -0.1339 -0.2169
18148TIP3    H175859   5.857   6.579   4.701  1.5121  0.3755  0.0414
18148TIP3    H275860   5.894   6.699   4.786 -0.4459 -0.3806  2.0423
18149TIP3   OH275861   0.315   3.104   4.046  0.4274 -0.1735  0.5018
18149TIP3    H175862   0.299   3.031   3.987  0.0676  1.0483 -0.9942
18149TIP3    H275863   0.400   3.086   4.086  0.3559 -1.3640  0.1309
18150TIP3   OH275864   5.201   6.226  12.971  0.2056  0.3067  0.6071
18150TIP3    H175865   5.105   6.218  12.976  0.2669 -0.1612  1.1594
18150TIP3    H275866   5.222   6.198  12.882 -0.1163 -0.2573  0.7015
18151TIP3   OH275867   6.602   0.616  16.293 -0.0311  0.4472  0.0969
18151TIP3    H175868   6.684   0.602  16.340  0.0082  1.1607  0.2598
18151TIP3    H275869   6.571   0.702  16.324 -0.3473  0.6251 -0.6756
18152TIP3   OH275870   5.736   2.673  16.701  0.6683  0.0495 -0.1550
18152TIP3    H175871   5.788   2.665  16.780 -1.5089  2.6739  1.7315
18152TIP3    H275872   5.781   2.741  16.650  0.8956 -0.1129 -0.1752
18153TIP3   OH275873   3.185   4.498  13.980 -0.9350  0.1435 -0.1037
18153TIP3    H175874   3.264   4.552  13.989  0.6179 -2.0018 -0.1326
18153TIP3    H275875   3.150   4.520  13.894  1.0446 -0.5872 -1.1551
18154TIP3   OH275876   3.859   0.939  14.343 -0.2721 -0.3040 -0.6125
18154TIP3    H175877   3.899   0.914  14.426 -0.4416 -0.3634 -0.5483
18154TIP3    H275878   3.803   1.013  14.365  0.0222 -0.0345 -0.7538
18155TIP3   OH275879   1.553   1.660   3.552 -0.4635 -0.4313 -0.2726
18155TIP3    H175880   1.522   1.685   3.639 -0.2064  1.5779 -0.7222
18155TIP3    H275881   1.568   1.565   3.559  0.4035 -0.2049  2.1369
18156TIP3   OH275882   1.927   6.558  15.044  0.1020  0.6212  0.7147
18156TIP3    H175883   1.867   6.522  14.979 -0.1095 -1.3165  1.9224
18156TIP3    H275884   1.944   6.647  15.013 -0.7786  0.1190 -1.4266
18157TIP3   OH275885   0.255   2.605   1.861  0.0875 -0.3043 -0.3770
18157TIP3    H175886   0.183   2.544   1.877  0.7163 -1.7855 -2.6971
18157TIP3    H275887   0.216   2.675   1.808  0.1341 -0.6432 -0.8692
18158TIP3   OH275888   1.580   3.957  12.226  0.1624  0.0154 -0.6013
18158TIP3    H175889   1.653   3.968  12.286  0.1413 -1.0778 -0.3605
18158TIP3    H275890   1.511   4.014  12.261 -0.8214 -2.5749  2.0521
18159TIP3   OH275891   3.693   1.077   2.331  0.1623 -0.2582 -0.1686
18159TIP3    H175892   3.679   0.993   2.374 -1.1083 -0.0392 -0.1344
18159TIP3    H275893   3.615   1.089   2.276 -0.3388  1.5463  0.8821
18160TIP3   OH275894   1.087   2.959   1.854 -0.1785 -0.4344  0.2113
18160TIP3    H175895   1.099   2.864   1.847 -1.0638 -0.4471 -1.9428
18160TIP3    H275896   1.035   2.970   1.934 -0.0136 -1.7548  0.5304
18161TIP3   OH275897   4.204   6.113   5.562  0.2530  0.0110 -0.4145
18161TIP3    H175898   4.163   6.028   5.549  0.2715 -0.1710  0.5815
18161TIP3    H275899   4.133   6.170   5.589  0.5369 -0.1744  0.7921
18162TIP3   OH275900   3.245   1.305  11.415 -0.0209 -0.2272 -0.5508
18162TIP3    H175901   3.256   1.370  11.484  0.8391 -0.0927 -0.8067
18162TIP3    H275902   3.161   1.263  11.435  0.5577 -0.7256  1.0091
18163TIP3   OH275903   0.103   5.051   0.651  0.2357  0.0902 -0.2136
18163TIP3    H175904   0.188   5.010   0.668  0.9786  1.7474  0.2357
18163TIP3    H275905   0.049   4.980   0.616  1.5422 -1.1927  0.2660
18164TIP3   OH275906   5.150   6.123   0.209  0.0356  0.3195 -0.1699
18164TIP3    H175907   5.146   6.069   0.130 -0.4362 -1.0304  0.7385
18164TIP3    H275908   5.243   6.123   0.232 -0.0039 -0.3995  0.0110
18165TIP3   OH275909   5.135   5.377  14.039  0.0735 -0.1480 -0.1766
18165TIP3    H175910   5.155   5.389  14.132  0.9666  0.4286 -0.4366
18165TIP3    H275911   5.090   5.293  14.036  0.0523 -0.1863  0.7782
18166TIP3   OH275912   1.948   5.053  13.116 -0.2525 -0.7588  0.3951
18166TIP3    H175913   2.018   5.111  13.147 -0.2085  0.0556 -1.1172
18166TIP3    H275914   1.990   4.969  13.102  1.3674  0.4677 -3.5825
18167TIP3   OH275915   4.854   6.368   3.847 -0.2121 -0.0974  0.0278
18167TIP3    H175916   4.815   6.320   3.774 -1.2946  0.7302  0.0403
18167TIP3    H275917   4.928   6.314   3.874 -0.3341 -0.8639 -1.0941
18168TIP3   OH275918   0.491   4.628  14.524 -0.3088 -0.5155  0.1530
18168TIP3    H175919   0.564   4.584  14.479 -0.6204 -0.3961 -0.4791
18168TIP3    H275920   0.453   4.685  14.457  1.2487  2.2005  1.4463
18169TIP3   OH275921   2.247   4.725  14.583 -0.2252 -0.5595 -0.4947
18169TIP3    H175922   2.273   4.691  14.668  0.8145  1.3670  0.0237
18169TIP3    H275923   2.153   4.706  14.576 -1.0497  1.8395  2.4205
18170TIP3   OH275924   2.699   3.317   5.435 -0.3780  0.1881  0.0851
18170TIP3    H175925   2.786   3.323   5.395  1.0066 -2.7679  2.2655
18170TIP3    H275926   2.686   3.402   5.478  1.4619  0.6840 -0.2582
18171TIP3   OH275927   0.949   0.231   5.111 -0.1675  0.2458  0.5360
18171TIP3    H175928   1.006   0.155   5.122 -1.3739 -0.7597  0.0694
18171TIP3    H275929   0.888   0.225   5.184 -0.2953  0.7531  0.4720
18172TIP3   OH275930   5.642   0.670  16.205  0.8941  0.0600 -0.6526
18172TIP3    H175931   5.708   0.734  16.231  1.9910 -1.5041  0.6346
18172TIP3    H275932   5.575   0.677  16.272  1.1920 -0.3852 -0.3067
18173TIP3   OH275933   3.522   1.356   4.648  0.3944  0.2601 -0.0554
18173TIP3    H175934   3.562   1.331   4.565  0.2416  0.7194 -0.2701
18173TIP3    H275935   3.544   1.284   4.708  4.4674  1.9491  0.8207
18174TIP3   OH275936   5.406   0.103   3.859 -0.4498 -0.0894 -0.7060
18174TIP3    H175937   5.459   0.134   3.786 -0.4958  1.0200 -0.2867
18174TIP3    H275938   5.347   0.038   3.820 -0.1746  0.1654 -1.5658
18175TIP3   OH275939   1.627   5.182  14.569  0.7051 -0.2069  0.4192
18175TIP3    H175940   1.678   5.236  14.508 -0.4316 -0.6123 -0.9280
18175TIP3    H275941   1.627   5.095  14.530 -0.8768 -0.2508  0.4484
18176TIP3   OH275942   2.547   5.748   6.248 -0.4883  0.1400  0.1083
18176TIP3    H175943   2.562   5.700   6.167 -0.2427  0.7054 -0.1877
18176TIP3    H275944   2.456   5.728   6.271 -0.4778 -0.2326 -0.1618
18177TIP3   OH275945   1.107   4.599  12.573  0.0126  0.0981 -0.1423
18177TIP3    H175946   1.168   4.537  12.535 -1.0583 -0.2116 -1.4156
18177TIP3    H275947   1.089   4.564  12.660  1.6275  0.2083  0.2755
18178TIP3   OH275948   6.397   3.680  13.395 -0.0893 -0.0744 -0.2740
18178TIP3    H175949   6.350   3.620  13.453  2.3703 -0.4641  1.4257
18178TIP3    H275950   6.435   3.746  13.453 -0.1713  1.4028 -1.8040
18179TIP3   OH275951   0.282   0.805   4.345 -0.1049 -0.0522  0.2488
18179TIP3    H175952   0.253   0.791   4.255  1.1242  1.2677 -0.3885
18179TIP3    H275953   0.358   0.748   4.355  2.3398  2.7466 -0.9924
18180TIP3   OH275954   4.603   6.383   5.675  0.1755  0.1769  0.2740
18180TIP3    H175955   4.600   6.431   5.592 -0.8514 -0.3386 -0.0013
18180TIP3    H275956   4.528   6.323   5.671  1.6604 -1.7819  0.4084
18181TIP3   OH275957   3.306   2.608   3.398  0.2704  0.3316 -0.3212
18181TIP3    H175958   3.344   2.647   3.319  2.4320 -1.1751 -0.1266
18181TIP3    H275959   3.381   2.593   3.456 -0.9648 -0.6295  1.1289
18182TIP3   OH275960   6.584   0.347   4.534 -0.3763 -0.5968 -0.5574
18182TIP3    H175961   6.577   0.362   4.439  1.4880  0.2777 -0.6060
18182TIP3    H275962   6.587   0.252   4.543  0.9155 -0.6770 -1.5499
18183TIP3   OH275963   3.257   3.255   4.992 -0.1061  0.1468  0.4720
18183TIP3    H175964   3.231   3.192   5.060  0.1934 -0.2751  0.1980
18183TIP3    H275965   3.278   3.201   4.916 -0.7315  0.6381 -0.0603
18184TIP3   OH275966   4.612   0.723  14.622  0.2024  0.1711  0.4298
18184TIP3    H175967   4.523   0.753  14.640  0.7521  2.9157 -0.7872
18184TIP3    H275968   4.609   0.693  14.531  0.3177 -0.6577  0.6973
18185TIP3   OH275969   6.490   6.098  14.413 -0.1598  0.2094  0.8003
18185TIP3    H175970   6.460   6.018  14.457 -1.3312  0.4267  0.4314
18185TIP3    H275971   6.496   6.163  14.482 -0.7446  0.2075  0.8586
18186TIP3   OH275972   4.540   0.291  16.990 -0.0021 -0.4568 -0.5382
18186TIP3    H175973   4.519   0.243  16.910 -2.1103 -1.0821  0.3136
18186TIP3    H275974   4.523   0.383  16.968  1.0933 -0.4096 -1.2751
18187TIP3   OH275975   3.383   1.225  12.294 -0.4716  0.4678 -0.3725
18187TIP3    H175976   3.394   1.180  12.377  0.4743 -2.6308 -2.0072
18187TIP3    H275977   3.469   1.264  12.276 -0.5063  0.6263 -0.2023
18188TIP3   OH275978   1.507   5.704   5.088 -0.6526  0.6025 -0.1199
18188TIP3    H175979   1.505   5.687   4.994  0.6712  1.0669 -0.2505
18188TIP3    H275980   1.425   5.751   5.106 -0.9046  0.5254 -1.0430
18189TIP3   OH275981   5.175   3.391  16.760 -0.0876 -0.9776 -0.1115
18189TIP3    H175982   5.175   3.385  16.856 -1.1688  2.2136  0.1734
18189TIP3    H275983   5.100   3.338  16.733 -1.3763  0.1952  1.0366
18190TIP3   OH275984   2.276   2.735   4.802 -0.6250 -0.1636 -0.0635
18190TIP3    H175985   2.248   2.783   4.880  0.0287  0.5138 -0.2264
18190TIP3    H275986   2.372   2.738   4.805 -0.5820  0.4979 -1.2461
18191TIP3   OH275987   0.076   6.328  15.401 -0.2364  0.7200 -0.2391
18191TIP3    H175988   0.159   6.353  15.441 -0.0840  1.8832 -1.2273
18191TIP3    H275989   0.101   6.277  15.324 -0.5353 -2.0257  1.3594
18192TIP3   OH275990   2.964   4.924  10.700 -0.2242  0.0872  0.2396
18192TIP3    H175991   2.962   4.867  10.623 -0.7110  0.9351 -0.3983
18192TIP3    H275992   2.915   5.002  10.673  0.6351  0.9112  0.9987
18193TIP3   OH275993   0.344   0.542  11.169 -0.7396  0.4381 -0.6993
18193TIP3    H175994   0.250   0.561  11.161 -0.4752  2.1107 -0.1870
18193TIP3    H275995   0.367   0.575  11.256 -0.2967 -2.8487  0.5581
18194TIP3   OH275996   5.192   6.598   3.189  0.0972 -0.3871  0.4981
18194TIP3    H175997   5.253   6.661   3.151 -1.9053  0.5558 -1.3990
18194TIP3    H275998   5.242   6.517   3.196  0.9784 -0.3727 -3.4221
18195TIP3   OH275999   6.534   4.995   5.151  0.0488  0.1602  0.6433
18195TIP3    H176000   6.615   5.001   5.101 -0.2121  0.0275  0.2045
18195TIP3    H276001   6.557   4.944   5.229 -0.0467 -1.5510 -0.4039
18196TIP3   OH276002   2.726   1.960   0.317 -0.0220  0.0607 -0.4208
18196TIP3    H176003   2.758   1.871   0.307 -1.7791 -0.9453  1.8411
18196TIP3    H276004   2.669   1.974   0.242 -1.3159 -1.5467  0.2019
18197TIP3   OH276005   6.439   5.142   2.544  0.4325  0.8284  0.5782
18197TIP3    H176006   6.511   5.172   2.600  1.5658 -2.0783  0.8324
18197TIP3    H276007   6.402   5.067   2.590 -1.5957  1.1107 -0.4651
18198TIP3   OH276008   1.699   0.775  14.259 -0.3312  0.4081 -0.6217
18198TIP3    H176009   1.737   0.756  14.174 -1.7695  0.5691 -1.3238
18198TIP3    H276010   1.616   0.817  14.240  0.2217  2.3590  0.8576
18199TIP3   OH276011   4.494   1.067   1.784 -0.0463 -0.8267  0.4585
18199TIP3    H176012   4.498   1.163   1.785  2.0526 -0.8586  1.2433
18199TIP3    H276013   4.406   1.047   1.754 -1.6904  1.3649  3.3233
18200TIP3   OH276014   1.298   6.553   1.568  0.0981  0.0557 -0.0797
18200TIP3    H176015   1.345   6.614   1.511 -1.0400  2.2459  1.2456
18200TIP3    H276016   1.340   6.562   1.653 -1.3103  0.4214  0.5964
18201TIP3   OH276017   3.943   4.471  12.448 -0.2081 -0.3894  0.3182
18201TIP3    H176018   3.908   4.502  12.532 -1.8169  0.5855 -0.6444
18201TIP3    H276019   3.916   4.379  12.444 -0.1067 -0.4485  0.8777
18202TIP3   OH276020   1.453   5.345   2.101  0.4749 -0.4940 -0.4238
18202TIP3    H176021   1.508   5.347   2.023 -0.0765 -0.1094 -0.8038
18202TIP3    H276022   1.483   5.419   2.154 -0.9279  0.8988 -1.5016
18203TIP3   OH276023   2.754   4.445  15.568  0.5483 -0.2775  0.0544
18203TIP3    H176024   2.700   4.368  15.554  0.6025 -0.2105 -0.5391
18203TIP3    H276025   2.705   4.516  15.526  1.6077 -0.4096 -1.4461
18204TIP3   OH276026   2.618   1.942   1.817  0.0656  0.0969  0.7638
18204TIP3    H176027   2.542   1.996   1.839 -0.7180 -0.6860  0.0468
18204TIP3    H276028   2.585   1.878   1.754  0.8059 -1.6098  2.0245
18205TIP3   OH276029   0.309   4.676   5.408 -0.1287  0.1475 -0.2052
18205TIP3    H176030   0.259   4.601   5.376 -1.1965  0.2218  1.2323
18205TIP3    H276031   0.243   4.740   5.435  0.7032  0.0915  2.1283
18206TIP3   OH276032   3.489   6.469   5.227  0.3087  0.4568 -0.1607
18206TIP3    H176033   3.500   6.449   5.134 -1.5797  2.5984 -0.9542
18206TIP3    H276034   3.571   6.512   5.252 -0.0017  1.9663 -1.5353
18207TIP3   OH276035   6.640   2.133   1.577  0.6672 -0.2204 -0.1347
18207TIP3    H176036   6.654   2.120   1.671 -0.2875 -0.4635 -0.0202
18207TIP3    H276037   6.591   2.056   1.549 -0.9887  0.8716 -0.3780
18208TIP3   OH276038   1.905   1.063   5.170  0.1623 -0.3791  0.5403
18208TIP3    H176039   1.937   0.974   5.159  2.6476  0.3195  1.2926
18208TIP3    H276040   1.886   1.070   5.264  1.4858  0.2690  0.7899
18209TIP3   OH276041   4.221   3.439  12.961 -0.0335  0.1009 -0.0437
18209TIP3    H176042   4.271   3.427  13.042  0.2972  0.3486 -0.2074
18209TIP3    H276043   4.218   3.352  12.922 -1.4948 -0.3352  0.9713
18210TIP3   OH276044   6.317   0.688  16.704 -0.2053 -0.3571  0.3118
18210TIP3    H176045   6.331   0.700  16.798  0.7072  0.2985  0.1096
18210TIP3    H276046   6.399   0.651  16.672 -0.2127  0.1637 -0.3405
18211TIP3   OH276047   4.243   3.886  14.004  0.5883  0.5481  0.0320
18211TIP3    H176048   4.285   3.906  14.088 -0.2048  1.3080  0.2776
18211TIP3    H276049   4.153   3.864  14.028  0.8883 -1.3943 -0.4420
18212TIP3   OH276050   5.739   4.056   4.791 -0.1136 -0.5162  0.6187
18212TIP3    H176051   5.789   4.135   4.769 -0.8783 -0.0836  0.3905
18212TIP3    H276052   5.651   4.073   4.757 -0.6360 -0.9328  1.7053
18213TIP3   OH276053   5.293   5.880   2.318 -0.6709  0.3115  0.2500
18213TIP3    H176054   5.365   5.884   2.256 -0.4228 -1.4359  0.3803
18213TIP3    H276055   5.331   5.910   2.401 -0.4153  0.4927  0.0696
18214TIP3   OH276056   5.610   0.667   3.456  0.0615  0.7791  0.4121
18214TIP3    H176057   5.660   0.724   3.397  0.0695  0.6232  0.2665
18214TIP3    H276058   5.561   0.609   3.398 -0.0262  0.7054  0.5584
18215TIP3   OH276059   5.243   0.055   0.212  0.2933 -0.2142 -0.4823
18215TIP3    H176060   5.307   0.075   0.280 -0.5901  1.4287 -0.0879
18215TIP3    H276061   5.262  -0.036   0.187  1.5611 -0.3666  0.9154
18216TIP3   OH276062   5.907   4.884  14.674  0.1192 -0.9141 -0.1937
18216TIP3    H176063   5.877   4.824  14.742 -1.2109  1.3480  1.3528
18216TIP3    H276064   5.851   4.962  14.684  2.4837  1.0615 -1.3120
18217TIP3   OH276065   3.199   4.048  15.094  0.2278 -0.2425  0.0397
18217TIP3    H176066   3.268   4.048  15.160 -0.4513 -1.3756  0.7895
18217TIP3    H276067   3.129   4.101  15.132  0.1875 -0.1484 -0.1662
18218TIP3   OH276068   3.317   0.968  15.263 -0.6566  0.0881  0.0125
18218TIP3    H176069   3.372   1.034  15.306 -0.5555  1.2436 -1.7757
18218TIP3    H276070   3.376   0.894  15.246 -0.5218 -0.0737  1.1347
18219TIP3   OH276071   5.143   2.134   0.312 -0.2299 -0.2795  0.6973
18219TIP3    H176072   5.073   2.096   0.365 -1.8710  2.8968  1.0441
18219TIP3    H276073   5.152   2.223   0.345  2.5019  0.1150 -0.8380
18220TIP3   OH276074   1.864   3.813  16.944  0.1373 -0.0444 -0.7095
18220TIP3    H176075   1.835   3.743  16.887  1.3370 -0.2945 -1.0306
18220TIP3    H276076   1.891   3.769  17.025 -1.1889  0.2714 -0.0594
18221TIP3   OH276077   6.659   1.156  16.095  0.0098  0.0120 -0.0875
18221TIP3    H176078   6.617   1.073  16.073  1.6110 -1.1039  0.8265
18221TIP3    H276079   6.751   1.134  16.107  0.7815  2.2474 -1.3948
18222TIP3   OH276080   2.950   0.053   2.195  0.5341  0.3063 -0.2171
18222TIP3    H176081   2.988   0.062   2.282  0.5902  1.3670 -0.3489
18222TIP3    H276082   2.856   0.052   2.210  0.5204  1.2821 -0.2097
18223TIP3   OH276083   0.782   3.141   5.395  0.0071 -0.2035 -0.8467
18223TIP3    H176084   0.776   3.225   5.349  2.0606  0.9874  0.9096
18223TIP3    H276085   0.869   3.108   5.373  0.4026 -0.3818  0.8887
18224TIP3   OH276086   3.234   6.295   4.212  0.1469 -0.4770 -0.7575
18224TIP3    H176087   3.293   6.220   4.212 -0.0881 -0.6650 -1.6945
18224TIP3    H276088   3.228   6.322   4.121 -0.1004  0.4285 -0.4867
18225TIP3   OH276089   3.603   1.570  13.591  0.4504 -0.7410 -0.2131
18225TIP3    H176090   3.648   1.555  13.509  1.0353 -0.0340 -0.0294
18225TIP3    H276091   3.572   1.661  13.586  0.3119 -0.7560  0.2604
18226TIP3   OH276092   6.196   6.738   3.292 -0.3572 -0.2031 -0.5472
18226TIP3    H176093   6.258   6.692   3.348  0.3696  0.3422 -0.8934
18226TIP3    H276094   6.144   6.669   3.251 -0.9618 -0.6186  0.8422
18227TIP3   OH276095   1.091   3.698  15.417  0.7417 -0.8136  0.3223
18227TIP3    H176096   1.038   3.765  15.375  1.6386 -1.0375 -1.2463
18227TIP3    H276097   1.079   3.620  15.362  3.2655 -0.6575 -0.5732
18228TIP3   OH276098   1.696   6.232  12.301 -0.4546 -0.1043  0.3210
18228TIP3    H176099   1.743   6.258  12.381  0.8400  0.3618 -0.5653
18228TIP3    H276100   1.719   6.140  12.289  0.4066  0.1664 -0.2029
18229TIP3   OH276101   5.966   2.674  10.812  0.6978 -0.4929 -0.1655
18229TIP3    H176102   6.000   2.706  10.728  1.0242 -0.6713 -0.1052
18229TIP3    H276103   5.928   2.752  10.853  0.0010 -0.5274 -0.7315
18230TIP3   OH276104   6.593   3.024  12.830  0.2327 -0.2841 -0.1060
18230TIP3    H176105   6.507   2.989  12.857 -0.6128  0.2803 -1.9038
18230TIP3    H276106   6.625   2.961  12.765  1.1117 -0.3826  0.4071
18231TIP3   OH276107   1.764   4.732   2.883 -0.1439 -0.1579 -0.0270
18231TIP3    H176108   1.679   4.712   2.924 -0.8144  0.2018 -1.1792
18231TIP3    H276109   1.742   4.792   2.811  1.0136 -0.5440 -0.7337
18232TIP3   OH276110   3.625   3.373  14.141 -0.6906  0.2775  0.0019
18232TIP3    H176111   3.633   3.349  14.234 -0.8709  1.5735  0.3718
18232TIP3    H276112   3.639   3.291  14.094 -1.1617 -0.5146  1.1973
18233TIP3   OH276113   1.905   6.737  13.296  0.0965 -0.1421  0.1280
18233TIP3    H176114   1.984   6.790  13.305  0.6262 -1.1003  1.4350
18233TIP3    H276115   1.905   6.710  13.204  1.2421 -0.0467  0.0845
18234TIP3   OH276116   5.894   4.861   6.231  0.5368 -0.7485 -0.1797
18234TIP3    H176117   5.976   4.909   6.242 -0.4266  0.8968  0.1676
18234TIP3    H276118   5.893   4.797   6.302 -0.0405  1.5796  2.0554
18235TIP3   OH276119   6.664   2.687  16.589  0.4508 -0.3332 -0.0888
18235TIP3    H176120   6.672   2.732  16.673  3.1867 -0.2732 -0.2961
18235TIP3    H276121   6.603   2.616  16.606 -2.9066  2.4427  0.6308
18236TIP3   OH276122   2.615   0.120   0.018  0.0036  0.1046  0.6494
18236TIP3    H176123   2.660   0.195   0.057 -0.8020  0.2864  1.2348
18236TIP3    H276124   2.563   0.157  -0.053  0.5761 -0.0795  0.1170
18237TIP3   OH276125   4.249   5.650   1.797  0.6710  0.9015  0.0349
18237TIP3    H176126   4.336   5.642   1.837  0.5411  0.4722  0.2320
18237TIP3    H276127   4.243   5.575   1.738 -2.0372 -3.0762  4.6573
18238TIP3   OH276128   1.263   3.977   3.893  0.5468 -0.5277  0.2968
18238TIP3    H176129   1.175   3.989   3.856  0.6112  0.8082  0.5154
18238TIP3    H276130   1.290   3.891   3.863 -1.6589 -1.8900  1.9203
18239TIP3   OH276131   5.415   1.262   2.768  0.0550 -0.1718 -0.0639
18239TIP3    H176132   5.387   1.173   2.789  0.7306 -0.4443 -0.2971
18239TIP3    H276133   5.503   1.269   2.805 -0.5404  0.8853  1.2158
18240TIP3   OH276134   1.873   0.733   2.524 -0.6201 -0.2126 -0.0743
18240TIP3    H176135   1.958   0.690   2.512 -1.2680 -1.7814  0.7120
18240TIP3    H276136   1.876   0.765   2.615 -0.4159  0.8351 -0.4346
18241TIP3   OH276137   2.882   6.300   1.031  0.0936  0.0349  0.0806
18241TIP3    H176138   2.940   6.287   0.956 -1.0778  1.0583 -1.0420
18241TIP3    H276139   2.865   6.394   1.032  0.6238  0.1430  2.0656
18242TIP3   OH276140   1.828   4.386   3.129 -0.6936  0.0078 -0.8469
18242TIP3    H176141   1.864   4.368   3.216  0.6444  1.5146 -1.0346
18242TIP3    H276142   1.864   4.317   3.074 -0.4946 -0.2171 -0.4394
18243TIP3   OH276143   5.737   6.648  13.466 -0.0699 -0.1770  0.0152
18243TIP3    H176144   5.746   6.611  13.378 -0.3757  1.2478 -0.6513
18243TIP3    H276145   5.827   6.656  13.497  0.1657  0.6948 -0.8085
18244TIP3   OH276146   4.547   5.192  12.019  0.3647 -0.3325  0.2068
18244TIP3    H176147   4.592   5.240  11.950  1.7466  2.2928  2.7022
18244TIP3    H276148   4.594   5.109  12.026  0.9827 -0.1138 -1.1042
18245TIP3   OH276149   6.372   2.880  12.898  0.3604  0.2621  0.1132
18245TIP3    H176150   6.309   2.924  12.841 -0.6253 -0.5898  0.5250
18245TIP3    H276151   6.323   2.808  12.937  0.9563  0.9274  2.2022
18246TIP3   OH276152   3.424   3.466   0.398 -0.4338 -0.1606 -0.7415
18246TIP3    H176153   3.430   3.539   0.460  0.6466 -0.1292 -0.8730
18246TIP3    H276154   3.338   3.428   0.415 -0.8495  0.8920 -0.3912
18247TIP3   OH276155   3.960   0.829   5.214 -0.4081 -0.3514  0.0422
18247TIP3    H176156   4.002   0.909   5.182  2.4535 -0.6773  2.5608
18247TIP3    H276157   3.999   0.759   5.161 -0.1882 -0.3814  0.2431
18248TIP3   OH276158   0.528   5.949   2.086 -0.1416  0.1803  0.6913
18248TIP3    H176159   0.606   5.960   2.031 -1.7759  2.3098 -1.4149
18248TIP3    H276160   0.554   5.984   2.171  1.2732  0.6630  0.0927
18249TIP3   OH276161   4.385   6.318   0.713 -0.5411  0.1468 -0.0257
18249TIP3    H176162   4.344   6.261   0.647  0.5346 -1.5876  0.7301
18249TIP3    H276163   4.466   6.272   0.736 -0.2332  1.4117  1.5144
18250TIP3   OH276164   4.081   4.205   4.128  0.4482 -0.3488  0.4989
18250TIP3    H176165   4.071   4.284   4.181  0.1944 -0.2218  0.2606
18250TIP3    H276166   3.996   4.162   4.132  0.4801 -0.4288  0.3421
18251TIP3   OH276167   5.932   1.539  16.133  0.2969  0.0349 -0.4631
18251TIP3    H176168   5.891   1.608  16.185  1.2098  0.9483 -0.9204
18251TIP3    H276169   5.879   1.462  16.150 -1.6659  1.1643 -1.0619
18252TIP3   OH276170   1.504   0.117  12.616 -0.0411 -0.8587  0.0845
18252TIP3    H176171   1.569   0.181  12.642 -0.9960  0.0267  0.3506
18252TIP3    H276172   1.469   0.150  12.533 -0.3769 -1.1509  0.1049
18253TIP3   OH276173   3.484   1.433   1.193  0.1255 -0.3994 -0.2580
18253TIP3    H176174   3.571   1.473   1.192  0.8906 -1.9874 -0.8538
18253TIP3    H276175   3.475   1.396   1.280 -0.2791  0.3836  0.0466
18254TIP3   OH276176   6.452   6.482  11.976  0.4796 -0.3100 -0.2306
18254TIP3    H176177   6.412   6.399  12.000  1.9887 -1.1485 -0.5263
18254TIP3    H276178   6.479   6.521  12.059  0.4819 -0.4852 -0.1503
18255TIP3   OH276179   3.377   4.848   4.381 -0.0640 -0.6785  0.4009
18255TIP3    H176180   3.462   4.893   4.385  0.0597 -0.7235 -1.1699
18255TIP3    H276181   3.398   4.761   4.348 -0.6201 -1.0535  1.0109
18256TIP3   OH276182   2.337   3.943   3.719 -0.2604  0.7219 -0.5196
18256TIP3    H176183   2.433   3.945   3.716 -0.1422 -0.5932  0.8927
18256TIP3    H276184   2.313   3.872   3.660 -0.1394 -0.9102  1.2999
18257TIP3   OH276185   4.023   5.566  12.267 -0.0125 -0.3449  0.7221
18257TIP3    H176186   3.966   5.509  12.319 -0.3347 -0.6360  0.0686
18257TIP3    H276187   3.978   5.650  12.267  0.4517 -0.0793  1.6693
18258TIP3   OH276188   5.484   5.028   5.632 -0.1601  0.2614 -0.1192
18258TIP3    H176189   5.469   4.994   5.543  0.3866  1.4415 -0.6873
18258TIP3    H276190   5.404   5.076   5.652  0.1451  0.9430 -0.4583
18259TIP3   OH276191   4.881   3.758   3.773  0.3011  0.3769  0.0115
18259TIP3    H176192   4.802   3.803   3.803 -1.5957 -1.9770 -1.0638
18259TIP3    H276193   4.849   3.676   3.735  3.4125 -1.3418  0.7437
18260TIP3   OH276194   6.577   4.235   2.934  0.2568 -0.0317  0.1804
18260TIP3    H176195   6.670   4.212   2.929  0.1530 -0.2750 -0.8540
18260TIP3    H276196   6.558   4.275   2.849 -0.4531  0.5409  0.5987
18261TIP3   OH276197   0.132   1.649  13.185  0.3052 -0.2723 -0.1218
18261TIP3    H176198   0.209   1.600  13.214  1.9490  2.0266 -0.3156
18261TIP3    H276199   0.062   1.621  13.244  1.4994 -1.7460  0.6733
18262TIP3   OH276200   5.246   2.432  11.168 -0.3015  0.1663  0.2525
18262TIP3    H176201   5.167   2.483  11.184 -1.4358 -0.7251 -2.1312
18262TIP3    H276202   5.316   2.484  11.209 -1.9421  1.4995  1.5124
18263TIP3   OH276203   3.628   2.043  11.404 -0.0562  0.3995  0.2791
18263TIP3    H176204   3.619   2.123  11.351  1.0967  1.1208  1.1415
18263TIP3    H276205   3.539   2.027  11.436 -0.3508  1.2054 -0.0812
18264TIP3   OH276206   1.974   2.930  15.798 -0.4696  0.4837 -0.0533
18264TIP3    H176207   2.061   2.896  15.777 -1.9735 -3.3521 -0.9741
18264TIP3    H276208   1.967   2.923  15.893 -0.0091  0.1507 -0.0447
18265TIP3   OH276209   2.882   2.235   1.677  0.0728  0.2714  0.6452
18265TIP3    H176210   2.899   2.225   1.583 -1.2348 -0.5639  0.4794
18265TIP3    H276211   2.848   2.324   1.687  1.6411  0.9125  0.5724
18266TIP3   OH276212   1.852   4.929  16.085 -0.3898  0.1623 -0.2170
18266TIP3    H176213   1.762   4.959  16.073 -0.7456 -0.8999 -0.3186
18266TIP3    H276214   1.853   4.841  16.049  0.7862  0.2859 -0.5253
18267TIP3   OH276215   0.195   3.740  13.189  0.0218  0.4635  0.2437
18267TIP3    H176216   0.228   3.691  13.114 -0.1722  0.5525  0.1006
18267TIP3    H276217   0.251   3.817  13.194 -0.7241  1.0827 -0.5538
18268TIP3   OH276218   6.380   2.691   3.920  0.7039 -0.3224  0.1683
18268TIP3    H176219   6.347   2.605   3.944 -1.5692  0.9461  2.0402
18268TIP3    H276220   6.313   2.727   3.862  0.9715  0.6293  0.4205
18269TIP3   OH276221   1.340   1.336  16.786 -0.4735 -0.1384 -0.0574
18269TIP3    H176222   1.364   1.350  16.877 -1.0981 -0.0848  0.1088
18269TIP3    H276223   1.398   1.393  16.736 -0.5580  0.3119  0.3538
18270TIP3   OH276224   6.196   5.408   2.806 -0.1330  0.2891 -0.0223
18270TIP3    H176225   6.195   5.472   2.735 -2.8949  3.3838  2.5131
18270TIP3    H276226   6.127   5.346   2.784  0.8469 -0.4191 -1.2485
18271TIP3   OH276227   3.931   3.626   2.934 -0.0653  0.1363  0.3570
18271TIP3    H176228   3.920   3.675   3.016 -0.7804  0.7402 -0.0737
18271TIP3    H276229   3.953   3.537   2.961 -0.6904  0.2299  1.2147
18272TIP3   OH276230   6.100   5.543   4.003  0.3656  0.1878 -0.5352
18272TIP3    H176231   6.015   5.513   3.970  1.0814 -0.4214 -1.8916
18272TIP3    H276232   6.127   5.611   3.942  0.8988  0.3182 -0.1591
18273TIP3   OH276233   5.906   4.298  15.686 -0.3553 -0.4675 -0.3619
18273TIP3    H176234   5.905   4.387  15.649 -0.0787  0.9300  2.6619
18273TIP3    H276235   5.814   4.271  15.684 -0.6218  0.3851 -0.2628
18274TIP3   OH276236   1.096   3.200  14.532  0.0187  0.4144  0.4802
18274TIP3    H176237   1.037   3.269  14.501 -0.8958 -0.0422  1.1659
18274TIP3    H276238   1.049   3.119  14.513 -0.7716  0.1119  3.3525
18275TIP3   OH276239   2.939   0.628   2.716 -0.1029  0.5166 -0.1145
18275TIP3    H176240   2.865   0.568   2.723  0.0259  0.3610 -0.0969
18275TIP3    H276241   2.899   0.711   2.689 -0.2302  0.3130 -0.5623
18276TIP3   OH276242   2.703   4.219  17.085 -0.4939 -0.0308 -0.0040
18276TIP3    H176243   2.688   4.301  17.037 -0.1041 -0.4023 -0.7671
18276TIP3    H276244   2.625   4.208  17.139 -0.6975  0.6702 -0.1500
18277TIP3   OH276245   3.538   3.440  16.767  0.8036  0.1242 -0.0378
18277TIP3    H176246   3.624   3.483  16.772  0.5362  0.7597 -0.7596
18277TIP3    H276247   3.483   3.501  16.718  0.5640 -1.3033 -1.6479
18278TIP3   OH276248   4.919   6.080  15.395  0.1287 -0.1646  0.4284
18278TIP3    H176249   4.929   6.153  15.456 -0.9497 -0.0321  0.4603
18278TIP3    H276250   4.997   6.025  15.410 -0.6393 -0.7259  2.7307
18279TIP3   OH276251   5.375   5.045   6.347 -0.1618  0.0598  0.6480
18279TIP3    H176252   5.406   4.956   6.361  0.7993  0.5111  1.5316
18279TIP3    H276253   5.419   5.097   6.415 -1.2495  1.0896  0.5985
18280TIP3   OH276254   1.203   4.777  16.556  0.4719 -0.2469  0.0470
18280TIP3    H176255   1.128   4.805  16.608  0.5638 -0.7800  0.4778
18280TIP3    H276256   1.279   4.817  16.600  0.5694 -0.8688  0.4577
18281TIP3   OH276257   3.844   6.430  13.359  0.0988 -0.2166  0.1923
18281TIP3    H176258   3.787   6.507  13.362  1.5764  0.9371 -0.4596
18281TIP3    H276259   3.825   6.384  13.441 -3.1256 -0.9321 -0.8096
18282TIP3   OH276260   2.111   0.045  12.390  0.2619  0.1513  0.4731
18282TIP3    H176261   2.038  -0.017  12.401 -0.6255  0.7856 -1.4738
18282TIP3    H276262   2.070   0.131  12.402  0.4408  0.5649 -1.5798
18283TIP3   OH276263   1.383   5.497   1.333 -0.3315  0.4936  0.0423
18283TIP3    H176264   1.415   5.506   1.423 -0.1921 -2.1114  0.3363
18283TIP3    H276265   1.451   5.445   1.289 -1.9625 -1.2059 -0.5911
18284TIP3   OH276266   5.598   5.878  13.130  0.1278  0.2317  0.0063
18284TIP3    H176267   5.669   5.922  13.083 -0.0179 -0.3072 -0.7387
18284TIP3    H276268   5.520   5.895  13.078  0.3690 -2.5035 -1.4273
18285TIP3   OH276269   0.244   5.065   4.120 -0.3437 -0.1044  0.2080
18285TIP3    H176270   0.330   5.024   4.117  0.7095  2.0440 -0.5779
18285TIP3    H276271   0.197   5.026   4.046 -0.6696 -2.4118  1.5230
18286TIP3   OH276272   0.595   4.578   3.507  0.4093 -0.5424 -0.2371
18286TIP3    H176273   0.515   4.592   3.455 -0.0584  0.3435  0.6865
18286TIP3    H276274   0.615   4.664   3.544 -0.1952 -1.4148  2.3258
18287TIP3   OH276275   3.953   1.334  13.831 -0.0735 -0.0682  0.4164
18287TIP3    H176276   4.005   1.340  13.751 -0.7861 -0.6322 -0.1042
18287TIP3    H276277   3.873   1.382  13.811  1.1848  3.0021  2.0587
18288TIP3   OH276278   2.626   2.486   3.127 -0.2168 -0.0327  0.4036
18288TIP3    H176279   2.670   2.556   3.079 -1.1785 -0.0328 -0.5454
18288TIP3    H276280   2.661   2.406   3.089  0.8516 -0.0833  1.4594
18289TIP3   OH276281   0.231   4.271  15.748  1.0015  0.3976 -0.3240
18289TIP3    H176282   0.316   4.297  15.784  0.8139  1.0884 -0.3680
18289TIP3    H276283   0.214   4.185  15.786  1.1186  0.8192  0.7124
18290TIP3   OH276284   2.201   4.047   2.289 -0.0371  0.0518  0.0190
18290TIP3    H176285   2.116   4.028   2.250  0.2338 -1.8753  0.2218
18290TIP3    H276286   2.181   4.089   2.372 -0.8680 -1.1527  0.4600
18291TIP3   OH276287   5.528   5.007  11.119 -0.2777  0.2716 -0.4427
18291TIP3    H176288   5.546   5.052  11.036 -0.2054  1.5341  0.2377
18291TIP3    H276289   5.452   5.052  11.155  0.9407  1.1556  1.1762
18292TIP3   OH276290   2.353   5.231  11.523  0.0152  0.6077  0.2007
18292TIP3    H176291   2.395   5.147  11.505  1.0311  1.1804 -0.1789
18292TIP3    H276292   2.364   5.281  11.442 -1.0170  0.9367  0.2507
18293TIP3   OH276293   6.203   4.770   4.495  0.1651  0.0177  0.0329
18293TIP3    H176294   6.203   4.759   4.590 -1.2859 -1.2416 -0.0728
18293TIP3    H276295   6.280   4.824   4.477  2.0453 -1.9150  1.6843
18294TIP3   OH276296   6.287   3.615  14.524  0.3445 -0.0803 -0.4125
18294TIP3    H176297   6.379   3.640  14.518  0.7035 -1.1156  0.5030
18294TIP3    H276298   6.268   3.574  14.439  0.4760  0.8518 -0.9142
18295TIP3   OH276299   3.826   4.956  16.093 -0.2182 -0.1590  0.2676
18295TIP3    H176300   3.886   4.882  16.087  1.1768  0.8427  1.3969
18295TIP3    H276301   3.839   5.004  16.010  0.1404 -0.2523  0.2672
18296TIP3   OH276302   2.465   6.099  15.891 -0.4979 -0.0670  0.2666
18296TIP3    H176303   2.395   6.133  15.836 -0.0006 -2.0640 -1.7293
18296TIP3    H276304   2.527   6.172  15.899 -2.6470  1.6991  1.9921
18297TIP3   OH276305   6.172   3.399  16.755 -0.9713 -0.1575  0.1509
18297TIP3    H176306   6.206   3.371  16.670  0.1375 -0.5775  0.7171
18297TIP3    H276307   6.146   3.318  16.798 -2.1331  0.1084 -0.0262
18298TIP3   OH276308   5.682   2.963   3.814  0.3139 -0.6539  0.2250
18298TIP3    H176309   5.588   2.942   3.818  0.5198 -1.4552  1.1221
18298TIP3    H276310   5.685   3.059   3.815 -0.5514 -0.5684 -1.4779
18299TIP3   OH276311   1.461   2.252   6.288  0.4341 -0.0967 -0.2681
18299TIP3    H176312   1.487   2.305   6.212 -1.0893  2.1099  0.6397
18299TIP3    H276313   1.372   2.281   6.308  0.3659 -1.4494  1.6777
18300TIP3   OH276314   0.851   6.042  14.928  0.1313  0.1406 -0.2499
18300TIP3    H176315   0.822   6.104  14.995  0.9469  1.6235 -1.2014
18300TIP3    H276316   0.892   5.971  14.978 -0.0991  0.7484  0.8548
18301TIP3   OH276317   1.660   4.219   2.850 -0.2552 -0.1099 -0.0577
18301TIP3    H176318   1.713   4.167   2.790 -1.1216 -2.0616  0.7759
18301TIP3    H276319   1.698   4.204   2.936 -0.1096  1.2338  0.1434
18302TIP3   OH276320   1.737   3.404   5.049 -0.4166 -0.9245 -0.9208
18302TIP3    H176321   1.688   3.411   5.131 -0.6460 -0.4568 -1.0955
18302TIP3    H276322   1.671   3.413   4.980  0.1661  2.4970 -1.2087
18303TIP3   OH276323   5.493   1.283   3.226 -0.4727 -0.2383  0.4708
18303TIP3    H176324   5.465   1.307   3.315 -0.3882  0.3035  0.3545
18303TIP3    H276325   5.415   1.296   3.172  0.1011  1.9071  0.0282
18304TIP3   OH276326   2.218   0.697  14.863  0.2325  0.3109 -0.3369
18304TIP3    H176327   2.298   0.655  14.895 -0.0703 -0.4985 -0.6119
18304TIP3    H276328   2.215   0.675  14.770 -0.4554  0.0785 -0.2693
18305TIP3   OH276329   3.205   4.535  13.099 -0.1871 -0.8313  0.3085
18305TIP3    H176330   3.226   4.531  13.192 -0.4865 -0.8534  0.3778
18305TIP3    H276331   3.289   4.540  13.055 -0.0760  0.5292  0.6497
18306TIP3   OH276332   2.025   6.039  13.948 -0.1306  0.0380 -0.1839
18306TIP3    H176333   2.016   5.965  14.007  0.2005  0.2866  0.1870
18306TIP3    H276334   2.011   6.116  14.003 -1.9270  0.2245 -0.8403
18307TIP3   OH276335   3.731   4.157   1.907  0.3989  0.8406 -0.3556
18307TIP3    H176336   3.737   4.139   1.813  1.3806  2.1174 -0.5540
18307TIP3    H276337   3.820   4.144   1.940 -0.0209 -0.0211  0.5072
18308TIP3   OH276338   1.721   1.646   5.295  0.2222 -0.2266 -0.2434
18308TIP3    H176339   1.693   1.580   5.357  1.4833 -2.1927 -1.6412
18308TIP3    H276340   1.673   1.625   5.215  0.9451  0.2740 -0.8252
18309TIP3   OH276341   1.442   1.044  15.208 -0.1462  0.0030 -0.3483
18309TIP3    H176342   1.446   1.129  15.252  1.6324 -0.1781 -0.0926
18309TIP3    H276343   1.414   0.983  15.276  2.1116 -0.1925  0.4812
18310TIP3   OH276344   3.353   4.121  13.137  0.6043  0.4766 -0.4654
18310TIP3    H176345   3.320   4.130  13.227  2.4725  1.5363  0.1648
18310TIP3    H276346   3.440   4.082  13.148 -0.1757 -1.9161 -2.0372
18311TIP3   OH276347   1.252   6.690  16.657  0.2102 -0.2961  0.1189
18311TIP3    H176348   1.235   6.770  16.607 -0.3530  0.4366  1.4155
18311TIP3    H276349   1.278   6.721  16.744 -0.7574 -1.5222  0.8787
18312TIP3   OH276350   2.396   0.381   1.325  0.8501  0.2939 -0.4852
18312TIP3    H176351   2.402   0.384   1.420  2.5121  2.6128 -0.5680
18312TIP3    H276352   2.304   0.363   1.307  0.7739 -1.7235  1.5102
18313TIP3   OH276353   4.884   0.912   4.945  0.3393  0.6746 -0.2886
18313TIP3    H176354   4.815   0.970   4.914  0.7866  0.4211 -1.8260
18313TIP3    H276355   4.935   0.891   4.867 -0.2434 -2.4132  0.0173
18314TIP3   OH276356   5.970   6.714   2.647  0.6103 -0.4455 -0.0288
18314TIP3    H176357   5.903   6.693   2.712  1.2157  0.7002  1.0180
18314TIP3    H276358   6.018   6.788   2.686  3.0898 -1.8280 -0.2707
18315TIP3   OH276359   0.056   1.608   1.292  0.0146 -0.4187 -0.0839
18315TIP3    H176360   0.094   1.642   1.211 -2.1128  1.2733 -0.4545
18315TIP3    H276361   0.038   1.685   1.345 -3.3639 -0.9860 -0.2015
18316TIP3   OH276362   1.452   1.868   2.064  0.1598 -0.5728  0.0141
18316TIP3    H176363   1.533   1.835   2.104  0.7112 -1.8463 -2.0276
18316TIP3    H276364   1.386   1.802   2.086 -0.8046  1.1760  2.9419
18317TIP3   OH276365   3.707   5.834  10.689  0.4286  0.3464  0.0748
18317TIP3    H176366   3.613   5.845  10.674  0.4575 -0.9133 -1.2646
18317TIP3    H276367   3.722   5.870  10.776 -1.5474 -0.6287  0.8692
18318TIP3   OH276368   5.180   4.293  11.797  0.2134 -0.0623  0.2123
18318TIP3    H176369   5.160   4.228  11.864  0.4242 -0.9485 -0.5621
18318TIP3    H276370   5.264   4.266  11.761  0.6121  1.0107  0.3118
18319TIP3   OH276371   6.689   1.349   4.799  0.0121  0.6838 -0.5778
18319TIP3    H176372   6.643   1.325   4.880  2.1528  0.3174  0.6048
18319TIP3    H276373   6.698   1.267   4.751  0.2424  0.5854 -0.3674
18320TIP3   OH276374   4.594   2.451   1.220  0.4273 -1.3705 -0.2234
18320TIP3    H176375   4.672   2.396   1.218 -0.7055 -3.0627 -0.0573
18320TIP3    H276376   4.624   2.535   1.255  2.5816 -1.2260 -2.1855
18321TIP3   OH276377   1.871   2.116   0.002 -0.2918 -0.1017 -0.5552
18321TIP3    H176378   1.859   2.151  -0.086 -0.8136  2.9283  0.5924
18321TIP3    H276379   1.856   2.191   0.060 -1.5523 -2.3029  2.2127
18322TIP3   OH276380   0.098   4.502   6.945 -0.1612 -0.1042 -0.4136
18322TIP3    H176381   0.165   4.570   6.950  0.4671 -0.7058 -0.4773
18322TIP3    H276382   0.020   4.548   6.913  0.0056  0.7507  0.3532
18323TIP3   OH276383   2.014   0.555  17.060 -0.4110 -0.7803  0.3243
18323TIP3    H176384   2.107   0.564  17.081 -0.3413 -0.3003 -0.1908
18323TIP3    H276385   1.970   0.615  17.119 -0.2299  0.4256 -0.7235
18324TIP3   OH276386   2.086   5.638  11.279  0.3657 -0.0136 -0.0182
18324TIP3    H176387   2.142   5.592  11.342  0.5693  1.3133  0.8192
18324TIP3    H276388   2.143   5.656  11.204 -0.3435 -3.1898 -1.4570
18325TIP3   OH276389   5.373   5.317   4.053  0.0355  0.4119 -0.1528
18325TIP3    H176390   5.312   5.388   4.073 -0.6896 -0.6171  1.4406
18325TIP3    H276391   5.353   5.249   4.117  0.8944 -1.1418 -1.4627
18326TIP3   OH276392   0.352   0.782   5.595 -0.0768  0.2194 -0.4149
18326TIP3    H176393   0.444   0.769   5.614 -0.3015  0.8374  1.2312
18326TIP3    H276394   0.340   0.877   5.592 -1.0738  0.2396  1.8862
18327TIP3   OH276395   6.704   5.243  15.628 -0.3919 -0.1301 -0.6772
18327TIP3    H176396   6.657   5.159  15.629 -1.3557  0.3903  1.2324
18327TIP3    H276397   6.659   5.294  15.560 -0.3888 -0.8217 -1.2167
18328TIP3   OH276398   0.946   1.768  15.455  0.1069 -0.3088 -0.2426
18328TIP3    H176399   0.979   1.720  15.378  0.1927  0.3477 -0.6235
18328TIP3    H276400   0.865   1.808  15.424  0.4893  0.5123 -0.1991
18329TIP3   OH276401   6.558   5.681   3.761 -0.0167 -0.2072 -0.3046
18329TIP3    H176402   6.463   5.687   3.765  0.0611  0.3659  1.2025
18329TIP3    H276403   6.587   5.768   3.736  0.1276 -0.3104 -0.5008
18330TIP3   OH276404   4.886   5.566  12.426 -0.3092  0.5917 -0.8199
18330TIP3    H176405   4.823   5.572  12.355 -1.6782 -1.5471  0.1144
18330TIP3    H276406   4.937   5.488  12.407 -0.0491  0.5354  0.0367
18331TIP3   OH276407   2.910   1.602  14.295 -0.3164  0.0143 -0.3328
18331TIP3    H176408   2.853   1.625  14.221  0.7417 -0.5540 -1.3620
18331TIP3    H276409   2.877   1.653  14.368 -1.4489  0.5369 -1.1827
18332TIP3   OH276410   3.001   3.003  17.251 -0.6539  0.0934  0.3235
18332TIP3    H176411   3.038   2.931  17.200  0.8793  0.8928  0.2557
18332TIP3    H276412   3.077   3.050  17.286 -1.6073  1.7227  0.3155
18333TIP3   OH276413   1.560   5.709  16.238 -0.0701  0.1008 -0.2657
18333TIP3    H176414   1.569   5.769  16.164  1.2788  1.2439  0.7488
18333TIP3    H276415   1.634   5.649  16.229 -0.5315 -0.4554 -0.4250
18334TIP3   OH276416   4.305   4.145   0.234 -0.0288 -0.4051  0.2677
18334TIP3    H176417   4.375   4.143   0.168 -0.7177 -1.7275 -0.4663
18334TIP3    H276418   4.336   4.085   0.302 -0.7387 -1.5855 -0.4107
18335TIP3   OH276419   0.834   2.007   3.257 -0.1975 -0.4313 -0.4226
18335TIP3    H176420   0.779   1.929   3.258 -0.2776 -0.3734  0.1179
18335TIP3    H276421   0.779   2.076   3.294 -0.2821 -0.0045 -1.3184
18336TIP3   OH276422   2.898   4.626   2.872  0.1446  0.0395 -0.1176
18336TIP3    H176423   2.816   4.645   2.917  0.0413 -0.1481 -0.2241
18336TIP3    H276424   2.958   4.600   2.941  0.0791  0.0576 -0.0538
18337TIP3   OH276425   5.470   0.639   4.449 -0.1916  0.0465  0.5561
18337TIP3    H176426   5.554   0.674   4.422 -0.2689  0.7436  1.1855
18337TIP3    H276427   5.490   0.549   4.478  0.5950  0.6287  1.9469
18338TIP3   OH276428   2.637   2.941  14.961  0.5855  0.3724  0.6831
18338TIP3    H176429   2.572   2.880  14.925  0.3462  1.9986 -1.8777
18338TIP3    H276430   2.585   3.002  15.013  0.5378 -0.2754  1.4140
18339TIP3   OH276431   3.315   0.685  14.818 -0.4674  0.1041 -0.5772
18339TIP3    H176432   3.369   0.740  14.762  1.6186 -1.8571 -0.6350
18339TIP3    H276433   3.228   0.685  14.776 -0.6444  3.3816 -0.4526
18340TIP3   OH276434   5.060   6.297  15.609 -0.1810 -0.0076  0.1148
18340TIP3    H176435   5.148   6.301  15.571  0.3253  1.3663  1.3364
18340TIP3    H276436   5.070   6.244  15.688 -0.1886  1.0390  0.8393
18341TIP3   OH276437   4.618   0.385  12.063  0.1073 -0.2181 -0.1477
18341TIP3    H176438   4.618   0.481  12.059  1.1053 -0.0710  1.8472
18341TIP3    H276439   4.526   0.361  12.055 -0.3825  1.0623  1.1003
18342TIP3   OH276440   4.802   3.810  17.175  0.4831 -0.5080  0.3707
18342TIP3    H176441   4.708   3.797  17.164  0.7368 -1.8487 -0.4274
18342TIP3    H276442   4.810   3.861  17.256 -1.0211  1.5556 -0.6848
18343TIP3   OH276443   4.355   2.577  16.702  0.3785  0.0984  0.8280
18343TIP3    H176444   4.434   2.630  16.710  0.8072 -0.3340 -0.2802
18343TIP3    H276445   4.334   2.551  16.792  0.1744  2.0674  1.3995
18344TIP3   OH276446   1.250   5.104   6.708 -0.3324  0.1174 -0.4891
18344TIP3    H176447   1.191   5.056   6.765  0.8494 -2.4072 -1.2336
18344TIP3    H276448   1.252   5.053   6.627  0.9803  1.4847 -1.3774
18345TIP3   OH276449   1.026   3.979  12.149 -0.4796 -0.2360  0.1836
18345TIP3    H176450   0.933   3.996  12.138 -0.5646 -0.5775  0.3582
18345TIP3    H276451   1.067   4.014  12.070 -0.8995 -1.2211 -0.4787
18346TIP3   OH276452   0.615   3.624   2.578 -0.4336 -0.3209  0.4475
18346TIP3    H176453   0.647   3.655   2.493  0.1162 -0.1627  0.7068
18346TIP3    H276454   0.563   3.547   2.557  1.5506 -1.6435  0.1393
18347TIP3   OH276455   0.382   1.463  14.655 -0.6007 -0.0409  1.0182
18347TIP3    H176456   0.345   1.375  14.645  0.0445 -0.4067  1.7159
18347TIP3    H276457   0.455   1.466  14.593 -0.4840 -0.0834  1.1518
18348TIP3   OH276458   3.060   6.611  17.136  0.1417  0.6577 -0.5500
18348TIP3    H176459   3.016   6.542  17.186 -0.4643 -0.1204 -2.1006
18348TIP3    H276460   3.098   6.565  17.061  2.8678  1.4359  0.2293
18349TIP3   OH276461   1.248   0.120   0.761  0.0179  0.2064  0.2165
18349TIP3    H176462   1.300   0.141   0.683 -0.0326  1.7190  0.5457
18349TIP3    H276463   1.235   0.026   0.757  2.3224 -0.1683 -0.1832
18350TIP3   OH276464   5.305   6.117   5.031  0.3106  0.2492  0.2821
18350TIP3    H176465   5.327   6.188   5.092 -0.1556  0.8765 -0.2646
18350TIP3    H276466   5.286   6.162   4.949 -0.6443 -0.4623  0.1003
18351TIP3   OH276467   2.968   1.031  13.090  0.2240  0.1118  0.2990
18351TIP3    H176468   2.988   1.119  13.060  1.2142  0.3939  1.7167
18351TIP3    H276469   3.001   1.027  13.179  1.8740 -2.2460 -0.2969
18352TIP3   OH276470   1.914   6.659   0.696 -0.1404 -0.0890  0.1587
18352TIP3    H176471   1.832   6.640   0.742 -0.4507 -0.5728 -0.5648
18352TIP3    H276472   1.894   6.641   0.604  1.0382 -1.0911  0.0726
18353TIP3   OH276473   2.399   0.928  12.899 -0.0729 -0.3770 -0.6628
18353TIP3    H176474   2.327   0.864  12.904  0.1253 -0.6785 -1.4940
18353TIP3    H276475   2.475   0.876  12.873  1.0551 -0.5075  2.5217
18354TIP3   OH276476   6.342   2.798   5.622  0.2497 -0.4301  0.8001
18354TIP3    H176477   6.413   2.821   5.683 -0.1683  0.0859  1.0954
18354TIP3    H276478   6.343   2.868   5.557  0.0541 -0.4585  0.7664
18355TIP3   OH276479   3.331   2.365   3.799 -0.0262 -0.2942 -0.0110
18355TIP3    H176480   3.410   2.416   3.814  0.1131 -0.4826 -0.0965
18355TIP3    H276481   3.347   2.283   3.845  0.8686 -1.3359 -2.0262
18356TIP3   OH276482   6.461   5.556   4.414  0.0303  0.1161 -0.5052
18356TIP3    H176483   6.541   5.518   4.376  0.3582  0.6916 -0.4168
18356TIP3    H276484   6.492   5.601   4.493 -0.6466 -1.0635  0.4626
18357TIP3   OH276485   3.643   0.661   2.186  0.0130  0.2472 -0.6653
18357TIP3    H176486   3.662   0.747   2.148 -1.0582  0.2890 -1.1546
18357TIP3    H276487   3.661   0.599   2.115 -1.2647  0.2601 -1.0218
18358TIP3   OH276488   5.697   5.245  13.536 -0.1143  0.3076  0.2275
18358TIP3    H176489   5.662   5.207  13.456 -0.0286 -1.9843  1.1974
18358TIP3    H276490   5.791   5.231  13.530 -0.3423 -2.9541  2.0744
18359TIP3   OH276491   4.014   1.448   2.705  0.1821  0.0145  0.1903
18359TIP3    H176492   3.985   1.528   2.661  0.8037 -0.0372 -0.3332
18359TIP3    H276493   3.982   1.457   2.794 -0.7818  0.2986 -0.1727
18360TIP3   OH276494   0.072   3.936   3.637  0.2003  0.0535 -0.2461
18360TIP3    H176495   0.003   3.983   3.685 -0.2276 -0.7220 -0.0857
18360TIP3    H276496   0.047   3.946   3.545 -0.0868 -0.1678 -0.1921
18361TIP3   OH276497   2.528   6.211   6.061  0.3483 -0.3945  0.1680
18361TIP3    H176498   2.535   6.135   6.119  0.7149 -0.5321 -0.0495
18361TIP3    H276499   2.440   6.206   6.024  0.5102 -0.9357 -0.1466
18362TIP3   OH276500   5.517   1.522   1.544 -0.8171 -0.6062 -0.5953
18362TIP3    H176501   5.474   1.540   1.627  0.2098 -0.0271 -0.1610
18362TIP3    H276502   5.475   1.582   1.482  0.1381  0.8227  0.0797
18363TIP3   OH276503   3.839   2.195  12.362  0.0033 -0.4856 -0.1655
18363TIP3    H176504   3.776   2.267  12.358 -1.2567 -1.4723  0.7637
18363TIP3    H276505   3.922   2.236  12.387  0.0925  1.0131 -2.5926
18364TIP3   OH276506   0.221   0.261  12.972 -0.4239 -0.0202 -0.0951
18364TIP3    H176507   0.313   0.264  12.999 -0.6637  0.4317  0.7135
18364TIP3    H276508   0.173   0.293  13.048 -1.2002  0.4457 -0.7666
18365TIP3   OH276509   0.490   0.372  16.213  0.2889  0.2892 -0.6039
18365TIP3    H176510   0.541   0.312  16.267  2.2829  2.4378  0.0534
18365TIP3    H276511   0.400   0.359  16.243  0.8767 -1.0672  0.7558
18366TIP3   OH276512   4.898   4.439   4.777  0.0867 -0.4463  1.0119
18366TIP3    H176513   4.910   4.412   4.686 -1.3839 -0.0409  0.6714
18366TIP3    H276514   4.805   4.429   4.793 -0.5219  3.5579  1.0851
18367TIP3   OH276515   3.762   3.030  17.044 -0.0733 -0.2812  0.7147
18367TIP3    H176516   3.850   3.066  17.055  0.7066 -2.2615  1.4419
18367TIP3    H276517   3.760   2.997  16.954 -0.2089  0.1162  0.5722
18368TIP3   OH276518   4.964   1.563   1.408 -0.2386 -0.0710  0.2538
18368TIP3    H176519   4.903   1.517   1.465  0.9183 -1.4946  0.4018
18368TIP3    H276520   4.908   1.617   1.351 -1.4451  1.0014  2.3437
18369TIP3   OH276521   4.366   3.521   6.010 -0.3447  0.4513  0.0189
18369TIP3    H176522   4.272   3.507   6.010 -0.0835 -1.5634  0.0545
18369TIP3    H276523   4.403   3.442   6.049  1.3600  1.3128  0.2845
18370TIP3   OH276524   3.117   5.098   5.478  0.0150 -0.5330 -0.2698
18370TIP3    H176525   3.028   5.080   5.449  0.0404  0.3455 -0.9455
18370TIP3    H276526   3.110   5.178   5.530  0.0594 -1.7801  1.7300
18371TIP3   OH276527   5.243   4.211   1.653  0.3323 -0.2649 -0.2479
18371TIP3    H176528   5.302   4.180   1.584  1.2009 -0.5612  0.6033
18371TIP3    H276529   5.183   4.139   1.668  0.4949 -0.4130 -0.3096
18372TIP3   OH276530   2.252   3.144  17.145 -0.0030  0.1140  0.3750
18372TIP3    H176531   2.287   3.074  17.200  0.3515  0.2060  0.2653
18372TIP3    H276532   2.302   3.139  17.064  1.1167  1.4826  0.9457
18373TIP3   OH276533   0.168   5.441  11.622  0.2081  0.7845 -0.5174
18373TIP3    H176534   0.109   5.515  11.603  2.4219  2.3345 -1.7730
18373TIP3    H276535   0.251   5.483  11.645  1.7763 -1.3009 -2.0501
18374TIP3   OH276536   0.076   6.270   0.334 -0.3049 -0.2221  0.0704
18374TIP3    H176537   0.107   6.264   0.243 -1.1280 -0.7154 -0.1938
18374TIP3    H276538   0.045   6.182   0.354 -0.9296  0.0903  0.5280
18375TIP3   OH276539   6.177   5.666  16.030 -0.1133  0.1067 -0.4599
18375TIP3    H176540   6.244   5.605  16.000 -0.2775  0.2250 -1.0805
18375TIP3    H276541   6.176   5.735  15.963  0.2742  0.9461  0.3712
18376TIP3   OH276542   3.893   0.233  12.148 -0.4732 -0.5453  0.0011
18376TIP3    H176543   3.868   0.163  12.209  0.3184 -0.6521  0.2179
18376TIP3    H276544   3.986   0.218  12.132 -0.1700  0.7320  0.4301
18377TIP3   OH276545   1.071   5.303   5.156  0.0245  0.2311 -0.1847
18377TIP3    H176546   1.094   5.393   5.181  0.0508  0.1405  0.1182
18377TIP3    H276547   1.154   5.255   5.164  0.5796  0.6633 -2.6198
18378TIP3   OH276548   0.988   0.719  11.809  0.4847  0.5588 -0.1250
18378TIP3    H176549   1.018   0.648  11.866 -0.2365  1.1788  1.0889
18378TIP3    H276550   1.068   0.755  11.772  0.8351 -1.1321 -1.1004
18379TIP3   OH276551   1.955   5.587  11.627  0.1919  0.3219  0.7374
18379TIP3    H176552   1.881   5.619  11.576 -0.5398 -1.1141  0.8381
18379TIP3    H276553   1.986   5.663  11.675 -2.4895  0.6175  2.2247
18380TIP3   OH276554   2.639   6.337   2.028 -0.2145 -0.3249  0.2487
18380TIP3    H176555   2.723   6.347   2.073  0.0385 -0.7639 -0.1192
18380TIP3    H276556   2.600   6.259   2.068 -0.7132  0.2100  0.8251
18381TIP3   OH276557   4.210   3.112   2.582  0.2049  0.7807 -0.5438
18381TIP3    H176558   4.139   3.065   2.625  0.3046  1.0774 -0.0578
18381TIP3    H276559   4.283   3.108   2.643  1.1381 -0.8954 -1.6842
18382TIP3   OH276560   0.420   2.589  13.252  0.5457 -0.2132  0.4282
18382TIP3    H176561   0.406   2.534  13.329  1.1203  0.0717  0.7507
18382TIP3    H276562   0.513   2.578  13.232  1.0151  1.6561  1.3214
18383TIP3   OH276563   2.851   1.936   1.656  0.7225  0.3577 -0.2848
18383TIP3    H176564   2.829   2.028   1.669  0.2316  0.1655  0.2599
18383TIP3    H276565   2.767   1.894   1.635  0.8947 -0.0143 -0.2363
18384TIP3   OH276566   5.589   2.264   4.878 -0.2009 -0.0659  0.3651
18384TIP3    H176567   5.674   2.266   4.922  0.3550  1.0371 -0.7069
18384TIP3    H276568   5.573   2.355   4.853  0.1083 -0.7763 -2.7812
18385TIP3   OH276569   0.876   2.902   0.564 -0.1287  0.2909 -0.0809
18385TIP3    H176570   0.797   2.937   0.522 -1.3577 -0.8802  1.1535
18385TIP3    H276571   0.849   2.816   0.598  1.1506  0.6400  1.9811
18386TIP3   OH276572   6.093   1.387   3.433 -0.0953 -0.0493  0.1341
18386TIP3    H176573   6.156   1.390   3.361  0.2775  0.4190  0.4850
18386TIP3    H276574   6.015   1.347   3.394  0.2351 -0.1456 -0.4331
18387TIP3   OH276575   1.539   4.259   2.128  0.0762  0.1818  0.3169
18387TIP3    H176576   1.559   4.345   2.165 -0.8904  1.5910 -2.1613
18387TIP3    H276577   1.452   4.237   2.163  0.1716  0.3810  0.6831
18388TIP3   OH276578   1.750   3.667   0.726  0.0760 -0.2027  0.0618
18388TIP3    H176579   1.819   3.601   0.723  0.3397  0.0139  0.9235
18388TIP3    H276580   1.784   3.739   0.672  0.5424 -0.0872  0.5009
18389TIP3   OH276581   2.158   6.667  13.051  0.2275 -0.2447 -0.4017
18389TIP3    H176582   2.189   6.655  13.141 -0.6877  0.2728 -0.0071
18389TIP3    H276583   2.159   6.762  13.037  0.5223 -0.3305 -0.9957
18390TIP3   OH276584   5.352   0.954  12.095  0.5823 -0.0823 -0.0432
18390TIP3    H176585   5.387   0.921  12.177  2.1953 -1.0276 -1.0538
18390TIP3    H276586   5.333   1.046  12.112  2.3080  0.1324  0.9753
18391TIP3   OH276587   3.090   5.003   3.129 -0.3690 -0.1138 -0.5594
18391TIP3    H176588   3.164   5.049   3.088 -0.9823  1.5979  0.1592
18391TIP3    H276589   3.027   4.991   3.058 -0.1428  0.0526 -0.7900
18392TIP3   OH276590   2.586   2.074   0.519  0.1370  0.0876 -0.0343
18392TIP3    H176591   2.618   2.033   0.439  1.0033  0.9227 -0.1260
18392TIP3    H276592   2.560   2.162   0.492 -0.9877 -0.1222  0.3115
18393TIP3   OH276593   1.990   5.668  14.433 -0.2823 -1.0667  0.1157
18393TIP3    H176594   2.076   5.625  14.438  0.3520 -0.0042 -0.9749
18393TIP3    H276595   1.960   5.650  14.344 -0.6570 -0.4763  0.1176
18394TIP3   OH276596   2.218   5.975   0.706 -0.0127 -0.0947  0.0445
18394TIP3    H176597   2.183   6.042   0.648 -0.4522 -0.1563  0.2332
18394TIP3    H276598   2.146   5.955   0.765 -0.5566 -2.1249 -1.2186
18395TIP3   OH276599   0.871   4.057   0.458 -0.0873 -0.2358  0.4207
18395TIP3    H176600   0.816   4.030   0.384  1.2691  0.9971 -1.1236
18395TIP3    H276601   0.960   4.035   0.431  0.5328  1.0560  1.2906
18396TIP3   OH276602   4.830   1.053   5.998 -0.5141  0.1396  0.1100
18396TIP3    H176603   4.743   1.014   6.006 -0.5106  0.1307  0.1062
18396TIP3    H276604   4.841   1.104   6.078 -0.0701 -0.7558  0.6359
18397TIP3   OH276605   6.193   2.255  11.114  0.2364 -0.7794 -0.2628
18397TIP3    H176606   6.280   2.290  11.093  0.3197 -0.0413  1.2298
18397TIP3    H276607   6.174   2.196  11.041  0.3859  1.8172 -2.5971
18398TIP3   OH276608   6.066   2.372  12.122  0.5604 -1.0226 -0.2832
18398TIP3    H176609   6.146   2.335  12.161  2.2673 -0.3511 -2.8812
18398TIP3    H276610   6.023   2.297  12.081  0.9193 -1.0860 -0.5531
18399TIP3   OH276611   4.162   4.142   4.423 -0.0601 -0.4267  0.3375
18399TIP3    H176612   4.255   4.125   4.407 -0.0128 -0.3784  0.5622
18399TIP3    H276613   4.121   4.055   4.418 -0.4856 -0.1700 -2.8029
18400TIP3   OH276614   3.637   4.566  16.990  0.0689  0.2443 -0.4221
18400TIP3    H176615   3.563   4.570  17.051 -0.2129  0.2949 -0.7658
18400TIP3    H276616   3.623   4.484  16.941 -0.3556  0.7889 -1.2340
18401TIP3   OH276617   2.837   5.632   3.492 -0.4780 -0.0250  0.3809
18401TIP3    H176618   2.780   5.610   3.566 -0.8290  1.9414  0.7644
18401TIP3    H276619   2.835   5.728   3.488  0.8894 -0.0108 -1.1319
18402TIP3   OH276620   4.984   2.957  12.353 -0.0979  0.6969 -0.0027
18402TIP3    H176621   4.923   2.964  12.427  0.5818  1.1687  0.5327
18402TIP3    H276622   5.047   2.891  12.380 -0.6028 -0.1118 -0.7416
18403TIP3   OH276623   0.095   1.394   2.214 -0.0500  0.5739  0.1694
18403TIP3    H176624   0.019   1.356   2.257 -0.0066  1.2422  0.8540
18403TIP3    H276625   0.075   1.487   2.208  0.6518  0.7340  0.2214
18404TIP3   OH276626   5.651   1.761   1.851 -0.2987  0.0157  0.0838
18404TIP3    H176627   5.602   1.679   1.842  1.1208 -0.7835 -0.5418
18404TIP3    H276628   5.671   1.787   1.761 -1.2409  1.3972  0.2401
18405TIP3   OH276629   1.330   2.905  14.622  0.0712  0.1283 -0.2255
18405TIP3    H176630   1.288   2.901  14.708  0.3158  1.8129 -0.0007
18405TIP3    H276631   1.304   2.823  14.579  0.2708 -0.9492  1.5788
18406TIP3   OH276632   0.497   3.906  11.496  0.3220  0.0501  0.0290
18406TIP3    H176633   0.557   3.873  11.563  0.3078  1.1438  0.6071
18406TIP3    H276634   0.412   3.869  11.521  0.1999  0.9217  0.9958
18407TIP3   OH276635   3.254   3.890   4.330 -0.2888  0.2694 -0.2467
18407TIP3    H176636   3.224   3.816   4.277 -2.9800  1.7592 -0.9632
18407TIP3    H276637   3.246   3.860   4.421 -0.7662 -0.5051 -0.5395
18408TIP3   OH276638   4.218   6.691   3.381  0.5462 -0.2141  0.3143
18408TIP3    H176639   4.249   6.609   3.342  0.2451 -1.1363  1.9388
18408TIP3    H276640   4.290   6.753   3.369  1.1584 -0.9924 -0.0601
18409TIP3   OH276641   0.690   5.904   1.603 -0.1788 -0.2373 -0.5042
18409TIP3    H176642   0.609   5.868   1.567  0.1290 -0.2946 -1.1550
18409TIP3    H276643   0.733   5.945   1.529  0.4881 -0.3885 -0.2084
18410TIP3   OH276644   4.017   5.189   0.287  0.0662 -0.4174 -0.2070
18410TIP3    H176645   3.933   5.145   0.276 -1.1792  1.7942 -0.2604
18410TIP3    H276646   4.069   5.162   0.211 -1.1818 -0.6072 -1.0208
18411TIP3   OH276647   5.132   4.768   1.848  0.6517 -0.3326  0.0453
18411TIP3    H176648   5.072   4.816   1.906  0.9586  0.6236 -0.4003
18411TIP3    H276649   5.080   4.695   1.816  0.4454 -0.8279  1.4424
18412TIP3   OH276650   4.944   2.383   0.223  0.8416 -0.0518  0.2722
18412TIP3    H176651   4.872   2.405   0.164  0.0714 -1.7444  0.5085
18412TIP3    H276652   5.023   2.391   0.168  0.5982  2.5004  0.2006
18413TIP3   OH276653   5.258   2.973   3.451 -0.2470 -0.3182 -0.1123
18413TIP3    H176654   5.215   2.893   3.480 -1.7835 -0.0543 -1.5359
18413TIP3    H276655   5.287   3.015   3.531 -0.6764 -1.5983  0.7487
18414TIP3   OH276656   6.479   2.151  16.537  0.2377  0.3725 -0.0658
18414TIP3    H176657   6.483   2.242  16.507  0.3646 -0.2995 -2.3223
18414TIP3    H276658   6.554   2.141  16.596  0.4267  1.6280 -0.0800
18415TIP3   OH276659   6.462   6.400  15.613  0.1255  0.8280  0.0028
18415TIP3    H176660   6.480   6.420  15.521 -3.9995 -1.5157 -1.6269
18415TIP3    H276661   6.514   6.322  15.631  1.2807  1.5404 -0.1482
18416TIP3   OH276662   3.426   3.522  11.380 -0.1296 -0.8019 -0.1734
18416TIP3    H176663   3.410   3.535  11.287  0.7399  0.1533 -0.2087
18416TIP3    H276664   3.522   3.526  11.389 -0.1416 -1.7661  0.6427
18417TIP3   OH276665   3.093   1.633   1.447 -0.6052  0.0452  0.2896
18417TIP3    H176666   3.099   1.662   1.538  0.7519 -1.2150  0.6485
18417TIP3    H276667   3.179   1.594   1.429  0.0635  2.3896 -2.3160
18418TIP3   OH276668   3.767   1.451   1.259 -0.0596 -0.0403  0.3803
18418TIP3    H176669   3.824   1.419   1.329  2.9090 -0.9438 -2.2355
18418TIP3    H276670   3.763   1.379   1.196 -0.5119  1.5787 -1.5471
18419TIP3   OH276671   3.524   6.275  15.237  0.3337  0.8508 -0.2705
18419TIP3    H176672   3.499   6.226  15.158  2.2651  0.2742 -0.5895
18419TIP3    H276673   3.490   6.363  15.222 -3.9223 -0.4250  0.6508
18420TIP3   OH276674   5.125   3.537   6.073  0.2497 -0.2932 -0.3145
18420TIP3    H176675   5.212   3.498   6.075  2.2770  3.6756 -0.5483
18420TIP3    H276676   5.113   3.573   6.161 -1.1969 -0.7395 -0.3030
18421TIP3   OH276677   1.986   3.226   1.628 -0.5599  0.2768  0.2201
18421TIP3    H176678   1.945   3.257   1.548 -1.1558  1.1698  0.8590
18421TIP3    H276679   1.915   3.186   1.679 -0.3311  0.3864  0.6349
18422TIP3   OH276680   1.312   5.165  15.281  0.1947  0.1425 -0.2558
18422TIP3    H176681   1.240   5.104  15.262 -0.5670  0.7381  0.6176
18422TIP3    H276682   1.271   5.252  15.280  1.4159  0.7664 -2.3147
18423TIP3   OH276683   2.635   2.010  13.032  0.1857 -0.2353 -0.1106
18423TIP3    H176684   2.645   2.010  12.937 -1.1681  2.9263 -0.4074
18423TIP3    H276685   2.552   1.964  13.048 -0.5957  0.9087 -0.7177
18424TIP3   OH276686   4.781   0.456   1.233 -0.9002  0.0934  0.3058
18424TIP3    H176687   4.793   0.402   1.155  1.4436  0.4090  0.3739
18424TIP3    H276688   4.809   0.401   1.305 -1.6971  0.2943  0.7855
18425TIP3   OH276689   5.151   2.740   2.322  0.5013 -0.0551  0.1866
18425TIP3    H176690   5.112   2.714   2.239  0.5275  0.0730  0.1336
18425TIP3    H276691   5.081   2.789   2.367  0.7315  0.5374 -0.0861
18426TIP3   OH276692   0.940   1.871  12.966 -0.3232  0.2825  0.4785
18426TIP3    H176693   1.010   1.843  13.025  1.2620  0.9321 -1.0083
18426TIP3    H276694   0.938   1.966  12.975 -1.0926  0.2710  0.5428
18427TIP3   OH276695   5.085   4.333   2.561 -0.2411  0.5855 -0.0781
18427TIP3    H176696   5.055   4.266   2.501 -0.9187  0.6054  0.2213
18427TIP3    H276697   5.004   4.373   2.595  0.1399  1.2469  0.0831
18428TIP3   OH276698   4.809   0.205   0.627 -0.4589 -0.3720  0.6427
18428TIP3    H176699   4.800   0.300   0.639  1.4390 -0.2495  1.3939
18428TIP3    H276700   4.720   0.171   0.638 -1.0683  1.2584  0.9987
18429TIP3   OH276701   4.830   1.803  14.309 -0.1838  0.2319  0.4326
18429TIP3    H176702   4.922   1.776  14.304 -0.0211  0.5752  1.3645
18429TIP3    H276703   4.782   1.727  14.276  0.3765 -0.4063  1.0414
18430TIP3   OH276704   0.962   0.350   0.094 -0.4367 -0.5639 -0.1705
18430TIP3    H176705   0.943   0.379   0.005  0.2128 -0.1690 -0.1877
18430TIP3    H276706   0.882   0.306   0.122 -1.3327  0.9567 -0.2583
18431TIP3   OH276707   1.320   2.586   0.396  1.0944 -0.1928  0.0162
18431TIP3    H176708   1.308   2.609   0.304 -0.2723  0.5290  0.3526
18431TIP3    H276709   1.232   2.567   0.428  1.5539 -0.4335  1.1717
18432TIP3   OH276710   2.730   5.378   0.487  0.5804 -0.1914  0.8367
18432TIP3    H176711   2.699   5.397   0.398 -0.0421  1.5376  1.3775
18432TIP3    H276712   2.817   5.341   0.475  0.8613  0.8308 -0.4638
18433TIP3   OH276713   3.128   1.965  11.433 -0.0336  0.2333 -0.0166
18433TIP3    H176714   3.036   1.981  11.415 -0.9787 -0.5164  3.3864
18433TIP3    H276715   3.139   1.870  11.420  0.1143  0.2270  0.1531
18434TIP3   OH276716   0.018   5.869   3.158  0.6022  0.7389  0.0277
18434TIP3    H176717   0.048   5.893   3.071  0.2219  0.1789 -0.2695
18434TIP3    H276718   0.016   5.773   3.157 -1.2774  0.7299 -0.0323
18435TIP3   OH276719   3.702   0.249   4.466 -0.1908 -0.3465 -0.4375
18435TIP3    H176720   3.710   0.192   4.390 -1.7586  0.1430 -1.0155
18435TIP3    H276721   3.720   0.337   4.431  1.0779 -0.3180  0.2082
18436TIP3   OH276722   2.079   5.307   2.481 -0.1138 -0.5063 -0.2543
18436TIP3    H176723   2.118   5.384   2.523 -1.6301 -0.6178  1.4774
18436TIP3    H276724   2.146   5.277   2.419  2.4750 -0.5651  2.3573
18437TIP3   OH276725   3.518   3.746   6.084 -0.3491 -0.0904 -0.1251
18437TIP3    H176726   3.435   3.711   6.116 -0.3481 -0.0164 -0.0413
18437TIP3    H276727   3.509   3.841   6.093  0.0524 -0.1170  0.6426
18438TIP3   OH276728   2.552   0.591  14.089 -0.5745 -0.2460  0.0436
18438TIP3    H176729   2.623   0.650  14.116 -0.4779 -0.0678 -0.5791
18438TIP3    H276730   2.565   0.580  13.995 -2.3445  1.1040 -0.4094
18439TIP3   OH276731   4.982   1.481   0.694 -0.7092  0.3105 -0.2414
18439TIP3    H176732   4.967   1.438   0.778  0.5311 -0.0770 -0.1971
18439TIP3    H276733   4.914   1.549   0.689 -1.6592 -0.5572  0.4286
18440TIP3   OH276734   3.201   1.326   0.610  0.0890 -0.2594  0.0382
18440TIP3    H176735   3.193   1.257   0.543 -1.3087 -0.9093  0.8171
18440TIP3    H276736   3.163   1.403   0.569  2.2668  0.2998 -1.0877
18441TIP3   OH276737   3.646   0.572  13.202 -0.2754 -0.1631 -0.1774
18441TIP3    H176738   3.700   0.573  13.123  1.2602 -1.9233  0.7528
18441TIP3    H276739   3.674   0.649  13.251 -0.1028  0.0727 -0.6360
18442TIP3   OH276740   6.625   5.160  11.501 -0.3523  0.2173  1.0842
18442TIP3    H176741   6.676   5.160  11.582 -0.3242 -1.3661  1.0929
18442TIP3    H276742   6.539   5.127  11.526 -0.4356 -0.0024  0.5152
18443TIP3   OH276743   1.944   1.414  12.971  0.0135 -0.6340 -0.0004
18443TIP3    H176744   1.883   1.474  13.015  1.3314  0.1795  0.7874
18443TIP3    H276745   1.983   1.364  13.042  0.0217 -1.3867 -0.5299
18444TIP3   OH276746   3.260   4.510   1.248  0.1128  0.5257 -0.7171
18444TIP3    H176747   3.299   4.503   1.335  0.1549 -1.8416 -0.8700
18444TIP3    H276748   3.187   4.570   1.259  2.7023  3.8542 -0.0900
18445TIP3   OH276749   3.364   0.281   1.997  0.2863 -0.1263  0.0736
18445TIP3    H176750   3.277   0.241   1.995  0.4605 -0.6382  1.4874
18445TIP3    H276751   3.373   0.313   2.087  1.7343 -0.4967  0.0870
18446TIP3   OH276752   1.257   4.797   0.705  0.2235  0.0638 -0.0887
18446TIP3    H176753   1.217   4.828   0.786  1.3518 -0.1040  0.5614
18446TIP3    H276754   1.338   4.848   0.697  0.6852 -0.7040 -0.4999
18447TIP3   OH276755   1.143   1.242   0.483 -0.3559  0.6445 -0.0700
18447TIP3    H176756   1.236   1.222   0.477 -0.5326 -1.2296  1.9937
18447TIP3    H276757   1.137   1.312   0.548 -0.4234  0.5033  0.0750
18448TIP3   OH276758   2.371   0.607   3.827 -0.3012  0.2725  0.2255
18448TIP3    H176759   2.331   0.520   3.823 -3.8524  1.7537 -0.9326
18448TIP3    H276760   2.364   0.640   3.737 -1.2416  2.5761  1.0694
18449TIP3   OH276761   4.028   0.975  15.065 -0.2712  0.2794 -0.2514
18449TIP3    H176762   4.034   0.992  15.159 -3.7336  0.2955  0.1117
18449TIP3    H276763   3.967   1.041  15.033 -2.3362 -2.1224 -1.6461
18450TIP3   OH276764   2.913   0.921  15.507 -0.1576 -0.0201  0.6618
18450TIP3    H176765   2.959   0.988  15.457  0.0516 -0.4136  0.3170
18450TIP3    H276766   2.894   0.853  15.443 -2.1309  0.5690  0.5634
18451TIP3   OH276767   4.632   4.840   6.413  0.3561 -0.3027  0.0296
18451TIP3    H176768   4.573   4.843   6.489 -2.0181 -0.1686 -1.7026
18451TIP3    H276769   4.657   4.931   6.399  1.4497 -0.4147  1.0596
18452TIP3   OH276770   4.421   1.008   2.047  0.0286  0.3377 -0.4772
18452TIP3    H176771   4.351   0.959   2.003 -0.9292  0.0919  1.2417
18452TIP3    H276772   4.463   1.057   1.977 -0.9247 -0.6291 -1.7838
18453TIP3   OH276773   2.845   5.114  14.317  0.0087  0.4355  1.2571
18453TIP3    H176774   2.913   5.050  14.339  0.1121  0.4757  1.0503
18453TIP3    H276775   2.871   5.149  14.232  0.3120  1.2425  1.6774
18454TIP3   OH276776   0.090   3.607  12.729 -0.5721  0.2423 -0.0938
18454TIP3    H176777   0.055   3.696  12.727  1.0391  1.1013  3.0534
18454TIP3    H276778   0.012   3.551  12.727 -1.9226  1.8937  1.8631
18455TIP3   OH276779   1.602   3.821   4.467  0.4357 -0.6091 -0.3913
18455TIP3    H176780   1.574   3.905   4.432  1.4040 -0.8033 -1.6960
18455TIP3    H276781   1.617   3.837   4.561 -2.4890 -0.1567  0.0804
18456TIP3   OH276782   6.498   2.949   0.403 -0.4337 -0.0694 -0.2587
18456TIP3    H176783   6.588   2.978   0.392 -0.9880  2.2598  0.7058
18456TIP3    H276784   6.500   2.894   0.481 -0.0788  1.4282  0.8353
18457TIP3   OH276785   3.864   5.072   3.771 -0.9734  0.8562  0.2354
18457TIP3    H176786   3.800   5.066   3.843 -0.2797  2.2646  1.0173
18457TIP3    H276787   3.894   4.982   3.759 -1.5752  0.4930  1.2749
18458TIP3   OH276788   1.592   1.918  12.402 -0.4843  0.2675  0.2180
18458TIP3    H176789   1.641   1.848  12.358 -2.1212 -0.2450 -0.8571
18458TIP3    H276790   1.660   1.968  12.448  1.2285  0.2559 -2.0875
18459TIP3   OH276791   3.874   3.381   1.255  0.2155 -0.4728  0.1764
18459TIP3    H176792   3.870   3.469   1.218 -3.1172 -0.4763  0.2446
18459TIP3    H276793   3.926   3.391   1.335 -1.5016  1.8599  1.0996
18460TIP3   OH276794   6.740   3.234   2.392  0.7116  0.2876 -0.0262
18460TIP3    H176795   6.706   3.250   2.480  1.7244  0.9809  0.2528
18460TIP3    H276796   6.666   3.195   2.345  0.1863 -0.1878  1.1499
18461TIP3   OH276797   4.935   5.008   5.449 -0.5672 -0.2880 -0.5814
18461TIP3    H176798   4.848   4.977   5.474 -0.1584  0.8486  2.6992
18461TIP3    H276799   4.995   4.960   5.506  0.6148  1.5057 -0.2336
18462TIP3   OH276800   3.524   2.071  16.041 -0.4961  0.3902 -0.0699
18462TIP3    H176801   3.438   2.033  16.060  0.7649 -3.2413 -0.9576
18462TIP3    H276802   3.543   2.044  15.952  2.2379 -0.2870  0.6333
18463TIP3   OH276803   1.989   3.016   0.434 -0.1552 -0.3360 -0.0396
18463TIP3    H176804   2.024   2.953   0.372  0.0871 -0.7331  0.4884
18463TIP3    H276805   1.946   3.082   0.380  0.7276 -0.2613 -0.6606
18464TIP3   OH276806   3.117   0.122  15.122 -0.0570  0.0872 -0.2318
18464TIP3    H176807   3.162   0.105  15.039 -1.1738  0.9510 -1.0421
18464TIP3    H276808   3.178   0.178  15.171  0.8752 -0.9280 -0.1791
18465TIP3   OH276809   5.054   4.262  14.040 -0.3886 -0.7723 -0.6344
18465TIP3    H176810   5.122   4.245  14.105 -0.4778  0.1394 -0.2930
18465TIP3    H276811   5.091   4.230  13.958  1.5699  2.0090 -0.9592
18466TIP3   OH276812   2.434   6.045   1.538  0.5240  0.0573  0.6201
18466TIP3    H176813   2.523   6.065   1.508  0.4053  0.6937  0.6702
18466TIP3    H276814   2.408   6.123   1.588  0.0797 -0.2793  0.9190
18467TIP3   OH276815   3.210   3.755  11.069  0.4073  0.5636 -0.0398
18467TIP3    H176816   3.187   3.667  11.101  1.6393  0.8153  1.7044
18467TIP3    H276817   3.292   3.742  11.021  0.9437  0.8374  0.7878
18468TIP3   OH276818   0.478   4.272  14.172 -0.3842 -0.3054 -0.3338
18468TIP3    H176819   0.483   4.319  14.255  2.1287 -0.5333 -0.2642
18468TIP3    H276820   0.399   4.219  14.179 -0.7094  0.3563  1.5407
18469TIP3   OH276821   3.657   6.106   1.926  0.1854  0.1803  0.3364
18469TIP3    H176822   3.646   6.014   1.902 -0.1527  0.4027 -0.3909
18469TIP3    H276823   3.588   6.152   1.879 -0.0520  0.7357  1.1975
18470TIP3   OH276824   1.326   5.096   1.165  0.4160 -0.8816  0.7225
18470TIP3    H176825   1.249   5.071   1.216 -0.3344 -0.1105 -0.0064
18470TIP3    H276826   1.345   5.019   1.111  0.2675 -1.1385  1.0372
18471TIP3   OH276827   4.547   0.631  16.463  0.1748 -0.5596 -0.9626
18471TIP3    H176828   4.481   0.583  16.413 -2.3968  0.3430  1.3369
18471TIP3    H276829   4.517   0.722  16.461  2.4721  0.2702 -1.4292
18472TIP3   OH276830   2.959   0.523   4.177  0.6095 -0.0526 -0.0677
18472TIP3    H176831   3.023   0.476   4.124 -0.4373 -2.5472  0.7344
18472TIP3    H276832   2.886   0.462   4.186  0.1226  0.8243  2.9775
18473TIP3   OH276833   2.005   3.118  12.748 -0.1195  0.1168 -0.2229
18473TIP3    H176834   2.022   3.030  12.780  1.7260 -0.1687 -1.8103
18473TIP3    H276835   2.081   3.169  12.777 -1.0839  1.1846  0.5361
18474TIP3   OH276836   2.203   2.933   3.459  0.3113  0.0572 -0.2111
18474TIP3    H176837   2.265   2.866   3.429 -1.4255 -2.0504  0.6208
18474TIP3    H276838   2.132   2.930   3.395 -0.0366  0.7726  0.1322
18475TIP3   OH276839   6.061   0.650   3.715 -0.1918 -0.3250 -0.0473
18475TIP3    H176840   6.072   0.612   3.628 -0.0945 -3.0468  1.0435
18475TIP3    H276841   5.988   0.602   3.754 -0.4416  1.0344  1.2778
18476TIP3   OH276842   3.947   1.873   2.023 -0.0989  0.1157 -0.1498
18476TIP3    H176843   4.011   1.812   2.060  0.1557  0.3144 -0.2656
18476TIP3    H276844   3.862   1.831   2.040  0.1172 -0.6860 -0.9799
18477TIP3   OH276845   3.211   3.539   5.775  0.6714 -0.6550 -0.2762
18477TIP3    H176846   3.197   3.462   5.719 -0.7991 -0.7411  0.1588
18477TIP3    H276847   3.257   3.505   5.852 -0.1787 -1.1625  0.0209
18478TIP3   OH276848   6.597   1.188   4.263 -0.6492 -0.2759  0.1380
18478TIP3    H176849   6.688   1.158   4.255 -0.7689 -1.0440  1.3749
18478TIP3    H276850   6.589   1.214   4.355 -1.6176  0.0073 -0.0205
18479TIP3   OH276851   1.931   3.822   1.513 -0.3349  0.2234  0.1474
18479TIP3    H176852   1.947   3.812   1.607 -0.9011 -0.5640  0.1692
18479TIP3    H276853   1.938   3.733   1.478  0.6229  0.6152 -0.6852
18480TIP3   OH276854   3.003   0.233   1.198 -0.8579 -0.2008  0.0093
18480TIP3    H176855   2.970   0.144   1.185  1.1624 -0.9374 -0.4948
18480TIP3    H276856   2.972   0.258   1.285 -0.1959 -2.0293  0.8277
18481TIP3   OH276857   5.158   5.265   2.887 -0.2142 -0.2954 -0.4067
18481TIP3    H176858   5.063   5.252   2.891 -0.1612 -1.0867 -1.2448
18481TIP3    H276859   5.182   5.237   2.798  0.4674  2.1830 -1.1088
18482TIP3   OH276860   4.228   2.343  16.422 -0.1716  0.0252 -0.1952
18482TIP3    H176861   4.144   2.312  16.388 -1.1152  0.7967  1.3057
18482TIP3    H276862   4.227   2.318  16.514  1.3448 -0.0970 -0.1873
18483TIP3   OH276863   3.682   6.686  13.156 -0.4298  0.0247  0.5289
18483TIP3    H176864   3.711   6.768  13.117  0.1116 -0.5444 -0.2951
18483TIP3    H276865   3.708   6.619  13.093 -0.2959 -0.8430  1.4805
18484TIP3   OH276866   6.300   4.377  11.435  0.0385  0.5521  0.0215
18484TIP3    H176867   6.316   4.446  11.371 -1.0740 -0.9580 -1.9916
18484TIP3    H276868   6.223   4.406  11.483  0.5407  1.4281  0.3318
18485TIP3   OH276869   2.515   3.016   3.001  0.6647  0.0297  0.4069
18485TIP3    H176870   2.443   3.043   2.944 -1.7426 -1.9456  2.2899
18485TIP3    H276871   2.580   2.979   2.941  0.0011  1.5166 -1.3282
18486TIP3   OH276872   0.563   4.968   3.592  0.3767 -0.5491 -0.2126
18486TIP3    H176873   0.558   4.968   3.496 -1.8361  3.3547 -0.2727
18486TIP3    H276874   0.632   5.031   3.612 -0.2882 -0.1196  0.7603
18487TIP3   OH276875   5.291   6.195  11.356 -0.2710  0.2475 -0.5671
18487TIP3    H176876   5.270   6.279  11.317  0.3482  0.9755  0.6262
18487TIP3    H276877   5.372   6.168  11.314  1.2411  1.7621  1.2341
18488TIP3   OH276878   1.659   6.484   1.742 -0.5554  0.3617  0.2781
18488TIP3    H176879   1.639   6.459   1.652 -0.1578  2.1591 -0.3580
18488TIP3    H276880   1.578   6.521   1.775 -0.8615 -0.8031  0.8762
18489TIP3   OH276881   4.030   1.878   3.307  0.3311 -0.7720  0.0531
18489TIP3    H176882   4.112   1.880   3.258  0.4376 -0.4093  0.2450
18489TIP3    H276883   3.986   1.960   3.286 -0.1177 -1.0914 -0.2716
18490TIP3   OH276884   2.887   2.986   0.765 -0.3909  0.4298 -0.1428
18490TIP3    H176885   2.824   2.967   0.695 -3.6660 -0.9607  2.9169
18490TIP3    H276886   2.914   2.899   0.796  0.6410  1.0108  0.6339
18491TIP3   OH276887   4.798   2.889   3.102 -0.2575 -0.6041  0.0112
18491TIP3    H176888   4.860   2.818   3.088 -0.2486 -0.8035  1.0431
18491TIP3    H276889   4.772   2.882   3.194 -1.2000 -0.0336 -0.1909
18492TIP3   OH276890   5.232   0.093  16.753  0.4540 -0.2903  0.2323
18492TIP3    H176891   5.258   0.045  16.832  0.0012 -1.0350 -0.0522
18492TIP3    H276892   5.188   0.027  16.699  0.6106  0.2473 -0.5689
18493TIP3   OH276893   4.430   0.278  14.588  0.0164  0.2131 -0.0798
18493TIP3    H176894   4.384   0.229  14.656  2.2403 -0.3760  1.0841
18493TIP3    H276895   4.394   0.244  14.506 -2.6380  0.8503  0.7191
18494TIP3   OH276896   6.593   5.419  14.238 -0.1224 -0.8347  0.4813
18494TIP3    H176897   6.506   5.384  14.218  0.5244 -1.6229 -1.0664
18494TIP3    H276898   6.602   5.407  14.333 -1.2779 -1.6955  0.5026
18495TIP3   OH276899   3.395   1.981   4.871 -0.0534 -0.1851 -0.7294
18495TIP3    H176900   3.426   2.030   4.795  1.5764 -1.7418 -1.1125
18495TIP3    H276901   3.397   1.890   4.844  1.2600 -0.8560  1.3806
18496TIP3   OH276902   5.368   4.531   5.081  0.3858  0.3538  0.7744
18496TIP3    H176903   5.276   4.505   5.077  0.7185 -0.7941 -0.0329
18496TIP3    H276904   5.413   4.471   5.021  1.7558  0.4949  1.6060
18497TIP3   OH276905   0.544   1.734   5.564  0.0397 -0.5968 -0.0344
18497TIP3    H176906   0.605   1.721   5.637  0.0592 -0.9571 -0.1140
18497TIP3    H276907   0.595   1.780   5.498  0.6476 -2.0711 -0.6509
18498TIP3   OH276908   5.457   3.343  11.134  0.1431  0.1759  0.2474
18498TIP3    H176909   5.488   3.375  11.050  1.1538  2.3928  1.3842
18498TIP3    H276910   5.445   3.422  11.188  1.1697 -1.2244  2.7096
18499TIP3   OH276911   0.612   5.000  14.145 -0.0370 -0.5468  0.5829
18499TIP3    H176912   0.643   5.090  14.139  0.6637 -0.5483  3.1502
18499TIP3    H276913   0.537   5.004  14.204 -1.4722 -1.3882 -1.0578
18500TIP3   OH276914   0.540   0.591  11.977  0.0687  0.3159  0.0407
18500TIP3    H176915   0.456   0.635  11.962 -0.1581 -0.0842  0.1237
18500TIP3    H276916   0.522   0.499  11.958  0.7392  0.3699 -0.9442
18501TIP3   OH276917   1.722   2.544  11.990  0.7332 -0.2454 -0.2867
18501TIP3    H176918   1.702   2.620  11.936 -0.3408  0.1878  0.6770
18501TIP3    H276919   1.709   2.469  11.932  2.1478  0.3026 -1.3401
18502TIP3   OH276920   6.305   4.267   4.084  0.0936 -0.1347  0.2249
18502TIP3    H176921   6.224   4.230   4.049  0.4329 -0.2394 -0.4704
18502TIP3    H276922   6.303   4.245   4.177  0.0149 -1.4085 -0.0646
18503TIP3   OH276923   2.389   1.330  12.670  0.1896  0.1694  0.3669
18503TIP3    H176924   2.407   1.242  12.638 -1.5785 -0.3495  0.6962
18503TIP3    H276925   2.475   1.365  12.692  1.0937 -0.8792 -1.2196
18504TIP3   OH276926   2.410   3.995   5.114 -0.2051 -0.2866 -0.4339
18504TIP3    H176927   2.393   3.960   5.201  0.0523  0.1032 -0.2247
18504TIP3    H276928   2.387   4.087   5.120 -1.0189 -0.4426 -1.0249
18505TIP3   OH276929   0.981   5.403   4.693 -0.0002 -0.2955 -0.2738
18505TIP3    H176930   0.978   5.308   4.703  1.0442 -0.1528  1.8367
18505TIP3    H276931   0.890   5.428   4.677 -0.5582 -1.4873  0.8328
18506TIP3   OH276932   6.020   1.509  10.569 -0.2473 -0.1713  0.0062
18506TIP3    H176933   5.999   1.543  10.656  0.9987 -1.2485  0.7672
18506TIP3    H276934   5.941   1.522  10.517 -0.4873  1.9370  0.8413
18507TIP3   OH276935   2.989   4.716   1.748 -0.4089  0.3445  0.2066
18507TIP3    H176936   3.075   4.680   1.770 -0.2597  1.1600  1.0774
18507TIP3    H276937   2.932   4.687   1.820 -0.7173  0.2872 -0.0607
18508TIP3   OH276938   5.259   2.088   4.768 -0.3716 -0.1362  0.2345
18508TIP3    H176939   5.278   2.115   4.858  0.8386 -0.5455  0.1273
18508TIP3    H276940   5.192   2.020   4.777  0.2767 -0.7086  0.9034
18509TIP3   OH276941   0.166   4.632  11.618  0.1082  0.7131  0.9104
18509TIP3    H176942   0.226   4.691  11.572 -0.5487  1.5889  1.1430
18509TIP3    H276943   0.149   4.675  11.702  0.2211 -0.1981  1.4195
18510TIP3   OH276944   0.368   3.225   2.916  0.1456  0.5423  0.4005
18510TIP3    H176945   0.319   3.144   2.899 -1.0141  1.2931  0.0763
18510TIP3    H276946   0.327   3.290   2.858  0.0523  1.7364  1.7644
18511TIP3   OH276947   6.246   4.139  14.195  0.3881  0.0550 -0.3251
18511TIP3    H176948   6.341   4.135  14.189  0.4560 -1.1165  1.0669
18511TIP3    H276949   6.215   4.102  14.112  1.1038  1.6573 -1.3553
18512TIP3   OH276950   3.934   1.638   1.156 -0.2023  0.2910 -0.0863
18512TIP3    H176951   3.953   1.571   1.091 -0.3271 -1.3668  1.4929
18512TIP3    H276952   3.867   1.598   1.212 -0.2674  1.7408  0.9202
18513TIP3   OH276953   2.165   4.526   0.931 -0.0689  0.3012 -0.4132
18513TIP3    H176954   2.207   4.451   0.973  0.2188  0.4251 -0.4793
18513TIP3    H276955   2.119   4.571   1.003 -0.0394  0.1995 -0.3304
18514TIP3   OH276956   5.234   2.487  15.286 -0.2841 -0.5370 -0.2057
18514TIP3    H176957   5.271   2.500  15.373 -1.3329  2.9663 -0.1162
18514TIP3    H276958   5.139   2.482  15.301 -0.4099 -0.9689 -1.0696
18515TIP3   OH276959   1.310   4.799   2.341 -0.2491  0.1599 -0.5360
18515TIP3    H176960   1.333   4.892   2.338  0.3710 -0.0020 -1.9269
18515TIP3    H276961   1.216   4.796   2.327 -0.3968  0.6161  0.3483
18516TIP3   OH276962   2.653   1.986   4.921 -0.5656 -0.0909 -0.0221
18516TIP3    H176963   2.686   1.902   4.889  0.6421 -0.4643  2.0140
18516TIP3    H276964   2.570   1.964   4.964 -0.8218 -0.0241 -0.4678
18517TIP3   OH276965   5.603   6.305  13.964 -0.0250 -0.3858  0.1789
18517TIP3    H176966   5.604   6.210  13.959  0.4410 -0.5105  2.1141
18517TIP3    H276967   5.675   6.333  13.907 -1.1049 -1.0710 -1.6048
18518TIP3   OH276968   3.179   1.439   5.065 -0.4009 -0.3001  0.1665
18518TIP3    H176969   3.121   1.367   5.089 -0.6054 -1.1330 -2.5472
18518TIP3    H276970   3.261   1.419   5.110 -1.1010 -1.0250  1.1724
18519TIP3   OH276971   3.136   5.834  13.249  0.3566  0.0300 -0.1743
18519TIP3    H176972   3.188   5.866  13.175 -0.1313  1.2419 -0.0110
18519TIP3    H276973   3.063   5.788  13.208 -0.3597  1.4036 -0.4862
18520TIP3   OH276974   0.129   4.314   4.283 -0.3352  0.0719  0.2779
18520TIP3    H176975   0.036   4.336   4.291 -0.0162  1.8284 -0.4234
18520TIP3    H276976   0.174   4.383   4.331  0.6713  0.0201 -0.5732
18521TIP3   OH276977   5.663   0.667  14.218 -0.1491  0.3077  0.2038
18521TIP3    H176978   5.609   0.722  14.161  1.9866  2.6466  0.2157
18521TIP3    H276979   5.694   0.597  14.161 -2.4593 -0.6602  0.0196
18522TIP3   OH276980   1.509   4.249   2.443  0.2181  0.3694 -0.5566
18522TIP3    H176981   1.518   4.317   2.377  1.5426 -0.1051 -0.8893
18522TIP3    H276982   1.589   4.256   2.496 -0.0287 -0.3650 -0.0661
18523TIP3   OH276983   5.023   5.741  15.611  0.0881  0.5128  0.2944
18523TIP3    H176984   5.084   5.668  15.606 -1.8253 -1.3016  1.5407
18523TIP3    H276985   5.055   5.805  15.547  2.9189 -0.5532  0.5399
18524TIP3   OH276986   0.498   4.483  15.348 -0.2096 -0.0571  0.0793
18524TIP3    H176987   0.436   4.411  15.352 -2.3454  1.6991  0.4413
18524TIP3    H276988   0.520   4.490  15.255  0.8903 -1.7961  0.1603
18525TIP3   OH276989   5.098   6.341   3.403  0.1669 -0.4170  0.3054
18525TIP3    H176990   5.014   6.307   3.431  0.5674  0.1530  2.3847
18525TIP3    H276991   5.121   6.289   3.326 -2.5231  0.1116 -0.9604
18526TIP3   OH276992   3.779   5.693  16.845 -0.4214  0.1971  0.0221
18526TIP3    H176993   3.775   5.789  16.843 -0.2392  0.2192  0.6227
18526TIP3    H276994   3.721   5.665  16.774  1.2316  0.7838 -1.6483
18527TIP3   OH276995   3.600   1.264  16.870 -0.0861  0.1719 -0.1186
18527TIP3    H176996   3.694   1.259  16.885 -0.3569  0.1221  1.7693
18527TIP3    H276997   3.561   1.258  16.957 -1.7619  2.3268 -0.6265
18528TIP3   OH276998   0.282   0.829  13.431 -0.4096 -0.1893 -0.1562
18528TIP3    H176999   0.294   0.914  13.389 -1.9341 -0.3176 -0.9304
18528TIP3    H277000   0.371   0.798  13.449  0.2283  0.7378 -1.5418
18529TIP3   OH277001   5.866   5.930   3.073 -0.5093  0.2288 -0.7976
18529TIP3    H177002   5.928   5.974   3.015 -1.2124  0.2299 -1.5530
18529TIP3    H277003   5.919   5.866   3.121  0.4925  1.6859  0.1397
18530TIP3   OH277004   4.939   6.159  13.955 -0.3407 -0.3228 -0.1227
18530TIP3    H177005   5.028   6.188  13.932 -0.7973  0.0793 -1.4843
18530TIP3    H277006   4.950   6.069  13.982  0.6383  0.0613  0.8180
18531TIP3   OH277007   5.347   2.704   3.202 -0.1238  0.0007 -0.2911
18531TIP3    H177008   5.317   2.789   3.171 -0.1913 -0.2447 -0.9170
18531TIP3    H277009   5.317   2.642   3.135  0.2488 -0.4663 -0.0338
18532TIP3   OH277010   6.216   5.117  13.552  0.0369 -0.9752 -0.4421
18532TIP3    H177011   6.210   5.137  13.646 -2.1091 -1.4657 -0.4314
18532TIP3    H277012   6.308   5.131  13.531  0.0919  1.9453  1.1190
18533TIP3   OH277013   5.410   1.659  16.732 -0.2703 -0.0314  0.0072
18533TIP3    H177014   5.343   1.686  16.794 -0.5996  0.6146 -0.6082
18533TIP3    H277015   5.383   1.699  16.649 -1.5483 -3.3156 -1.3338
18534TIP3   OH277016   2.378   2.885  15.969 -0.0311 -0.3661 -0.1879
18534TIP3    H177017   2.319   2.809  15.970  0.2702 -0.5967  0.4929
18534TIP3    H277018   2.430   2.874  15.889 -0.7944 -0.2436 -0.7147
18535TIP3   OH277019   6.176   3.973   6.256  0.2695  0.8667  0.2018
18535TIP3    H177020   6.089   3.935   6.248  0.7300 -0.5473  1.5029
18535TIP3    H277021   6.173   4.028   6.334  0.3092  1.5732 -0.2757
18536TIP3   OH277022   5.267   6.208   1.669 -0.3702 -0.5898 -0.0554
18536TIP3    H177023   5.344   6.172   1.624  0.7560  1.3398  0.2199
18536TIP3    H277024   5.285   6.193   1.762 -0.1919  0.1132  0.0251
18537TIP3   OH277025   3.650   1.396   0.294 -0.2169  0.1595  0.3912
18537TIP3    H177026   3.715   1.457   0.260  0.0351 -0.5810 -0.5073
18537TIP3    H277027   3.572   1.449   0.308  0.3313  0.8999  0.7251
18538TIP3   OH277028   6.451   1.636  11.368  0.0256 -0.2073 -0.2272
18538TIP3    H177029   6.510   1.567  11.337  0.2308  0.4891 -1.3955
18538TIP3    H277030   6.506   1.714  11.376  0.1445 -0.4577  2.5283
18539TIP3   OH277031   1.218   4.009  13.525  0.6786  0.3883 -0.5216
18539TIP3    H177032   1.231   4.082  13.586  0.4122  0.5327 -0.6352
18539TIP3    H277033   1.126   4.015  13.501  0.8088  0.3902 -1.0145
18540TIP3   OH277034   2.394   5.184  11.071  0.5878  0.0855  0.5204
18540TIP3    H177035   2.381   5.100  11.026  0.2414  1.8463 -3.0588
18540TIP3    H277036   2.338   5.245  11.023 -0.4495  2.1472  4.0383
18541TIP3   OH277037   5.677   4.660  13.798 -0.4151  0.4055 -0.7390
18541TIP3    H177038   5.596   4.649  13.749 -1.2807  4.1776 -0.4593
18541TIP3    H277039   5.730   4.718  13.743  1.9531 -1.5307 -0.6572
18542TIP3   OH277040   5.306   1.959   2.553  0.4289 -0.0240 -0.6452
18542TIP3    H177041   5.348   1.932   2.635 -0.7754  0.3393  0.1071
18542TIP3    H277042   5.220   1.918   2.555  0.5705 -0.4628 -2.0063
18543TIP3   OH277043   0.761   0.894   6.044 -0.1887 -0.0040  0.1134
18543TIP3    H177044   0.732   0.985   6.050 -2.7444 -0.6506 -1.1241
18543TIP3    H277045   0.826   0.885   6.113  0.5820  2.8886 -0.0957
18544TIP3   OH277046   4.915   3.113   2.129  0.4084  0.2464  0.8296
18544TIP3    H177047   4.952   3.150   2.049 -0.0320 -1.5477 -0.2688
18544TIP3    H277048   4.843   3.172   2.152 -0.2375  0.1590 -0.8119
18545TIP3   OH277049   0.021   6.574   4.968  0.3126  0.2113 -0.0165
18545TIP3    H177050  -0.059   6.524   4.949  0.7585 -0.0469 -1.3383
18545TIP3    H277051   0.018   6.588   5.062 -0.6604 -0.8986  0.1543
18546TIP3   OH277052   5.955   4.261   3.209  0.1130 -0.1764  0.0369
18546TIP3    H177053   5.908   4.234   3.130  0.7830 -2.7059  0.4089
18546TIP3    H277054   5.886   4.271   3.275 -0.3495  1.0318 -0.5995
18547TIP3   OH277055   0.445   0.173  14.940 -0.4176 -0.2576  0.5434
18547TIP3    H177056   0.441   0.238  15.009 -0.2732  0.2314  0.0971
18547TIP3    H277057   0.384   0.104  14.967 -0.6109  0.0888  0.9868
18548TIP3   OH277058   5.809   3.456   0.174 -0.3328  0.2236  0.1466
18548TIP3    H177059   5.728   3.405   0.167 -0.0078 -0.4072  0.8659
18548TIP3    H277060   5.847   3.429   0.258  0.0473  1.3585  0.3536
18549TIP3   OH277061   0.480   0.453   5.432 -0.1902  0.1789  0.2510
18549TIP3    H177062   0.486   0.437   5.526 -1.9153  2.1601  0.7587
18549TIP3    H277063   0.411   0.394   5.402 -0.0738  0.0012  0.3274
18550TIP3   OH277064   3.632   3.859  16.556 -0.0390 -0.3973 -0.6159
18550TIP3    H177065   3.630   3.864  16.461  0.7855  1.2334 -0.5738
18550TIP3    H277066   3.541   3.842  16.581 -0.0137 -2.6084 -1.7204
18551TIP3   OH277067   5.576   4.055  14.760  0.6547 -0.3040 -0.3275
18551TIP3    H177068   5.505   3.992  14.746  1.1996 -0.8280 -0.7607
18551TIP3    H277069   5.654   4.013  14.722  0.6886  1.3865 -2.3006
18552TIP3   OH277070   0.876   5.625  13.041  0.3172 -0.6288  0.1886
18552TIP3    H177071   0.927   5.706  13.050 -0.0638 -0.4781  1.1483
18552TIP3    H277072   0.844   5.608  13.130 -2.1681 -0.1613 -0.5507
18553TIP3   OH277073   4.319   2.490  15.310  0.6783  0.0258  0.3272
18553TIP3    H177074   4.388   2.553  15.331  2.6350 -1.3124 -1.6821
18553TIP3    H277075   4.283   2.521  15.227  0.4323 -0.5162  0.2269
18554TIP3   OH277076   2.509   6.205  11.909  0.1698 -0.5525  0.2017
18554TIP3    H177077   2.433   6.253  11.874  0.5160 -1.7317 -2.4596
18554TIP3    H277078   2.567   6.274  11.943 -0.6004  0.6809 -0.8773
18555TIP3   OH277079   4.235   4.461   5.632  0.4130  0.5346 -0.4472
18555TIP3    H177080   4.149   4.444   5.670 -0.2455  0.8122 -1.7606
18555TIP3    H277081   4.217   4.488   5.542  1.9511 -0.7611 -1.1920
18556TIP3   OH277082   4.748   2.260   1.964 -0.3794  0.2043  0.0307
18556TIP3    H177083   4.812   2.331   1.953 -0.0605 -0.0389  0.2883
18556TIP3    H277084   4.801   2.180   1.964 -0.6169  0.0413  0.9124
18557TIP3   OH277085   3.990   0.835  14.548  0.3707 -0.0698 -0.1671
18557TIP3    H177086   4.070   0.825  14.496 -0.2259  0.3628 -1.1986
18557TIP3    H277087   3.962   0.746  14.566  1.3795 -0.2381  0.6973
18558TIP3   OH277088   0.997   5.797   0.172  0.1293 -0.1811 -0.4065
18558TIP3    H177089   1.089   5.778   0.191  0.2438 -0.0224 -0.8081
18558TIP3    H277090   0.986   5.773   0.080 -0.2202 -0.1501 -0.3740
18559TIP3   OH277091   2.641   5.480   4.215  0.2076 -0.1587 -0.0401
18559TIP3    H177092   2.551   5.481   4.247  0.7469 -1.4275  1.7172
18559TIP3    H277093   2.634   5.490   4.120 -1.7320  0.2326  0.1065
18560TIP3   OH277094   1.281   3.321   3.079 -0.2228 -0.1103  0.6785
18560TIP3    H177095   1.190   3.343   3.100 -0.8879 -0.5418 -1.4890
18560TIP3    H277096   1.294   3.353   2.990  1.4282 -0.9628  0.5647
18561TIP3   OH277097   1.133   3.904   2.320  0.1243 -0.1798  0.2936
18561TIP3    H177098   1.209   3.938   2.367  0.4486  1.0021 -1.0136
18561TIP3    H277099   1.117   3.968   2.250 -1.2613 -1.0889 -0.2748
18562TIP3   OH277100   4.778   4.297  14.024  0.3129 -0.4932  0.2446
18562TIP3    H177101   4.871   4.278  14.033  0.3082 -0.4898  0.2951
18562TIP3    H277102   4.755   4.260  13.938  0.7081  0.8692 -0.4766
18563TIP3   OH277103   6.230   4.855   0.303  0.0582 -0.1765  0.6498
18563TIP3    H177104   6.135   4.855   0.308 -0.1895  1.8070 -1.8876
18563TIP3    H277105   6.251   4.801   0.227  0.5455  2.7589 -1.4780
18564TIP3   OH277106   4.420   0.234   4.381  0.5276  0.0968  0.1877
18564TIP3    H177107   4.457   0.155   4.340 -0.8192  0.1000 -1.1113
18564TIP3    H277108   4.469   0.306   4.342 -0.6723  0.0942 -1.4417
18565TIP3   OH277109   4.888   2.863   0.304  0.0735  0.5800 -0.0023
18565TIP3    H177110   4.974   2.819   0.308 -0.3458 -0.2646  0.0027
18565TIP3    H277111   4.890   2.911   0.222 -0.3198 -1.3440 -1.2077
18566TIP3   OH277112   3.535   0.179  11.106  0.0396  0.4868  0.3002
18566TIP3    H177113   3.591   0.119  11.057  0.4737  1.5227 -0.4952
18566TIP3    H277114   3.540   0.148  11.196  1.0655 -0.0598  0.0674
18567TIP3   OH277115   0.830   3.885   2.171 -0.3397 -0.2512 -0.1336
18567TIP3    H177116   0.855   3.821   2.105 -4.1213  0.7521 -2.9210
18567TIP3    H277117   0.872   3.967   2.143 -1.9342  0.1718 -1.4567
18568TIP3   OH277118   6.556   5.132  14.804 -0.5070 -0.0125  0.0274
18568TIP3    H177119   6.645   5.100  14.793 -0.5664 -0.1153 -0.1546
18568TIP3    H277120   6.520   5.079  14.875 -0.6211 -0.3814 -0.3078
18569TIP3   OH277121   4.158   0.510   3.944 -0.6035 -0.3797 -0.0592
18569TIP3    H177122   4.221   0.439   3.931 -0.2246 -0.0154 -0.2146
18569TIP3    H277123   4.088   0.471   3.996 -0.2582 -0.7901  0.0939
18570TIP3   OH277124   2.814   0.149  17.106  0.0235 -0.3097  0.1592
18570TIP3    H177125   2.728   0.157  17.064  0.4204  2.1716 -0.3443
18570TIP3    H277126   2.876   0.139  17.033  0.4167  0.8987  0.3073
18571TIP3   OH277127   6.545   5.576  13.731 -0.1523  0.4135  0.3456
18571TIP3    H177128   6.556   5.648  13.668 -0.9569 -0.1100 -0.4259
18571TIP3    H277129   6.609   5.510  13.703 -1.0667 -0.1567 -0.4464
18572TIP3   OH277130   5.307   4.952  16.924 -0.5510  0.0227  0.4417
18572TIP3    H177131   5.259   4.937  16.842  0.5670 -3.0660  0.1905
18572TIP3    H277132   5.398   4.966  16.896 -0.0033 -1.8928  1.0910
18573TIP3   OH277133   4.052   4.356   2.600  0.3992  0.2138  0.7994
18573TIP3    H177134   3.984   4.337   2.665 -0.8712  1.4256 -0.1330
18573TIP3    H277135   4.107   4.277   2.600 -1.4542 -1.1487  1.0188
18574TIP3   OH277136   1.360   3.485   2.571  0.4197  0.0641 -0.2930
18574TIP3    H177137   1.402   3.557   2.524 -1.6078  1.7061  0.2514
18574TIP3    H277138   1.276   3.472   2.526 -1.4691  1.4862  2.4351
18575TIP3   OH277139   5.676   5.822   3.544  0.5363 -0.8952 -0.0785
18575TIP3    H177140   5.649   5.836   3.453  0.0945  0.6272  0.2533
18575TIP3    H277141   5.736   5.895   3.562 -1.4886  0.4660  1.6361
18576TIP3   OH277142   5.673   2.566  12.091 -0.5329 -0.1200 -0.3525
18576TIP3    H177143   5.722   2.580  12.009 -0.5023 -2.2275 -0.7512
18576TIP3    H277144   5.741   2.547  12.156 -0.5541  1.6135  0.2255
18577TIP3   OH277145   4.286   0.251   0.789  0.0980  0.3018 -0.3207
18577TIP3    H177146   4.271   0.176   0.847  0.7334  0.7679  0.4704
18577TIP3    H277147   4.368   0.230   0.744 -1.6742 -1.2943 -3.1089
18578TIP3   OH277148   4.291   4.304  12.506 -0.8660  0.1430  0.0779
18578TIP3    H177149   4.321   4.337  12.421 -1.4111 -1.0319 -0.5965
18578TIP3    H277150   4.249   4.221  12.486  0.2712 -0.8736  1.6821
18579TIP3   OH277151   5.180   6.183  16.604  0.5648 -0.2959 -0.1579
18579TIP3    H177152   5.150   6.112  16.662 -1.4154  1.0461  0.5400
18579TIP3    H277153   5.173   6.146  16.516 -1.2827 -0.7366  0.1237
18580TIP3   OH277154   4.470   5.008  11.407 -0.3924 -0.0908  0.3096
18580TIP3    H177155   4.390   5.052  11.433 -0.4554 -0.2550  0.3945
18580TIP3    H277156   4.495   5.050  11.325 -0.7268 -0.2480  0.1294
18581TIP3   OH277157   4.965   2.030   2.570 -0.3524  0.1058  0.1681
18581TIP3    H177158   4.895   1.988   2.619 -0.6205  0.5365  0.1614
18581TIP3    H277159   4.972   1.979   2.489 -2.1399  1.3274 -0.8159
18582TIP3   OH277160   5.966   6.565   6.067  0.0925  0.0168 -0.3252
18582TIP3    H177161   6.039   6.624   6.052 -0.1516  0.1521 -1.0369
18582TIP3    H277162   6.000   6.497   6.125  1.5398 -1.2828 -2.5370
18583TIP3   OH277163   3.683   5.064  17.156  0.8204 -0.2161  0.6733
18583TIP3    H177164   3.625   4.999  17.195 -0.0885  0.5445  0.6507
18583TIP3    H277165   3.763   5.060  17.207  0.1850 -0.2419  1.6886
18584TIP3   OH277166   3.779   3.770   3.482  0.1997 -0.5479 -0.4677
18584TIP3    H177167   3.851   3.754   3.421 -0.5056 -0.1232 -1.4590
18584TIP3    H277168   3.820   3.809   3.559  0.9820  0.1560 -1.2158
18585TIP3   OH277169   4.915   4.094   2.140 -0.1613  0.3268  0.0961
18585TIP3    H177170   4.831   4.061   2.109 -1.1566  0.0628  2.7444
18585TIP3    H277171   4.970   4.098   2.062 -2.1959 -0.7926 -1.5066
18586TIP3   OH277172   1.984   1.373   0.901 -0.6717 -0.6470 -0.2668
18586TIP3    H177173   2.012   1.418   0.980 -0.5512  1.0661 -1.2313
18586TIP3    H277174   2.049   1.303   0.888  0.6416  0.5010 -0.0927
18587TIP3   OH277175   1.324   0.885  16.285 -0.0208  0.9170 -0.2582
18587TIP3    H177176   1.317   0.798  16.324  0.1209  0.2702 -1.6242
18587TIP3    H277177   1.356   0.940  16.356 -1.3424  0.1432  0.9965
18588TIP3   OH277178   4.740   4.431   3.645 -0.6526  0.4712  0.3425
18588TIP3    H177179   4.801   4.408   3.715 -1.0716  0.8960  0.8473
18588TIP3    H277180   4.793   4.424   3.565  0.4915  2.2449  0.8769
18589TIP3   OH277181   5.810   3.596  16.924 -0.2077  0.1573 -0.1316
18589TIP3    H177182   5.749   3.635  16.863 -0.3727  0.2859  0.1138
18589TIP3    H277183   5.756   3.544  16.983 -0.0212 -0.2035 -0.2726
18590TIP3   OH277184   3.135   6.439  13.152  0.2178 -0.2062 -0.5864
18590TIP3    H177185   3.204   6.376  13.131 -0.4012 -0.3474 -2.4947
18590TIP3    H277186   3.180   6.514  13.190  1.3907 -0.4295 -1.4818
18591TIP3   OH277187   2.513   0.101  12.014 -0.3857  0.3667  0.4341
18591TIP3    H177188   2.489   0.016  12.053  0.2519  0.3757  0.8556
18591TIP3    H277189   2.580   0.080  11.950 -0.9335  0.4428 -0.1775
18592TIP3   OH277190   5.974   1.377   2.547  0.0843  0.1536 -0.4319
18592TIP3    H177191   5.937   1.288   2.554  2.6953 -0.9312  0.6358
18592TIP3    H277192   5.938   1.423   2.623  0.2516 -0.6314  0.1463
18593TIP3   OH277193   2.746   6.395  12.572 -0.4857  0.1361 -0.3465
18593TIP3    H177194   2.679   6.336  12.607 -1.4910  1.0637 -0.6643
18593TIP3    H277195   2.712   6.424  12.488 -0.8157  2.4615  0.5101
18594TIP3   OH277196   3.905   1.041  13.910 -0.6039 -0.4830 -0.4853
18594TIP3    H177197   3.814   1.028  13.934 -0.5360 -0.8391 -0.4206
18594TIP3    H277198   3.912   1.135  13.891 -0.7056 -0.2272  0.6808
18595TIP3   OH277199   5.733   3.263  14.683  0.0611  0.1104  0.6366
18595TIP3    H177200   5.825   3.277  14.704 -0.2343  1.2011  1.2838
18595TIP3    H277201   5.707   3.188  14.736  0.7484 -0.6614 -0.0929
18596TIP3   OH277202   2.302   5.825  15.080  0.6765 -0.0661  0.3624
18596TIP3    H177203   2.260   5.813  14.995  2.8515 -0.5136 -0.7249
18596TIP3    H277204   2.243   5.782  15.142 -1.3545  0.9621 -0.7601
18597TIP3   OH277205   2.855   5.655   2.821 -0.3900  0.1180 -0.0302
18597TIP3    H177206   2.889   5.668   2.910 -0.2309  1.8647 -0.3069
18597TIP3    H277207   2.932   5.644   2.766 -0.3986  0.9101 -0.2085
18598TIP3   OH277208   5.706   5.269   2.082  0.0141  0.3534  0.2642
18598TIP3    H177209   5.709   5.362   2.057 -0.7701  0.9586  2.2250
18598TIP3    H277210   5.798   5.244   2.091  0.2683  1.7515  2.2859
18599TIP3   OH277211   4.141   6.009   1.372 -0.1114 -0.2120 -0.4075
18599TIP3    H177212   4.108   6.016   1.282  1.1027  0.6591 -0.8193
18599TIP3    H277213   4.070   6.043   1.426 -1.3246 -1.8237 -0.8948
18600TIP3   OH277214   4.449   3.082  13.894 -0.5150 -0.2064 -0.2947
18600TIP3    H177215   4.539   3.057  13.915 -0.8064 -0.9124  0.1489
18600TIP3    H277216   4.441   3.173  13.925  0.1647  0.0023 -0.7238
18601TIP3   OH277217   1.506   0.820  12.196  0.0036  0.3741 -0.1350
18601TIP3    H177218   1.478   0.911  12.196 -0.9410  0.1015  0.8120
18601TIP3    H277219   1.578   0.817  12.259  0.3763  0.5621 -0.5511
18602TIP3   OH277220   3.623   4.813   2.097  0.0714  0.4697 -0.0203
18602TIP3    H177221   3.654   4.891   2.050 -0.3678  1.3630  1.1088
18602TIP3    H277222   3.683   4.806   2.172  0.5704 -0.7437 -0.5087
18603TIP3   OH277223   0.268   1.326  10.684  0.4165  0.2395  0.2553
18603TIP3    H177224   0.220   1.393  10.635 -0.5450  0.8782  1.9971
18603TIP3    H277225   0.332   1.374  10.736  0.2874 -0.2619  0.8916
18604TIP3   OH277226   0.936   5.404   2.978  0.3126 -0.1632 -0.4340
18604TIP3    H177227   1.015   5.449   3.009  1.0882 -1.1465 -0.9216
18604TIP3    H277228   0.869   5.425   3.042  1.1567  0.1161  0.3740
18605TIP3   OH277229   3.981   2.963   1.760  0.3544 -0.0582 -0.1985
18605TIP3    H177230   4.005   2.987   1.850 -1.5211  1.0415  0.0630
18605TIP3    H277231   4.059   2.984   1.708  2.4055 -3.0156  1.4290
18606TIP3   OH277232   2.650   2.348  15.682  0.4022 -0.0069 -0.5037
18606TIP3    H177233   2.677   2.263  15.648 -1.7494 -0.5227 -1.0619
18606TIP3    H277234   2.665   2.409  15.609  0.7948 -0.1178 -0.5194
18607TIP3   OH277235   1.121   3.011  14.161 -0.2339 -0.4418 -0.3904
18607TIP3    H177236   1.080   2.939  14.113 -0.7855 -1.3179  1.3068
18607TIP3    H277237   1.068   3.020  14.240  1.6751 -0.2575  0.9249
18608TIP3   OH277238   3.924   0.328  14.474  0.0684  0.0944  0.0924
18608TIP3    H177239   3.938   0.368  14.559  1.6633 -0.1695 -0.0272
18608TIP3    H277240   3.860   0.259  14.490 -0.9501  1.1500  0.7254
18609TIP3   OH277241   1.047   2.755   5.556  0.0617 -0.0497 -0.2286
18609TIP3    H177242   1.128   2.806   5.547  1.1884 -1.7477 -0.1577
18609TIP3    H277243   1.042   2.735   5.649  0.2683 -1.0381 -0.4218
18610TIP3   OH277244   0.905   2.654   3.107 -0.5055 -0.1254  0.0454
18610TIP3    H177245   0.900   2.566   3.069 -1.0518 -1.4934  3.0054
18610TIP3    H277246   0.999   2.668   3.122 -0.3712  0.0481 -0.8730
18611TIP3   OH277247   1.199   3.397  14.177  0.1314  0.0206 -0.4567
18611TIP3    H177248   1.233   3.483  14.155 -0.4981  0.2202 -0.6883
18611TIP3    H277249   1.197   3.350  14.094  0.2957 -0.1507 -0.3639
18612TIP3   OH277250   1.945   4.562  11.863 -0.2075  0.2770 -0.1451
18612TIP3    H177251   2.022   4.507  11.875  0.8450  2.0081  1.6742
18612TIP3    H277252   1.950   4.591  11.772  0.9759 -0.0970 -0.2173
18613TIP3   OH277253   6.659   6.661  11.894 -0.5056 -0.9169  0.0396
18613TIP3    H177254   6.609   6.581  11.905 -0.8382 -0.6322  0.6778
18613TIP3    H277255   6.660   6.676  11.800  1.7500 -3.0272 -0.3575
18614TIP3   OH277256   0.734   4.664   2.686 -0.0125 -0.2554  0.5459
18614TIP3    H177257   0.644   4.691   2.702  0.4119  1.8131 -0.2477
18614TIP3    H277258   0.769   4.643   2.773 -0.9994 -0.2329  0.9519
18615TIP3   OH277259   4.821   3.734  15.175  0.0626 -0.1729  0.0334
18615TIP3    H177260   4.793   3.794  15.244 -0.3936 -0.6429  0.2559
18615TIP3    H277261   4.891   3.682  15.215  0.4555  0.1985 -0.1587
18616TIP3   OH277262   6.597   0.767  11.334 -0.0307  1.0639 -0.1618
18616TIP3    H177263   6.517   0.756  11.283  0.8281 -0.2401 -1.2782
18616TIP3    H277264   6.568   0.759  11.425 -1.0811 -0.0242 -0.5662
18617TIP3   OH277265   0.383   2.048  13.892 -0.2585  0.3723 -0.3824
18617TIP3    H177266   0.441   2.069  13.965  0.9663 -0.6141 -1.0321
18617TIP3    H277267   0.304   2.013  13.933  1.8128 -3.8561  0.5894
18618TIP3   OH277268   2.506   6.670   0.181  0.0229  0.4671  0.1170
18618TIP3    H177269   2.511   6.745   0.122  0.3333 -0.6006 -1.2742
18618TIP3    H277270   2.596   6.636   0.184 -0.2836 -0.3680  0.0182
18619TIP3   OH277271   2.999   0.942  12.174 -0.3515 -0.0427  0.5317
18619TIP3    H177272   3.018   0.873  12.237  0.0382 -0.4808 -0.0545
18619TIP3    H277273   3.032   1.022  12.215  1.5481 -0.5757  0.1572
18620TIP3   OH277274   3.711   6.352  16.272 -0.2289  0.2194  0.2053
18620TIP3    H177275   3.802   6.352  16.303  0.0763 -0.7146 -0.6021
18620TIP3    H277276   3.671   6.278  16.317 -0.7096  0.8503  0.8363
18621TIP3   OH277277   1.386   6.667  12.767  0.2692  0.2714 -0.0246
18621TIP3    H177278   1.439   6.728  12.716 -1.0490 -0.5499 -2.5336
18621TIP3    H277279   1.380   6.588  12.712  0.8662 -1.7208  2.5442
18622TIP3   OH277280   3.392   5.446   2.971  0.6646 -0.0751 -0.8499
18622TIP3    H177281   3.487   5.451   2.958  1.1005  0.4745  2.0329
18622TIP3    H277282   3.381   5.382   3.041 -0.6765  2.8535  1.8382
18623TIP3   OH277283   1.855   0.725   4.842 -0.6038  0.4884  0.2909
18623TIP3    H177284   1.797   0.800   4.826  0.2310  0.9646 -0.6063
18623TIP3    H277285   1.886   0.701   4.755 -0.9505 -0.9962  0.5588
18624TIP3   OH277286   2.479   6.096   2.156 -0.3649  0.0727 -0.1877
18624TIP3    H177287   2.385   6.097   2.137 -0.3612 -0.6232 -0.2724
18624TIP3    H277288   2.506   6.007   2.135 -0.1826 -0.4962  2.2067
18625TIP3   OH277289   0.370   4.611  15.954 -0.2633 -0.4987  0.1641
18625TIP3    H177290   0.354   4.671  15.882 -0.2947 -1.5141 -0.7029
18625TIP3    H277291   0.297   4.627  16.015 -1.5114 -1.1549 -1.0907
18626TIP3   OH277292   2.512   3.773   2.760 -0.1783 -0.1541  0.2365
18626TIP3    H177293   2.515   3.699   2.699  1.0587  1.3303 -1.6024
18626TIP3    H277294   2.584   3.757   2.822 -0.2218 -0.7072  0.1449
18627TIP3   OH277295   3.215   2.948   6.017 -0.1136 -0.3641  0.1575
18627TIP3    H177296   3.216   3.022   6.077  1.5724 -0.6592  0.5450
18627TIP3    H277297   3.196   2.986   5.931 -0.6903  0.3012  0.5725
18628TIP3   OH277298   3.760   4.029   0.531  0.1018  0.2191  0.5068
18628TIP3    H177299   3.721   4.102   0.484 -0.3743  1.0576  2.1046
18628TIP3    H277300   3.687   3.988   0.578  0.9863  1.6953  3.3977
18629TIP3   OH277301   3.608   5.809   5.065  0.1040  0.2649  0.5400
18629TIP3    H177302   3.673   5.775   5.127 -0.5537 -0.4069  0.8767
18629TIP3    H277303   3.581   5.893   5.102  0.0586  0.0852  0.9186
18630TIP3   OH277304   4.498   5.038  15.420  0.2284  0.1881 -0.2875
18630TIP3    H177305   4.461   5.118  15.456 -1.4963 -0.3609 -0.7401
18630TIP3    H277306   4.440   4.968  15.452  1.6702 -0.8970  0.0757
18631TIP3   OH277307   2.675   3.101  11.112  0.1491 -0.0964  0.2257
18631TIP3    H177308   2.653   3.019  11.067 -0.2019  0.1539 -0.0573
18631TIP3    H277309   2.630   3.095  11.196 -0.4675  0.1207 -0.0849
18632TIP3   OH277310   0.781   6.164  10.947  0.0544  0.2099 -0.0999
18632TIP3    H177311   0.751   6.246  10.987  1.4901  1.2712 -1.0725
18632TIP3    H277312   0.849   6.132  11.006 -0.9888 -0.6819  0.6436
18633TIP3   OH277313   5.657   4.411   2.921  0.9503  0.2542 -0.2730
18633TIP3    H177314   5.611   4.434   3.002 -0.3965 -2.2833 -0.2125
18633TIP3    H277315   5.659   4.492   2.871  0.9690  1.6672  1.8701
18634TIP3   OH277316   3.590   2.867   5.758  0.7308  0.7485  0.6058
18634TIP3    H177317   3.594   2.787   5.705 -0.9825 -0.3263  1.9745
18634TIP3    H277318   3.583   2.835   5.848  0.4914  2.4695  1.2222
18635TIP3   OH277319   4.997   2.469  17.064  0.2779 -0.6376  0.2559
18635TIP3    H177320   5.084   2.504  17.046 -0.6569  0.3195 -3.1195
18635TIP3    H277321   4.973   2.506  17.149  1.8382  1.8079 -0.2814
18636TIP3   OH277322   4.975   1.897   3.239 -0.4016  0.0181  0.3110
18636TIP3    H177323   5.046   1.834   3.225  0.4340  1.1559 -0.8179
18636TIP3    H277324   4.929   1.864   3.316  1.9675 -0.2118  1.7493
18637TIP3   OH277325   3.236   4.422  15.694  0.5437  0.4677  0.5899
18637TIP3    H177326   3.294   4.492  15.664 -0.7590  1.8367  1.1285
18637TIP3    H277327   3.171   4.413  15.625  0.0085  0.6431  1.0600
18638TIP3   OH277328   1.581   3.567   4.397 -0.4088 -0.2957  0.1334
18638TIP3    H177329   1.521   3.553   4.471 -0.0477  0.7616  0.6403
18638TIP3    H277330   1.600   3.660   4.399  0.5437 -0.4664 -0.5855
18639TIP3   OH277331   3.315   4.289  12.922 -0.0311 -0.1973  0.5976
18639TIP3    H177332   3.237   4.322  12.967 -0.7747 -0.0112 -0.7862
18639TIP3    H277333   3.346   4.218  12.978 -2.4301 -1.6962  0.1458
18640TIP3   OH277334   6.251   4.696   4.979  0.1090 -0.0939  0.2078
18640TIP3    H177335   6.335   4.667   5.014  0.5101  1.1705  0.3574
18640TIP3    H277336   6.210   4.742   5.053  0.2153  1.1037 -0.4533
18641TIP3   OH277337   0.894   2.708  15.182 -0.2786 -0.1574 -0.4624
18641TIP3    H177338   0.962   2.640  15.181 -0.1980 -0.1185  0.8350
18641TIP3    H277339   0.875   2.721  15.275  1.1728  3.0417 -0.4701
18642TIP3   OH277340   6.353   1.913  16.237  0.0604  0.2726  0.2719
18642TIP3    H177341   6.402   1.872  16.309  1.2955  0.4841 -0.4361
18642TIP3    H277342   6.364   1.854  16.163  1.4935  1.6138 -0.6381
18643TIP3   OH277343   5.767   6.652  12.300 -0.1079  0.0125 -0.0107
18643TIP3    H177344   5.854   6.690  12.288  0.1546 -0.5878 -0.0289
18643TIP3    H277345   5.772   6.566  12.258 -0.3171 -0.5748  1.1350
18644TIP3   OH277346   5.797   1.548   0.389  0.0731  0.5512 -0.3465
18644TIP3    H177347   5.741   1.603   0.334 -0.4243 -1.3691 -1.8714
18644TIP3    H277348   5.886   1.565   0.357  0.0604  1.3452  0.0187
18645TIP3   OH277349   1.733   1.362  11.987 -0.0859  0.3722  0.8575
18645TIP3    H177350   1.763   1.401  11.905  2.4921 -0.2204  1.4265
18645TIP3    H277351   1.641   1.386  11.993 -0.0418  1.4290 -1.6131
18646TIP3   OH277352   0.164   2.626  11.288  0.0921 -0.3447  0.2647
18646TIP3    H177353   0.112   2.666  11.218 -0.4835 -1.1180  0.2335
18646TIP3    H277354   0.176   2.696  11.352 -0.0695  0.1444 -0.2330
18647TIP3   OH277355   3.248   2.415  13.975 -0.0466  0.3866 -0.0725
18647TIP3    H177356   3.225   2.352  13.906  0.2586  1.8155 -1.5290
18647TIP3    H277357   3.262   2.360  14.052  0.1935 -1.3542 -1.2729
18648TIP3   OH277358   1.496   4.313   4.228 -0.1850 -1.3602 -0.2352
18648TIP3    H177359   1.443   4.236   4.250  0.8297 -2.1242 -0.3585
18648TIP3    H277360   1.471   4.379   4.292 -1.4185 -1.6356 -0.4231
18649TIP3   OH277361   1.931   6.576  11.418  0.3122  0.4507 -1.2404
18649TIP3    H177362   1.939   6.667  11.390  0.4911  0.9126  0.2184
18649TIP3    H277363   1.866   6.578  11.488  1.1318 -0.3550 -0.4236
18650TIP3   OH277364   4.709   4.476   0.578 -0.0013 -0.2816 -0.7628
18650TIP3    H177365   4.738   4.516   0.496 -0.8190 -0.7469 -1.2896
18650TIP3    H277366   4.617   4.502   0.587  0.8558  2.5308  1.7021
18651TIP3   OH277367   4.687   3.768   1.076 -0.1602 -0.4272  0.4339
18651TIP3    H177368   4.621   3.830   1.044 -0.5922 -0.8009  0.5834
18651TIP3    H277369   4.675   3.690   1.021  0.5687 -0.2807  0.0601
18652TIP3   OH277370   6.608   5.495  16.820  0.4607  0.3816  0.1836
18652TIP3    H177371   6.557   5.573  16.799  1.5188  0.8674 -0.6690
18652TIP3    H277372   6.553   5.422  16.792 -0.2177  0.8482  0.2807
18653TIP3   OH277373   0.430   1.202   2.759  0.2970 -0.1794 -0.1402
18653TIP3    H177374   0.357   1.200   2.821 -0.1344 -0.0035 -0.6404
18653TIP3    H277375   0.393   1.237   2.678  1.0350  0.3421 -0.2655
18654TIP3   OH277376   0.790   4.866  13.639  0.2444  0.1397 -0.5395
18654TIP3    H177377   0.748   4.781  13.625  0.0631  0.1392 -0.0085
18654TIP3    H277378   0.746   4.902  13.716 -0.6866  1.3581 -1.5934
18655TIP3   OH277379   3.743   4.775   5.311 -0.1634  0.9120 -0.0281
18655TIP3    H177380   3.747   4.856   5.260 -1.3360  1.1805  0.2845
18655TIP3    H277381   3.734   4.804   5.402  0.3970  0.4263  0.1937
18656TIP3   OH277382   4.403   3.341  15.939  0.5879  0.0980 -0.3494
18656TIP3    H177383   4.397   3.436  15.952  0.0604 -0.1725  1.9940
18656TIP3    H277384   4.491   3.319  15.969  0.2268 -0.2828  0.4813
18657TIP3   OH277385   1.245   6.010  14.928 -0.0155  0.0941  0.3050
18657TIP3    H177386   1.231   6.094  14.885  0.6235  0.6812  1.2079
18657TIP3    H277387   1.296   5.959  14.866 -0.0458  0.5302 -0.0798
18658TIP3   OH277388   6.420   1.737  16.041 -0.4192  0.1191  0.4066
18658TIP3    H177389   6.509   1.742  16.005 -0.4226 -3.0188 -0.3040
18658TIP3    H277390   6.371   1.686  15.977 -2.2774  0.2620  1.6484
18659TIP3   OH277391   5.016   1.360   0.962 -0.4077  0.1454  0.2183
18659TIP3    H177392   4.985   1.449   0.979 -1.8483 -0.3905  0.4681
18659TIP3    H277393   5.111   1.365   0.979 -0.3002  1.8293 -0.6576
18660TIP3   OH277394   0.488   5.669  13.219  0.2770  0.8029  0.4768
18660TIP3    H177395   0.522   5.730  13.153 -0.5315 -1.1506 -1.9091
18660TIP3    H277396   0.402   5.644  13.186 -0.4113  0.1868  2.6344
18661TIP3   OH277397   4.018   5.369  16.250 -0.0752 -0.6525  0.0350
18661TIP3    H177398   4.051   5.373  16.340 -0.3270  1.3539  0.0667
18661TIP3    H277399   3.926   5.344  16.259 -0.0334 -0.7060  0.3206
18662TIP3   OH277400   4.085   3.937   2.961 -0.3600  0.4194 -0.4862
18662TIP3    H177401   4.158   3.956   2.902 -0.5385 -0.0234 -0.8605
18662TIP3    H277402   4.103   3.849   2.994 -0.4864  0.4930 -0.2158
18663TIP3   OH277403   1.231   4.114   5.301 -0.6693 -0.9359  0.3699
18663TIP3    H177404   1.192   4.124   5.388  1.8994  0.3087  1.4710
18663TIP3    H277405   1.324   4.100   5.317 -0.0296 -0.2538 -2.2057
18664TIP3   OH277406   4.737   0.942  13.724 -0.0269 -0.4919  0.3719
18664TIP3    H177407   4.750   0.882  13.651 -0.6259 -1.0466  0.7065
18664TIP3    H277408   4.661   0.995  13.698 -0.7524 -1.2382  0.9262
18665TIP3   OH277409   0.029   1.344   3.930  0.2128  0.5484 -0.5392
18665TIP3    H177410   0.042   1.406   4.002  0.0090  0.6114 -0.5563
18665TIP3    H277411   0.051   1.394   3.851  1.0406  0.2970 -0.4758
18666TIP3   OH277412   1.721   3.478  14.003  0.4114 -0.0073  0.2326
18666TIP3    H177413   1.695   3.437  13.920 -1.6702  2.0797 -0.2792
18666TIP3    H277414   1.666   3.556  14.008  1.2969  0.5256  3.0781
18667TIP3   OH277415   3.262   2.753  14.345  0.0467  0.2362  0.2031
18667TIP3    H177416   3.276   2.811  14.420 -1.6606  1.3131 -0.2665
18667TIP3    H277417   3.170   2.765  14.322  0.8053  0.8753 -2.8400
18668TIP3   OH277418   5.548   5.135   3.058  0.1373 -0.2922 -0.2350
18668TIP3    H177419   5.454   5.152   3.066  0.1983 -0.4416  1.0250
18668TIP3    H277420   5.555   5.041   3.040 -0.0048  0.0495 -2.3437
18669TIP3   OH277421   1.998   3.307   2.512 -0.2697  0.3667 -0.0433
18669TIP3    H177422   2.066   3.295   2.445 -0.9882  0.9016 -0.8864
18669TIP3    H277423   1.921   3.336   2.464 -0.6810  1.2102  1.0687
18670TIP3   OH277424   0.318   5.744  16.556  0.0560  0.2074  0.1325
18670TIP3    H177425   0.256   5.815  16.575 -0.1776  0.0695 -0.1135
18670TIP3    H277426   0.275   5.692  16.488 -0.7667 -1.4520  1.8252
18671TIP3   OH277427   4.484   0.547  16.729 -0.7159  0.1806  0.0456
18671TIP3    H177428   4.522   0.620  16.777  0.8812 -0.3429 -0.3619
18671TIP3    H277429   4.450   0.586  16.648  1.7479  0.2906 -1.0327
18672TIP3   OH277430   6.619   2.579   3.853 -0.1370 -0.4227  0.3497
18672TIP3    H177431   6.596   2.565   3.761 -1.9011  2.0347  0.3185
18672TIP3    H277432   6.535   2.591   3.897  0.6714 -1.7757  2.3586
18673TIP3   OH277433   4.486   6.709   5.838  0.3953 -0.0594  0.5854
18673TIP3    H177434   4.541   6.788   5.841 -1.6592  1.5519 -1.2361
18673TIP3    H277435   4.396   6.742   5.839 -0.5466 -2.4283  0.4081
18674TIP3   OH277436   3.514   1.862   0.413 -0.1682  0.1979 -0.1526
18674TIP3    H177437   3.454   1.907   0.473 -0.0563 -0.2955  0.3349
18674TIP3    H277438   3.547   1.931   0.356 -0.9529  0.5309 -0.2126
18675TIP3   OH277439   1.425   1.181   5.986  0.0638  0.0458  0.1257
18675TIP3    H177440   1.448   1.108   5.928  0.9665  0.4784 -0.0732
18675TIP3    H277441   1.479   1.254   5.956 -1.1810  0.9571  0.0127
18676TIP3   OH277442   4.740   5.772  15.555 -0.7232 -0.1415 -0.3603
18676TIP3    H177443   4.708   5.684  15.575 -0.9372 -0.5902 -2.4379
18676TIP3    H277444   4.832   5.770  15.584 -1.2646 -0.3138  1.5135
18677TIP3   OH277445   0.641   3.680   3.984 -0.0291 -0.1828  0.1400
18677TIP3    H177446   0.725   3.710   4.020  0.4479 -0.5802 -0.6355
18677TIP3    H277447   0.602   3.629   4.055  0.9915 -1.1265  0.0466
18678TIP3   OH277448   2.045   2.600  12.085  0.2143  0.3970 -0.0662
18678TIP3    H177449   2.049   2.506  12.072  1.2190  0.3331  0.5458
18678TIP3    H277450   2.137   2.628  12.083 -0.0810  1.3867 -0.4163
18679TIP3   OH277451   6.430   4.431  15.263 -0.3911  0.1099  0.0194
18679TIP3    H177452   6.340   4.440  15.234  0.0762  1.0363 -1.2378
18679TIP3    H277453   6.434   4.479  15.346 -1.5786 -1.9598  1.3482
18680TIP3   OH277454   0.971   5.415  14.167  0.5342 -0.5755 -0.5903
18680TIP3    H177455   0.971   5.417  14.263 -0.1703  1.2171 -0.5884
18680TIP3    H277456   1.034   5.346  14.144 -1.0368 -2.7550  1.1552
18681TIP3   OH277457   3.671   6.330  14.552  0.1362 -0.3764 -0.1180
18681TIP3    H177458   3.747   6.370  14.595 -0.1033  0.8483 -0.8101
18681TIP3    H277459   3.641   6.263  14.615  0.2002  0.9042  1.3310
18682TIP3   OH277460   2.149   6.596   3.014 -0.3103 -1.3764 -0.0832
18682TIP3    H177461   2.227   6.589   3.069 -0.6522 -0.8957  0.4786
18682TIP3    H277462   2.157   6.681   2.972 -1.3053 -0.5820  1.2353
18683TIP3   OH277463   0.052   3.843   0.388  0.1715  0.8082  0.3265
18683TIP3    H177464   0.140   3.813   0.410  1.8013  4.4001 -0.6201
18683TIP3    H277465   0.042   3.822   0.295 -0.0529  0.2664  0.4701
18684TIP3   OH277466   0.263   2.838  16.300  0.3590 -0.1714  0.2507
18684TIP3    H177467   0.203   2.913  16.301  0.3411 -0.1688 -0.3609
18684TIP3    H277468   0.340   2.868  16.347  0.4801  0.3463 -0.2621
18685TIP3   OH277469   2.704   4.040   3.008 -0.4289  0.0768 -0.1309
18685TIP3    H177470   2.694   4.045   3.103  1.0932  1.8060  0.0065
18685TIP3    H277471   2.775   3.976   2.996  0.2056  0.7422 -0.0041
18686TIP3   OH277472   2.505   2.548  17.027  0.3747 -0.1399  0.3818
18686TIP3    H177473   2.464   2.470  17.065  2.7297 -1.2899  0.7393
18686TIP3    H277474   2.570   2.513  16.966  1.8202  1.5084  0.9145
18687TIP3   OH277475   0.802   2.234   2.712 -0.0342 -0.1197  0.0915
18687TIP3    H177476   0.868   2.181   2.667  0.3745 -1.6007  2.2671
18687TIP3    H277477   0.718   2.197   2.685  0.2156 -1.1902  0.7475
18688TIP3   OH277478   6.443   5.555  13.992 -0.2865 -0.6716 -0.2559
18688TIP3    H177479   6.472   5.482  14.046  1.1454 -0.4159 -0.6232
18688TIP3    H277480   6.476   5.535  13.904  0.9522  0.8034 -0.1858
18689TIP3   OH277481   4.578   0.939   4.393  0.6756  0.9056  0.2544
18689TIP3    H177482   4.645   0.996   4.355  2.0263  0.5331  1.9313
18689TIP3    H277483   4.495   0.980   4.369  1.5839  3.3928  1.0214
18690TIP3   OH277484   1.657   1.540   6.413 -0.8001  0.0078 -0.4316
18690TIP3    H177485   1.666   1.530   6.507 -1.6056 -2.1805 -0.5273
18690TIP3    H277486   1.689   1.629   6.395  2.7166 -0.6959  1.4102
18691TIP3   OH277487   3.445   6.213  15.574 -0.3993  0.4900 -0.2775
18691TIP3    H177488   3.384   6.246  15.508 -0.4592 -0.3196 -0.6394
18691TIP3    H277489   3.507   6.285  15.588 -0.2013  0.5595 -1.4399
18692TIP3   OH277490   2.444   0.237   3.151  0.2613 -0.0910 -0.1286
18692TIP3    H177491   2.387   0.208   3.222  0.8484  0.7116  0.6889
18692TIP3    H277492   2.399   0.312   3.113  0.7412  0.5420  0.5161
18693TIP3   OH277493   4.981   0.238  11.932  0.7625  0.1941 -0.5101
18693TIP3    H177494   4.967   0.181  11.856 -0.5955  0.7232 -0.6835
18693TIP3    H277495   5.006   0.322  11.895 -0.8670  0.7347 -0.4524
18694TIP3   OH277496   6.293   6.614   4.980  0.2508  0.7066  0.6414
18694TIP3    H177497   6.342   6.535   4.955  0.0017  1.0189 -0.8901
18694TIP3    H277498   6.204   6.582   4.999 -0.3166  0.7797 -1.6103
18695TIP3   OH277499   4.223   4.892   4.105 -0.2423 -0.1165  0.0590
18695TIP3    H177500   4.224   4.982   4.070 -0.5686 -0.5742 -1.2032
18695TIP3    H277501   4.315   4.866   4.106 -0.2938 -0.5436 -1.7897
18696TIP3   OH277502   1.166   1.442   0.685  0.3817 -0.0072  0.2118
18696TIP3    H177503   1.252   1.483   0.684  0.5694 -0.3881  0.5144
18696TIP3    H277504   1.132   1.458   0.773  1.1732 -1.9408  0.9254
18697TIP3   OH277505   3.878   6.147   2.292 -0.1697 -0.1551  0.0551
18697TIP3    H177506   3.834   6.090   2.355 -1.4554  0.4437 -0.2634
18697TIP3    H277507   3.925   6.211   2.346  0.4616 -0.8887  0.3989
18698TIP3   OH277508   4.943   3.960  16.988  0.8643  0.3370  0.2477
18698TIP3    H177509   4.909   3.938  16.901  0.3319 -1.7310  0.9172
18698TIP3    H277510   4.883   3.916  17.049  2.1036  0.4431  1.6012
18699TIP3   OH277511   5.307   6.398  15.585 -0.5001  0.2732 -0.2489
18699TIP3    H177512   5.347   6.378  15.670 -1.1348 -0.6400 -0.1505
18699TIP3    H277513   5.266   6.484  15.597 -1.9936 -0.5510  0.9018
18700TIP3   OH277514   6.183   1.268   0.574 -0.2458  0.6542 -1.4821
18700TIP3    H177515   6.270   1.269   0.613 -1.0182  1.8997  0.3496
18700TIP3    H277516   6.197   1.290   0.482  1.2842  2.0581 -0.9544
18701TIP3   OH277517   2.998   2.182   3.568  0.0885 -0.1111  0.5900
18701TIP3    H177518   2.940   2.252   3.537 -0.4799 -1.3072 -1.1800
18701TIP3    H277519   3.086   2.217   3.558 -0.2265  1.1990  1.9749
18702TIP3   OH277520   6.553   4.851   5.621  0.2665  0.8905  0.2709
18702TIP3    H177521   6.609   4.903   5.678  1.0982  1.0852 -0.7049
18702TIP3    H277522   6.517   4.783   5.679  0.8368  1.2628  1.0863
18703TIP3   OH277523   0.187   3.425   1.606 -0.2468  0.4651  0.5121
18703TIP3    H177524   0.131   3.387   1.538 -0.7274 -0.1005  1.2131
18703TIP3    H277525   0.213   3.510   1.571 -0.1289  0.0054 -0.5685
18704TIP3   OH277526   5.991   5.120   4.156  0.3327  0.1985 -0.2592
18704TIP3    H177527   6.011   5.047   4.215 -0.0705  1.6395  1.7515
18704TIP3    H277528   5.897   5.132   4.164  0.1956  0.1079 -1.6051
18705TIP3   OH277529   6.238   1.067   2.649 -0.1946  0.3655 -0.2267
18705TIP3    H177530   6.302   1.046   2.718 -0.5775  1.7352  0.5819
18705TIP3    H277531   6.206   1.154   2.672 -0.7927  0.5971 -1.8130
18706TIP3   OH277532   6.293   2.837  12.426 -0.0360  0.1051 -0.0752
18706TIP3    H177533   6.255   2.867  12.343  0.5056 -1.4317 -0.9019
18706TIP3    H277534   6.374   2.887  12.434  0.1311 -0.0554 -0.7051
18707TIP3   OH277535   6.247   2.928  15.590 -0.2483 -0.6938 -0.3750
18707TIP3    H177536   6.184   2.862  15.560 -0.8559 -0.3867  0.2171
18707TIP3    H277537   6.244   2.996  15.524 -1.5569 -0.0378  0.3239
18708TIP3   OH277538   2.579   4.868   4.013 -0.0115 -0.1648 -0.1942
18708TIP3    H177539   2.628   4.820   3.946 -1.5351 -2.1714  0.0748
18708TIP3    H277540   2.503   4.903   3.967  1.1184  2.2380 -0.4188
18709TIP3   OH277541   1.007   2.325   4.931 -0.1046 -0.0075  0.3945
18709TIP3    H177542   1.066   2.373   4.990 -0.3835 -0.4702  1.0634
18709TIP3    H277543   0.951   2.392   4.894  0.5627  0.3872  0.0742
18710TIP3   OH277544   5.920   5.811  14.714 -0.2626  0.5086  1.1602
18710TIP3    H177545   5.961   5.755  14.649 -1.4305 -0.5974  1.3358
18710TIP3    H277546   5.975   5.889  14.717  0.8749 -0.2268  0.2328
18711TIP3   OH277547   2.152   4.886  12.513  0.0306  0.4276  0.2869
18711TIP3    H177548   2.116   4.810  12.468  1.5775 -0.2086  0.0311
18711TIP3    H277549   2.164   4.857  12.603  1.8861 -0.1482 -0.1005
18712TIP3   OH277550   2.248   1.959  10.620  0.0053  0.1373 -0.0929
18712TIP3    H177551   2.300   1.878  10.620  1.3806  0.9741 -0.4704
18712TIP3    H277552   2.310   2.026  10.593 -1.0813  1.3465  0.3306
18713TIP3   OH277553   4.445   5.981   3.600  0.4674 -0.4400  0.5597
18713TIP3    H177554   4.362   6.024   3.619  0.5461 -0.2630  0.5011
18713TIP3    H277555   4.512   6.044   3.628  0.5918 -0.1739 -0.3063
18714TIP3   OH277556   1.877   0.481  12.250  0.2283 -0.0473 -0.0945
18714TIP3    H177557   1.789   0.506  12.276 -1.2002 -2.9714 -1.6263
18714TIP3    H277558   1.890   0.524  12.165  0.8167  1.3315  0.6613
18715TIP3   OH277559   3.304   0.587   3.975 -0.1934  0.2763  0.3596
18715TIP3    H177560   3.346   0.663   4.016 -1.1309  1.5511 -0.9582
18715TIP3    H277561   3.274   0.534   4.048 -2.7545  2.9760  1.4658
18716TIP3   OH277562   2.515   4.375   5.750  0.1180  0.6558 -0.5322
18716TIP3    H177563   2.582   4.362   5.683 -0.5151  1.7221 -1.4079
18716TIP3    H277564   2.549   4.444   5.806  0.3158  0.2889 -0.1952
18717TIP3   OH277565   4.325   1.323  12.688  0.0464  0.5309 -0.4712
18717TIP3    H177566   4.336   1.243  12.738 -1.7654  0.3100 -0.3557
18717TIP3    H277567   4.367   1.305  12.603 -0.5379 -0.6227 -0.5330
18718TIP3   OH277568   5.768   6.235   1.717 -0.4271 -0.2668  0.2132
18718TIP3    H177569   5.704   6.205   1.781 -1.0617  2.1358  0.7949
18718TIP3    H277570   5.720   6.297   1.662  1.6262  2.7775  1.5836
18719TIP3   OH277571   4.104   0.149   6.030 -0.2813 -0.2559 -0.0699
18719TIP3    H177572   4.098   0.091   6.106  0.3447  0.5297  0.5976
18719TIP3    H277573   4.127   0.090   5.958  0.8512 -0.7892  0.6906
18720TIP3   OH277574   4.507   6.708  12.720 -0.1601  0.0196  0.1082
18720TIP3    H177575   4.451   6.765  12.667  0.1201 -0.5678 -0.8502
18720TIP3    H277576   4.537   6.763  12.792 -0.0911  1.0072 -0.6581
18721TIP3   OH277577   0.706   1.843  13.982  0.3000 -0.4353  0.1604
18721TIP3    H177578   0.801   1.849  13.993  0.6288 -0.1335 -2.3257
18721TIP3    H277579   0.684   1.915  13.924 -1.3021 -1.1469 -0.1502
18722TIP3   OH277580   0.458   1.861   0.983  0.0518  0.1811  0.1103
18722TIP3    H177581   0.410   1.914   1.048 -1.1824 -0.0439 -0.5815
18722TIP3    H277582   0.429   1.771   0.999  0.5055 -0.0066 -0.1064
18723TIP3   OH277583   0.110   6.263  12.137  0.1252  0.0217 -0.4814
18723TIP3    H177584   0.178   6.201  12.110  1.3079  0.9486  0.2701
18723TIP3    H277585   0.124   6.274  12.231 -0.0485  1.4326 -0.6023
18724TIP3   OH277586   0.205   1.298  11.252  0.6045  0.2794 -0.6921
18724TIP3    H177587   0.147   1.358  11.298 -0.4796  0.7842 -2.6122
18724TIP3    H277588   0.266   1.354  11.204  2.6957 -0.2400  1.1786
18725TIP3   OH277589   1.129   4.146   1.182 -0.1018 -0.3694 -0.0303
18725TIP3    H177590   1.137   4.110   1.270 -1.8139 -0.6574  0.0259
18725TIP3    H277591   1.064   4.091   1.139 -1.2685  1.3778 -0.6061
18726TIP3   OH277592   4.527   0.804  16.837  0.1587 -0.6037 -0.2856
18726TIP3    H177593   4.472   0.864  16.887  1.2633 -0.1037  0.3652
18726TIP3    H277594   4.564   0.858  16.767  1.1482 -0.4911  0.2975
18727TIP3   OH277595   3.338   5.005  16.079 -0.1129 -0.3512  0.0308
18727TIP3    H177596   3.319   4.921  16.037  0.1389 -0.4712  0.1569
18727TIP3    H277597   3.416   4.989  16.132 -0.4566 -0.2178  0.5898
18728TIP3   OH277598   0.378   2.066  13.581  0.1034 -0.0191 -0.1140
18728TIP3    H177599   0.334   1.989  13.618 -0.1302  0.4778  0.6617
18728TIP3    H277600   0.353   2.138  13.639  0.1419  0.6854 -0.9645
18729TIP3   OH277601   4.344   2.689   5.464 -0.1898  0.2468 -0.4893
18729TIP3    H177602   4.416   2.733   5.509  0.8285 -2.6946  1.0557
18729TIP3    H277603   4.387   2.636   5.397 -1.1964  0.3901 -1.2662
18730TIP3   OH277604   2.791   4.500  14.849 -0.5430 -0.4817 -0.6842
18730TIP3    H177605   2.840   4.570  14.806 -0.2323  0.2355  0.7820
18730TIP3    H277606   2.777   4.532  14.939  0.7495 -2.8315  0.4268
18731TIP3   OH277607   6.213   5.829   2.994 -0.0604 -0.3435 -0.3820
18731TIP3    H177608   6.139   5.881   2.963 -0.3884 -1.0060 -0.7186
18731TIP3    H277609   6.175   5.769   3.058 -0.2215 -2.1436 -2.0871
18732TIP3   OH277610   3.415   4.628   4.116 -0.0607  0.0396 -0.0118
18732TIP3    H177611   3.449   4.556   4.168  0.4617 -1.3610 -2.1538
18732TIP3    H277612   3.320   4.624   4.130  0.1661  0.8522  2.1538
18733TIP3   OH277613   0.119   1.487   4.646 -0.3281 -0.7016 -0.2281
18733TIP3    H177614   0.064   1.432   4.702 -0.8759  0.1753  0.1182
18733TIP3    H277615   0.208   1.459   4.666 -0.3989  0.5190  2.1843
18734TIP3   OH277616   0.220   6.277   1.813  0.2380  0.2512 -0.4438
18734TIP3    H177617   0.302   6.251   1.854 -0.3387 -0.2289  0.4447
18734TIP3    H277618   0.155   6.217   1.850 -0.7501  1.5071 -0.0759
18735TIP3   OH277619   1.120   0.927  16.576 -0.2650  0.3582 -0.3117
18735TIP3    H177620   1.154   0.850  16.530  0.3380  1.3328 -1.5468
18735TIP3    H277621   1.174   0.933  16.655 -0.9532 -1.0277  0.2874
18736TIP3   OH277622   3.101   4.585   4.803 -0.3653  0.2991  0.0537
18736TIP3    H177623   3.140   4.659   4.851 -2.0091  0.3625  1.3622
18736TIP3    H277624   3.113   4.608   4.711  1.7300  0.7958  0.3776
18737TIP3   OH277625   5.286   1.234  16.965 -0.2090  0.3699 -0.1339
18737TIP3    H177626   5.291   1.304  17.030  1.1664 -0.1712  0.3785
18737TIP3    H277627   5.285   1.280  16.881  0.5921  1.0293  0.1977
18738TIP3   OH277628   5.825   0.418  14.161  0.1139 -0.0664 -0.0733
18738TIP3    H177629   5.873   0.443  14.239  0.9216 -0.2993 -0.4824
18738TIP3    H277630   5.891   0.381  14.103 -0.5347 -0.2453 -0.7170
18739TIP3   OH277631   2.586   0.295  16.921 -0.1281  0.4796  0.1297
18739TIP3    H177632   2.661   0.305  16.862 -0.8446  0.5753 -0.7778
18739TIP3    H277633   2.557   0.205  16.909 -0.1403  0.4258  0.5248
18740TIP3   OH277634   2.055   2.999  16.305  0.5667  0.1185  0.7565
18740TIP3    H177635   2.098   3.070  16.353 -1.0849  0.9122  1.1504
18740TIP3    H277636   2.037   2.932  16.370 -0.9428  0.8482  1.1435
18741TIP3   OH277637   5.166   0.941   2.122 -1.0245  0.1439 -0.0691
18741TIP3    H177638   5.261   0.942   2.108 -0.7042 -0.1945  1.8193
18741TIP3    H277639   5.135   0.870   2.066 -0.2746  0.6819 -1.2145
18742TIP3   OH277640   1.826   4.527  13.211 -0.5159 -0.2136 -0.2340
18742TIP3    H177641   1.917   4.498  13.197 -0.6182 -1.6472  1.6704
18742TIP3    H277642   1.824   4.555  13.303 -2.1953 -1.0822  0.0333
18743TIP3   OH277643   3.509   6.310  17.048  0.5058  0.3425 -0.1401
18743TIP3    H177644   3.441   6.264  16.999  0.1157  0.9851 -0.2118
18743TIP3    H277645   3.561   6.240  17.088  1.9578 -0.3209 -2.9063
18744TIP3   OH277646   4.487   0.377  12.411 -0.0025  0.0164  0.1816
18744TIP3    H177647   4.436   0.427  12.475 -0.5380  1.2084 -1.1318
18744TIP3    H277648   4.575   0.414  12.417  0.3597 -0.9899  1.3572
18745TIP3   OH277649   5.621   0.546  14.480 -0.6702 -0.8711 -0.3457
18745TIP3    H177650   5.621   0.612  14.412 -0.9298 -1.1029 -0.5701
18745TIP3    H277651   5.602   0.464  14.435 -0.9494 -1.0122  0.0173
18746TIP3   OH277652   5.134   4.876  12.658 -0.3089  0.2179  0.2676
18746TIP3    H177653   5.124   4.894  12.564  0.4703  1.9650  0.4693
18746TIP3    H277654   5.110   4.959  12.700 -0.6373 -0.5457  1.6241
18747TIP3   OH277655   4.161   0.393  10.712  0.1790 -0.6807  0.1035
18747TIP3    H177656   4.153   0.456  10.784 -1.5015 -0.4123 -0.2790
18747TIP3    H277657   4.251   0.403  10.682  0.2756  0.7713  0.7599
18748TIP3   OH277658   6.703   0.098  16.331 -0.2332 -0.5370  0.0048
18748TIP3    H177659   6.782   0.056  16.295 -0.0905 -0.0801 -0.2279
18748TIP3    H277660   6.712   0.089  16.426 -0.1713 -0.9711 -0.0405
18749TIP3   OH277661   2.565   6.230  12.687 -0.2466 -0.0295 -0.0931
18749TIP3    H177662   2.581   6.158  12.749  1.1237 -1.3200 -1.8322
18749TIP3    H277663   2.530   6.187  12.609 -1.9605  1.5672 -0.2654
18750TIP3   OH277664   5.143   1.594   6.301 -0.3350  0.0910 -0.6474
18750TIP3    H177665   5.161   1.647   6.223  0.2373  0.3863 -0.3174
18750TIP3    H277666   5.228   1.585   6.344 -0.3214 -1.5110 -0.9475
18751TIP3   OH277667   4.793   2.930  13.918  0.3351 -0.4170  0.3915
18751TIP3    H177668   4.858   2.884  13.865 -1.3912 -3.0556  0.3594
18751TIP3    H277669   4.781   2.875  13.995 -1.5929  0.1230  0.5483
18752TIP3   OH277670   0.088   0.817   3.509  0.1554  0.6540  0.6127
18752TIP3    H177671   0.129   0.804   3.424 -0.4698  1.6125  0.1491
18752TIP3    H277672   0.127   0.897   3.543  0.5179  0.1914  1.3084
18753TIP3   OH277673   1.561   5.648  17.292  0.2164  0.0459 -0.1304
18753TIP3    H177674   1.656   5.646  17.277  0.1962  2.0690 -0.7864
18753TIP3    H277675   1.550   5.622  17.383  1.3214 -0.9336 -0.2523
18754TIP3   OH277676   0.444   1.341   1.769  0.3145 -0.0624 -0.3259
18754TIP3    H177677   0.469   1.251   1.748 -0.7732 -0.0611 -1.8217
18754TIP3    H277678   0.384   1.366   1.699 -2.5253  0.4863  2.0656
18755TIP3   OH277679   2.043   4.986   3.069 -0.3485  0.3465 -0.2896
18755TIP3    H177680   2.088   4.934   3.003  0.2175  0.9402 -0.3760
18755TIP3    H277681   1.991   5.049   3.018  0.4008  1.0717 -0.1888
18756TIP3   OH277682   6.537   2.961  12.438 -0.4404  0.2815  0.3075
18756TIP3    H177683   6.596   2.919  12.374 -1.9523 -1.3595 -0.0792
18756TIP3    H277684   6.573   2.936  12.523 -1.0057 -1.4465  0.0781
18757TIP3   OH277685   3.439   6.404  12.412  0.1912  0.2133 -0.3027
18757TIP3    H177686   3.369   6.401  12.477 -0.1231 -0.0603 -0.6470
18757TIP3    H277687   3.518   6.425  12.462 -0.2461  1.1701 -0.0089
18758TIP3   OH277688   1.775   4.322  12.875 -0.1040  0.1027 -0.1850
18758TIP3    H177689   1.733   4.407  12.885 -0.4866  0.2350 -2.3137
18758TIP3    H277690   1.818   4.327  12.789  0.6037 -1.5461  0.0333
18759TIP3   OH277691   2.198   5.873  14.117 -0.1141  0.2568  0.2115
18759TIP3    H177692   2.110   5.846  14.143  0.2756  0.3015  1.6459
18759TIP3    H277693   2.256   5.807  14.155  0.5360  0.6983  0.0009
18760TIP3   OH277694   2.959   4.188  16.732 -0.2360 -0.4931 -0.0115
18760TIP3    H177695   2.995   4.101  16.715  1.6590  0.0991  0.7014
18760TIP3    H277696   2.979   4.204  16.824  0.6629  1.2076 -0.4563
18761TIP3   OH277697   4.980   5.753  16.303 -0.1624  0.3955  0.1700
18761TIP3    H177698   4.983   5.795  16.389  0.6245 -0.3626  0.5232
18761TIP3    H277699   4.932   5.815  16.248 -0.6293  0.9101  1.1377
18762TIP3   OH277700   0.523   1.800   3.065  0.0748 -0.0276 -0.2546
18762TIP3    H177701   0.491   1.712   3.086 -0.8031  0.5118  0.7864
18762TIP3    H277702   0.539   1.798   2.971 -2.4765 -0.5407 -0.7598
18763TIP3   OH277703   0.103   6.381   5.221 -0.6927 -0.1075  0.0839
18763TIP3    H177704   0.136   6.358   5.135  0.2143 -0.0969  0.4173
18763TIP3    H277705   0.165   6.446   5.254  0.2376 -1.6896  1.6272
18764TIP3   OH277706   2.686   4.058   0.237 -0.0498  0.3750  1.1816
18764TIP3    H177707   2.726   4.005   0.167  0.4046 -0.2005  1.8591
18764TIP3    H277708   2.700   4.148   0.209  0.8817  0.1670  0.9156
18765TIP3   OH277709   4.149   4.494  17.021  0.0542 -0.0163 -0.1027
18765TIP3    H177710   4.057   4.471  17.028 -1.1974  4.0400 -0.8720
18765TIP3    H277711   4.164   4.503  16.927  1.0547  0.0601  0.0560
18766TIP3   OH277712   2.512   5.189  13.922  0.0269  0.4333 -0.1577
18766TIP3    H177713   2.607   5.195  13.931 -0.1591  1.0197  1.7077
18766TIP3    H277714   2.497   5.101  13.887  1.2259  0.1738 -0.0598
18767TIP3   OH277715   3.980   2.577   0.723 -0.1744 -0.1652 -0.0584
18767TIP3    H177716   3.906   2.622   0.764 -0.4598 -0.7281  0.0589
18767TIP3    H277717   3.978   2.606   0.632  1.6835  2.7020  0.6819
18768TIP3   OH277718   5.368   5.311  13.421  0.0945  0.6904  0.1594
18768TIP3    H177719   5.332   5.397  13.400  0.1922  0.7314  0.1607
18768TIP3    H277720   5.441   5.299  13.360  0.0752  0.6031  0.1518
18769TIP3   OH277721   0.993   5.162  14.441  0.1400 -0.2475 -0.2024
18769TIP3    H177722   0.963   5.229  14.380 -0.8606 -0.4003  0.0995
18769TIP3    H277723   0.960   5.080  14.404 -1.6507 -0.2181  1.2012
18770TIP3   OH277724   2.358   3.891   3.998  0.6629  0.6673  0.3003
18770TIP3    H177725   2.445   3.862   3.973  0.3272 -0.3466  0.2627
18770TIP3    H277726   2.331   3.950   3.927  1.0200  0.4099 -0.0513
18771TIP3   OH277727   3.141   3.018   1.902 -0.1218 -0.2154  0.8603
18771TIP3    H177728   3.188   2.989   1.980  0.5440 -0.0850  0.5097
18771TIP3    H277729   3.209   3.049   1.843 -0.6741  0.3088  0.4870
18772TIP3   OH277730   2.411   5.433   2.929  0.4735 -0.5425  0.4870
18772TIP3    H177731   2.426   5.515   2.882 -1.8788 -0.9707 -1.1837
18772TIP3    H277732   2.370   5.459   3.012 -1.0761  0.0123 -0.4075
18773TIP3   OH277733   6.481   4.712  12.660 -0.2158 -0.4167 -0.0439
18773TIP3    H177734   6.388   4.694  12.671 -0.4547  1.1089  0.8411
18773TIP3    H277735   6.497   4.702  12.566 -1.4388 -0.0047 -0.3120
18774TIP3   OH277736   1.985   4.806  16.920  0.1095 -0.4926 -0.2341
18774TIP3    H177737   2.005   4.714  16.903 -0.4539 -0.7702  0.5300
18774TIP3    H277738   2.019   4.822  17.009  1.6133  0.4819 -0.9439
18775TIP3   OH277739   3.258   5.915  15.137  0.3208 -0.5899  0.0690
18775TIP3    H177740   3.293   5.880  15.218 -0.4501 -0.7133  0.3586
18775TIP3    H277741   3.319   5.886  15.069  1.0716 -0.3263  0.6204
18776TIP3   OH277742   2.993   6.443   0.822  0.3984  0.4181  0.0252
18776TIP3    H177743   2.983   6.513   0.757  0.4554 -0.4198 -0.9007
18776TIP3    H277744   3.080   6.408   0.806  0.7864  0.8049  1.1801
18777TIP3   OH277745   6.060   1.480   4.751 -0.1313 -0.4694  0.5277
18777TIP3    H177746   5.999   1.549   4.724  0.4119 -0.0469  0.3595
18777TIP3    H277747   6.029   1.402   4.705  0.1124 -0.0089 -0.4410
18778TIP3   OH277748   6.385   0.940  16.622  0.0889 -0.0874  0.5317
18778TIP3    H177749   6.313   1.004  16.620  0.1107 -0.0225  1.3438
18778TIP3    H277750   6.341   0.856  16.632 -0.0591 -0.4654 -2.4392
18779TIP3   OH277751   4.346   1.682  12.829  0.0262  0.7691 -0.4279
18779TIP3    H177752   4.304   1.746  12.772 -2.0869  0.3771  0.5901
18779TIP3    H277753   4.283   1.610  12.835  0.5493  0.4185  1.6668
18780TIP3   OH277754   3.237   2.763  11.413  0.3820 -0.5052 -0.2389
18780TIP3    H177755   3.301   2.715  11.466 -0.2017 -1.4145 -0.3308
18780TIP3    H277756   3.167   2.699  11.396 -0.4444  0.4018 -0.3274
18781TIP3   OH277757   2.234   4.364  13.452 -0.4051 -0.6481 -0.4853
18781TIP3    H177758   2.223   4.405  13.366  0.8227 -1.1342 -0.9000
18781TIP3    H277759   2.262   4.275  13.432  1.0106 -0.4258  0.4028
18782TIP3   OH277760   1.307   5.167  13.894 -0.4079  0.0636 -0.1212
18782TIP3    H177761   1.368   5.094  13.878 -0.3086  0.2181 -0.4645
18782TIP3    H277762   1.243   5.161  13.823 -0.9639 -0.2714  0.4029
18783TIP3   OH277763   3.302   4.744  14.336  0.1180 -0.1611  0.4923
18783TIP3    H177764   3.368   4.713  14.398  1.6683 -0.8594 -1.3619
18783TIP3    H277765   3.229   4.683  14.346 -0.1291  0.3803  2.3124
18784TIP3   OH277766   2.637   1.060   0.770  0.0033  0.0493 -0.0652
18784TIP3    H177767   2.693   1.126   0.811 -0.2333  0.6745 -0.7210
18784TIP3    H277768   2.601   1.010   0.843 -0.5214  1.2259  0.5140
18785TIP3   OH277769   6.268   3.270   3.374 -0.5151 -0.3517  0.3511
18785TIP3    H177770   6.192   3.217   3.350 -0.0356 -1.3391  0.9339
18785TIP3    H277771   6.255   3.291   3.466  0.4189 -1.4777  0.7786
18786TIP3   OH277772   6.748   3.509  11.901 -0.4333 -0.0004  0.0859
18786TIP3    H177773   6.786   3.475  11.820  0.8186 -3.2424  1.8369
18786TIP3    H277774   6.656   3.484  11.897 -0.4111 -0.0094 -0.3796
18787TIP3   OH277775   2.582   2.204   1.117  0.0944 -0.4745 -0.6199
18787TIP3    H177776   2.630   2.285   1.101 -1.1417  0.6740  1.0992
18787TIP3    H277777   2.490   2.226   1.100 -0.3180 -1.3330  0.3486
18788TIP3   OH277778   2.617   3.830   2.118  0.3566 -0.3436 -0.2062
18788TIP3    H177779   2.569   3.883   2.181 -1.3956 -3.7442  1.5639
18788TIP3    H277780   2.699   3.809   2.162 -0.9845 -2.9614  1.3302
18789TIP3   OH277781   0.529   2.954  12.701 -0.6542  0.2607  0.5124
18789TIP3    H177782   0.460   2.900  12.739 -0.0217 -0.7188  0.3153
18789TIP3    H277783   0.570   2.998  12.775 -1.1291  0.4166  0.6846
18790TIP3   OH277784   5.404   4.639   3.414  0.5221  0.4427 -0.1275
18790TIP3    H177785   5.453   4.607   3.489 -0.0731  1.7460  0.8526
18790TIP3    H277786   5.386   4.731   3.433 -1.8812  0.1635 -0.6321
18791TIP3   OH277787   0.266   0.807   6.382  0.4650 -0.3670 -0.5133
18791TIP3    H177788   0.242   0.850   6.464 -0.7948  2.8825 -2.3682
18791TIP3    H277789   0.247   0.715   6.396  1.2500 -0.1324  3.1072
18792TIP3   OH277790   5.034   4.115   2.384  0.5514 -0.1034  0.0829
18792TIP3    H177791   4.978   4.053   2.431 -0.0022 -0.3409 -0.8786
18792TIP3    H277792   5.000   4.116   2.295  1.4841  0.4740 -0.2793
18793TIP3   OH277793   0.529   1.599   5.981  0.5972 -0.2523 -0.5550
18793TIP3    H177794   0.546   1.513   6.021  0.7928  0.5787  1.2233
18793TIP3    H277795   0.479   1.647   6.048  1.7698  1.5336 -0.9049
18794TIP3   OH277796   2.905   6.122   3.548 -0.3370 -0.2848 -0.3536
18794TIP3    H177797   2.812   6.128   3.568 -0.2955  0.3178 -0.3341
18794TIP3    H277798   2.941   6.068   3.619 -0.3862  0.8958  0.5986
18795TIP3   OH277799   1.801   4.573   3.457  0.5043 -0.5930 -0.2591
18795TIP3    H177800   1.883   4.587   3.410  0.3273  1.7953  0.0009
18795TIP3    H277801   1.817   4.608   3.545 -0.9068  0.3202 -0.3398
18796TIP3   OH277802   4.555   2.230   0.147 -0.0046  0.2621 -0.3676
18796TIP3    H177803   4.506   2.220   0.065 -2.4326  3.4880  0.4667
18796TIP3    H277804   4.607   2.309   0.135 -0.7032  1.0281  1.2386
18797TIP3   OH277805   4.241   0.598  13.006 -0.3827 -0.3134 -0.0010
18797TIP3    H177806   4.202   0.593  12.918 -1.8214 -1.9298  0.6705
18797TIP3    H277807   4.251   0.507  13.033 -0.6788  0.1453  1.7997
18798TIP3   OH277808   0.644   4.488  12.782  0.2345  0.0153  0.7414
18798TIP3    H177809   0.714   4.439  12.739 -0.5814  0.3654 -1.0541
18798TIP3    H277810   0.679   4.507  12.869  2.1006 -0.4075  0.1325
18799TIP3   OH277811   4.608   6.206  17.155  0.3092  0.1395  0.1682
18799TIP3    H177812   4.558   6.281  17.186  0.3906  0.0254  0.5839
18799TIP3    H277813   4.682   6.245  17.108  0.6977  0.3325  0.9309
18800TIP3   OH277814   5.730   5.555   3.551 -0.4466  0.1507 -0.3587
18800TIP3    H177815   5.659   5.525   3.608 -1.1748  0.0318 -1.2941
18800TIP3    H277816   5.717   5.650   3.545  0.1819  0.2874  0.3951
18801TIP3   OH277817   6.346   4.144   4.597 -0.5125 -0.0191  0.3460
18801TIP3    H177818   6.267   4.091   4.609 -0.9459  0.5747  0.1398
18801TIP3    H277819   6.357   4.188   4.682 -0.8227  0.4542  0.1467
18802TIP3   OH277820   0.422   6.416  12.250  0.1938  0.1084 -0.2908
18802TIP3    H177821   0.460   6.448  12.168  0.4946  0.8802  0.1367
18802TIP3    H277822   0.476   6.341  12.274 -0.8842 -1.1514 -1.6220
18803TIP3   OH277823   5.939   5.752  13.227 -0.0303  0.6485 -0.0716
18803TIP3    H177824   5.927   5.812  13.300 -0.8389 -0.8352  1.0614
18803TIP3    H277825   6.013   5.697  13.252 -1.3217 -0.9458  0.4560
18804TIP3   OH277826   1.756   6.304   2.092 -0.5124  0.1071  0.1483
18804TIP3    H177827   1.787   6.298   2.182 -0.4487 -0.0145  0.1189
18804TIP3    H277828   1.676   6.252   2.091 -1.1886  1.1235  0.4286
18805TIP3   OH277829   4.364   4.153   4.904  0.4054 -0.0060  0.0484
18805TIP3    H177830   4.381   4.215   4.833 -0.7544  0.2547 -0.0235
18805TIP3    H277831   4.307   4.086   4.865  0.2564 -0.1898  0.5648
18806TIP3   OH277832   2.326   6.102  15.477 -0.6236  0.6172 -0.5675
18806TIP3    H177833   2.326   6.142  15.564  0.6571 -0.4197 -0.0467
18806TIP3    H277834   2.296   6.012  15.493  0.5680  0.1196 -1.0086
18807TIP3   OH277835   1.277   4.283  14.647 -0.2508  0.0608  0.4631
18807TIP3    H177836   1.276   4.195  14.611  0.5175  1.1877 -2.6655
18807TIP3    H277837   1.370   4.305  14.655 -0.4081  0.2158  2.4120
18808TIP3   OH277838   4.846   3.317   3.082  0.2181  0.3209 -0.5276
18808TIP3    H177839   4.781   3.284   3.144  0.1557  1.3879 -0.0148
18808TIP3    H277840   4.928   3.319   3.131  0.5288 -0.4258 -0.9915
18809TIP3   OH277841   0.193   4.827   1.870 -0.6340  0.2264  0.0383
18809TIP3    H177842   0.230   4.742   1.845 -0.6416  0.2388 -0.0156
18809TIP3    H277843   0.254   4.861   1.935 -0.0763  0.6334 -0.6818
18810TIP3   OH277844   4.091   2.280   2.352  0.5599 -0.1204  0.1870
18810TIP3    H177845   4.175   2.247   2.319  1.4879 -1.1031  3.2370
18810TIP3    H277846   4.028   2.255   2.285  2.5563  0.0514 -1.8913
18811TIP3   OH277847   5.851   2.965   5.294 -0.3075 -0.2256 -0.4262
18811TIP3    H177848   5.756   2.956   5.306 -0.2750 -1.7753 -1.0853
18811TIP3    H277849   5.859   3.018   5.214 -0.6753 -1.5850 -1.4079
18812TIP3   OH277850   2.024   2.727  14.493  0.4614  0.3751 -0.8199
18812TIP3    H177851   2.012   2.633  14.508 -0.2011  0.2503 -1.9916
18812TIP3    H277852   2.031   2.764  14.581 -1.2337 -0.5293 -0.2473
18813TIP3   OH277853   5.123   4.070  13.846 -0.4097 -0.1902 -0.1959
18813TIP3    H177854   5.086   4.130  13.781  0.8729  0.5516 -0.2625
18813TIP3    H277855   5.148   3.992  13.796 -0.3313 -0.0194 -0.4216
18814TIP3   OH277856   5.606   2.130  17.009 -0.0020 -0.2642 -0.4314
18814TIP3    H177857   5.627   2.093  17.094 -0.0506 -1.5596 -0.9541
18814TIP3    H277858   5.602   2.054  16.950 -2.0379  0.3297 -1.1686
18815TIP3   OH277859   6.440   4.827  15.761 -0.2258  0.0853  0.2159
18815TIP3    H177860   6.504   4.780  15.814  1.2399 -1.0776 -2.3871
18815TIP3    H277861   6.359   4.776  15.771 -0.2621  0.4139  1.9515
18816TIP3   OH277862   5.816   5.671   1.212  0.1125  0.0914  0.1067
18816TIP3    H177863   5.775   5.726   1.146 -0.7993 -1.6795 -0.8596
18816TIP3    H277864   5.747   5.655   1.276  0.1693 -0.4523  0.0383
18817TIP3   OH277865   4.787   3.280  11.551 -0.0895  0.7183 -0.2139
18817TIP3    H177866   4.817   3.320  11.632 -0.8794  1.5606 -0.3228
18817TIP3    H277867   4.796   3.186  11.566  1.5741  0.8984  0.1285
18818TIP3   OH277868   5.347   1.586  14.322 -0.0667  0.1296  0.3065
18818TIP3    H177869   5.286   1.515  14.302  0.8532 -0.2982 -1.1736
18818TIP3    H277870   5.411   1.547  14.381 -0.0980  0.0090  0.2609
18819TIP3   OH277871   2.164   2.919   1.464 -0.4358  0.7546  0.0439
18819TIP3    H177872   2.178   2.981   1.393  0.8021  0.8754  0.3776
18819TIP3    H277873   2.239   2.931   1.522 -1.7090  1.0747  1.6891
18820TIP3   OH277874   5.226   1.417  16.774  0.2061 -0.1202 -0.2646
18820TIP3    H177875   5.217   1.495  16.829  1.7566 -0.9883  1.3260
18820TIP3    H277876   5.280   1.446  16.701 -1.4182  0.9168 -1.1010
18821TIP3   OH277877   1.672   2.448  13.160 -1.0304 -0.8000 -0.2677
18821TIP3    H177878   1.628   2.488  13.235  2.8189  1.0640  1.2389
18821TIP3    H277879   1.688   2.358  13.187  0.5756 -0.0752  1.4019
18822TIP3   OH277880   2.150   4.665   0.644  0.0691 -0.8615  0.6882
18822TIP3    H177881   2.204   4.704   0.713  0.4006  2.1481 -1.1172
18822TIP3    H277882   2.093   4.604   0.691  2.7262 -1.7298  3.1028
18823TIP3   OH277883   4.476   3.454  13.786  0.4975 -0.7208 -0.5226
18823TIP3    H177884   4.528   3.506  13.725 -0.2449 -0.1823 -0.7043
18823TIP3    H277885   4.541   3.416  13.845  0.9861  2.5597  1.3140
18824TIP3   OH277886   0.381   3.836   2.613 -0.1793  0.1169  0.5197
18824TIP3    H177887   0.460   3.890   2.622 -0.7001  0.8525  0.7329
18824TIP3    H277888   0.401   3.757   2.664  0.4547  0.2534  0.4945
18825TIP3   OH277889   2.517   6.432   4.945 -1.1316  0.4457  0.1966
18825TIP3    H177890   2.567   6.437   5.027 -0.2385 -1.5057 -0.1685
18825TIP3    H277891   2.568   6.373   4.890 -2.2628  0.8940 -1.3974
18826TIP3   OH277892   5.637   5.973   4.790 -0.2475  0.2475  0.0089
18826TIP3    H177893   5.613   6.037   4.722 -2.0039  1.2598  1.5049
18826TIP3    H277894   5.629   6.021   4.872  3.6581 -0.3837  0.9415
18827TIP3   OH277895   6.548   6.545   4.737 -0.4187  0.2271  0.3297
18827TIP3    H177896   6.523   6.514   4.824 -0.8703  0.6548  0.3515
18827TIP3    H277897   6.575   6.636   4.750  1.6429 -0.3401  0.3954
18828TIP3   OH277898   5.223   5.999  11.531  0.4410  0.0359 -0.2766
18828TIP3    H177899   5.289   5.937  11.499  1.5276  2.2774 -2.7575
18828TIP3    H277900   5.242   6.081  11.484 -3.1289  1.2670  0.0993
18829TIP3   OH277901   2.138   0.590  11.414 -0.1527 -0.1238 -0.1464
18829TIP3    H177902   2.228   0.562  11.425 -0.2057  0.1890  1.2464
18829TIP3    H277903   2.136   0.634  11.330  0.8972 -0.4837 -0.3662
18830TIP3   OH277904   6.033   6.495  13.125  0.0437  0.1937  0.4773
18830TIP3    H177905   5.968   6.565  13.114 -0.6119 -0.5836 -0.9432
18830TIP3    H277906   5.991   6.418  13.086  1.6634 -0.4285 -0.1314
18831TIP3   OH277907   0.547   4.543  11.267  0.1947 -0.3533  0.4487
18831TIP3    H177908   0.587   4.616  11.314 -1.7903  1.4095 -0.4657
18831TIP3    H277909   0.589   4.545  11.181  0.8340 -0.9589  0.7302
18832TIP3   OH277910   6.634   3.112   5.713 -0.6213  0.2299  0.1780
18832TIP3    H177911   6.640   3.060   5.793 -1.3076  0.3653  0.3260
18832TIP3    H277912   6.686   3.064   5.649 -1.3753 -0.7313  0.2664
18833TIP3   OH277913   2.796   4.917   1.215 -0.1098 -0.2451  0.1180
18833TIP3    H177914   2.749   4.972   1.278 -0.7357 -0.5483 -0.0837
18833TIP3    H277915   2.888   4.934   1.233 -0.2855 -0.2655  1.0627
18834TIP3   OH277916   3.673   2.217   0.096 -0.2306 -0.4457  1.1672
18834TIP3    H177917   3.737   2.162   0.050 -0.3303  0.0695  0.3931
18834TIP3    H277918   3.659   2.172   0.179  0.7717 -0.8303  1.1494
18835TIP3   OH277919   6.496   2.406   1.539 -1.0248  0.3963 -0.2335
18835TIP3    H177920   6.455   2.422   1.624  0.5632  1.1715  0.4378
18835TIP3    H277921   6.530   2.316   1.546 -2.9218 -0.4233 -0.9667
18836TIP3   OH277922   4.176   2.407   5.161  0.2627 -0.3487 -0.1919
18836TIP3    H177923   4.146   2.324   5.125 -0.6952  0.7848 -2.2577
18836TIP3    H277924   4.151   2.405   5.253  0.0775 -2.2245 -0.2497
18837TIP3   OH277925   1.495   3.486   5.277  0.1815 -0.2256  0.5239
18837TIP3    H177926   1.476   3.525   5.363  1.0624  1.3198  0.0589
18837TIP3    H277927   1.444   3.538   5.215  0.5627 -0.4864 -0.0161
18838TIP3   OH277928   3.231   4.983   2.182 -0.3431  0.0783 -0.2144
18838TIP3    H177929   3.314   4.976   2.230 -0.7918 -0.6207  0.4736
18838TIP3    H277930   3.240   5.064   2.132  1.0602 -0.3623 -0.7436
18839TIP3   OH277931   0.008   6.253   3.888 -0.4441 -0.4504  0.2869
18839TIP3    H177932  -0.081   6.275   3.859 -1.3728  0.1187  3.2584
18839TIP3    H277933   0.065   6.308   3.833 -2.0636  0.8683 -0.1532
18840TIP3   OH277934   6.085   0.647  14.343  0.1752  0.5147  0.1025
18840TIP3    H177935   6.030   0.576  14.377  2.4672 -1.0580  0.7505
18840TIP3    H277936   6.065   0.722  14.400 -1.7514  0.2215 -0.1200
18841TIP3   OH277937   2.304   5.949   3.089 -0.5896 -0.1615  0.2322
18841TIP3    H177938   2.348   5.876   3.045 -0.6273 -0.4369  0.6509
18841TIP3    H277939   2.289   6.013   3.019 -1.8075 -1.1296 -0.4252
18842TIP3   OH277940   1.340   5.512  16.859  0.2710 -0.7409  0.3008
18842TIP3    H177941   1.399   5.516  16.934 -1.0422 -1.2616  1.4237
18842TIP3    H277942   1.330   5.418  16.841  0.8866 -0.6046 -0.7932
18843TIP3   OH277943   2.283   1.860   3.362  0.3720 -0.0383 -0.1158
18843TIP3    H177944   2.294   1.824   3.450  1.3598  0.7693  0.1159
18843TIP3    H277945   2.199   1.907   3.366  0.4332  0.0410  0.4201
18844TIP3   OH277946   0.059   1.093  13.034 -0.3566 -0.2464 -0.0216
18844TIP3    H177947  -0.004   1.027  13.064 -0.5680 -0.3567 -0.6714
18844TIP3    H277948   0.007   1.172  13.021 -0.0815  0.0883  0.8657
18845TIP3   OH277949   6.065   1.816  15.729  0.1916  0.0763  0.1985
18845TIP3    H177950   6.078   1.729  15.767  1.3736  0.4086  0.6138
18845TIP3    H277951   6.065   1.875  15.804 -0.2499  0.4663 -0.1082
18846TIP3   OH277952   4.324   2.823  14.913  0.3670 -0.2927  0.0010
18846TIP3    H177953   4.391   2.876  14.956  0.5702 -1.6436  1.4179
18846TIP3    H277954   4.261   2.886  14.879  1.9164  0.9716 -0.6676
18847TIP3   OH277955   4.255   5.730   5.078 -0.1763  0.0197  0.6018
18847TIP3    H177956   4.311   5.787   5.025 -2.5811  1.2619 -0.8126
18847TIP3    H277957   4.246   5.776   5.162  1.3720 -0.5198  1.0893
18848TIP3   OH277958   5.576   0.403   4.462 -0.3467  0.4141  0.4336
18848TIP3    H177959   5.555   0.315   4.429 -0.3585  1.2500 -2.0389
18848TIP3    H277960   5.662   0.422   4.424  0.3498  0.9241  2.1900
18849TIP3   OH277961   0.193   5.995  17.163  1.0292  0.1415 -0.1123
18849TIP3    H177962   0.227   6.061  17.102  0.1365  0.6915 -0.0428
18849TIP3    H277963   0.229   6.020  17.248 -1.7949  2.5543  0.5527
18850TIP3   OH277964   6.684   3.099  11.334  0.2022  0.0697  0.2687
18850TIP3    H177965   6.764   3.109  11.385 -0.9422  0.9667  1.9922
18850TIP3    H277966   6.691   3.165  11.266  1.7648 -1.1544 -0.8443
18851TIP3   OH277967   1.225   5.062  13.640 -0.1669  0.3892 -0.4704
18851TIP3    H177968   1.248   5.145  13.598 -1.0508  1.3088  0.7855
18851TIP3    H277969   1.167   5.018  13.577  1.6787 -0.1039 -1.8854
18852TIP3   OH277970   1.592   0.623   6.179  1.1748  0.1956  0.1470
18852TIP3    H177971   1.529   0.659   6.241  0.5807 -0.4907 -0.0471
18852TIP3    H277972   1.650   0.569   6.232  0.8038 -0.2106  0.1408
18853TIP3   OH277973   1.654   0.430   3.731 -0.3621  0.2353 -0.2352
18853TIP3    H177974   1.658   0.370   3.805  0.8409 -0.2496 -0.6591
18853TIP3    H277975   1.695   0.510   3.763 -1.1444  0.5290  0.0516
18854TIP3   OH277976   1.088   2.600  14.114  0.2384 -0.1708 -0.7123
18854TIP3    H177977   1.095   2.531  14.048 -0.4015 -0.1672 -0.7939
18854TIP3    H277978   1.176   2.607  14.151  0.2954 -1.0625 -0.6679
18855TIP3   OH277979   0.510   4.808  11.009 -0.3146 -0.1905  0.1021
18855TIP3    H177980   0.450   4.837  10.941 -1.1206 -0.3736  0.7154
18855TIP3    H277981   0.538   4.721  10.981 -0.7255 -0.3083  0.0501
18856TIP3   OH277982   3.778   5.348   0.056  0.2870  0.0444 -0.1005
18856TIP3    H177983   3.860   5.385   0.023 -0.5617  1.3201 -0.8498
18856TIP3    H277984   3.780   5.257   0.028  2.0629 -0.3368  1.0893
18857TIP3   OH277985   5.420   4.687  11.587  0.6028  0.1941  0.1933
18857TIP3    H177986   5.411   4.716  11.678 -1.5958 -1.0153  0.4369
18857TIP3    H277987   5.334   4.702  11.549  1.0036 -0.8745 -1.2120
18858TIP3   OH277988   3.965   2.196  11.540  0.2346  0.5538  0.1769
18858TIP3    H177989   4.009   2.112  11.524 -0.3682  0.4425 -0.9949
18858TIP3    H277990   3.970   2.242  11.456 -3.0824 -0.0490 -0.5060
18859TIP3   OH277991   4.687   0.848   1.573 -0.3847  0.6614  0.4188
18859TIP3    H177992   4.730   0.878   1.493  0.1749  1.5656  1.0392
18859TIP3    H277993   4.715   0.757   1.582  1.8323  1.3460  1.0537
18860TIP3   OH277994   3.380   2.157  14.911 -0.3066 -0.1514 -0.2490
18860TIP3    H177995   3.333   2.111  14.842 -0.3088  0.4656 -0.6714
18860TIP3    H277996   3.444   2.211  14.865  0.1955 -0.2897  0.2712
18861TIP3   OH277997   4.573   4.047  12.681 -0.8336 -0.1098 -0.3519
18861TIP3    H177998   4.536   4.085  12.602 -0.0995 -0.9711 -1.1302
18861TIP3    H277999   4.643   3.990  12.650 -0.9262 -0.9302  0.8794
18862TIP3   OH278000   3.358   5.609   5.057  0.3411 -0.1574  0.0227
18862TIP3    H178001   3.303   5.546   5.103 -1.0657  1.1201  0.1697
18862TIP3    H278002   3.396   5.663   5.126  0.1115  0.2715 -0.1786
18863TIP3   OH278003   2.768   6.339  11.033 -0.2530 -0.1858  0.1765
18863TIP3    H178004   2.747   6.403  11.102  0.8475 -0.6639  0.9835
18863TIP3    H278005   2.713   6.263  11.054 -0.1007 -0.2399  0.3789
18864TIP3   OH278006   1.597   0.518   2.862  0.2427 -0.4101  0.8750
18864TIP3    H178007   1.543   0.589   2.828  0.3661 -0.8918 -0.3658
18864TIP3    H278008   1.569   0.441   2.813 -0.6994 -1.5026  2.9700
18865TIP3   OH278009   3.050   4.058   2.462 -0.1533 -0.3154  0.6006
18865TIP3    H178010   3.135   4.021   2.436 -0.8654  0.5545 -3.6870
18865TIP3    H278011   3.062   4.153   2.456 -1.5601 -0.1886 -0.7813
18866TIP3   OH278012   4.199   0.982  17.335  0.1822  0.7624 -0.2633
18866TIP3    H178013   4.134   1.011  17.399  0.6764  2.0882 -0.3284
18866TIP3    H278014   4.204   1.054  17.272  2.1122  0.9433  0.0495
18867TIP3   OH278015   1.752   5.860  11.625  0.5890  0.1378  0.4645
18867TIP3    H178016   1.794   5.845  11.540  0.1456  0.6104  0.1604
18867TIP3    H278017   1.671   5.906  11.604  1.5338  2.3108  1.2997
18868TIP3   OH278018   5.631   2.311   3.781  0.7101 -0.0804  0.2416
18868TIP3    H178019   5.699   2.344   3.840  2.2208 -0.0473 -1.4286
18868TIP3    H278020   5.596   2.390   3.738 -0.0600 -0.1428  0.7297
18869TIP3   OH278021   0.206   6.054   0.681 -0.0668  0.6532  0.2784
18869TIP3    H178022   0.171   5.994   0.615  1.5665  1.5416 -1.5267
18869TIP3    H278023   0.152   6.040   0.758  0.5760 -3.6043  0.2153
18870TIP3   OH278024   2.632   1.556  16.880  0.1122  0.2198 -0.4725
18870TIP3    H178025   2.618   1.596  16.966  0.9967  1.9337 -1.0906
18870TIP3    H278026   2.693   1.614  16.836  1.8427 -2.0434 -1.2803
18871TIP3   OH278027   6.444   6.630  14.037 -0.2135 -0.1110  0.1303
18871TIP3    H178028   6.456   6.630  13.942 -0.1215 -0.1545  0.1421
18871TIP3    H278029   6.353   6.657  14.050  0.1863  1.3285  0.0810
18872TIP3   OH278030   2.279   0.369   3.985 -0.0281 -0.4455 -0.2480
18872TIP3    H178031   2.310   0.279   3.995  1.2487 -0.2631 -2.0673
18872TIP3    H278032   2.331   0.419   4.048 -1.2108 -1.0236  1.2514
18873TIP3   OH278033   6.636   6.219  14.997  0.0147  0.6351  0.1779
18873TIP3    H178034   6.720   6.212  14.951 -0.1398 -0.5357  0.0622
18873TIP3    H278035   6.656   6.272  15.074  0.6124  1.3151 -0.4179
18874TIP3   OH278036   5.824   6.342  12.995  0.4451  0.2677 -0.3475
18874TIP3    H178037   5.762   6.377  12.932 -2.3745  0.2142  2.1501
18874TIP3    H278038   5.811   6.247  12.992 -0.3839  0.3238  0.8814
18875TIP3   OH278039   6.450   3.415  12.966 -0.0570 -0.5087  0.3309
18875TIP3    H178040   6.448   3.346  12.900  1.0694  0.5318 -0.8453
18875TIP3    H278041   6.543   3.434  12.978 -0.2818 -0.1926  1.7108
18876TIP3   OH278042   6.428   5.458   2.101  0.3173 -0.2714  0.1667
18876TIP3    H178043   6.397   5.548   2.104  1.2262  0.0716 -0.3474
18876TIP3    H278044   6.425   5.428   2.192 -0.6417  0.0376  0.2464
18877TIP3   OH278045   4.057   3.186   3.981 -0.1086  0.3678  0.4765
18877TIP3    H178046   4.089   3.169   3.893  0.6620  1.5603  0.5034
18877TIP3    H278047   3.962   3.187   3.973 -0.0296  1.1522 -0.4871
18878TIP3   OH278048   3.043   6.453   2.877  0.2903 -0.1113 -0.5171
18878TIP3    H178049   2.987   6.480   2.949  1.6759  0.2451  0.4686
18878TIP3    H278050   2.984   6.410   2.815 -0.9255 -0.4846  0.8512
18879TIP3   OH278051   6.176   4.202   5.557 -0.3067 -0.1347  0.4376
18879TIP3    H178052   6.196   4.126   5.612 -0.0137  1.9417  3.4399
18879TIP3    H278053   6.242   4.200   5.489  1.9923 -0.6910  2.5326
18880TIP3   OH278054   3.091   0.369   6.652 -0.2460  0.1804  0.0232
18880TIP3    H178055   3.056   0.451   6.688 -3.1680 -0.8433 -0.1950
18880TIP3    H278056   3.113   0.316   6.729 -1.3823  0.0052  0.2403
18881TIP3   OH278057   5.021   5.220   2.408 -0.1307  0.2936  0.0982
18881TIP3    H178058   4.938   5.188   2.444  0.2639  0.2469  0.9695
18881TIP3    H278059   5.038   5.302   2.454  0.7798 -0.1728  0.6157
18882TIP3   OH278060   2.973   3.112   6.440 -0.3955  0.1284 -0.0816
18882TIP3    H178061   2.880   3.133   6.425 -0.4372  2.2144  2.3757
18882TIP3    H278062   3.014   3.197   6.454  1.4065 -0.9135  1.3162
18883TIP3   OH278063   3.656   3.058  12.332 -0.7403  0.0576  0.0149
18883TIP3    H178064   3.715   3.133  12.339 -2.0284  0.9716  2.0216
18883TIP3    H278065   3.711   2.983  12.353  0.1289  0.6790  0.0340
18884TIP3   OH278066   5.671   1.765   3.346  0.2154 -0.2289 -0.5419
18884TIP3    H178067   5.636   1.843   3.303 -1.0209  0.8531  2.2356
18884TIP3    H278068   5.730   1.799   3.413  0.2084 -1.6923  0.2439
18885TIP3   OH278069   3.366   3.979   2.174 -0.1841  0.4889  0.2261
18885TIP3    H178070   3.433   3.916   2.149  0.3874  1.3337 -0.4250
18885TIP3    H278071   3.324   3.940   2.251  0.5158 -0.4210  0.1646
18886TIP3   OH278072   5.036   6.333  12.266 -0.2522  0.0007  0.7699
18886TIP3    H178073   5.061   6.242  12.249  1.2468  0.6133 -0.5020
18886TIP3    H278074   5.073   6.352  12.352 -0.4181 -0.5257  0.9657
18887TIP3   OH278075   5.011   2.624   4.683  0.1588  0.1044 -0.1543
18887TIP3    H178076   5.012   2.719   4.683  2.1921  0.1188  0.3113
18887TIP3    H278077   5.029   2.599   4.774  1.2297 -0.7011 -0.5714
18888TIP3   OH278078   6.447   4.328   3.558 -0.2541 -0.3027 -0.0090
18888TIP3    H178079   6.452   4.423   3.562 -1.9865 -0.1771 -0.2603
18888TIP3    H278080   6.409   4.302   3.642  1.2613 -0.8952  0.5344
18889TIP3   OH278081   1.388   6.388   5.695  0.1024  0.0237  0.5594
18889TIP3    H178082   1.483   6.388   5.704  0.1433 -1.3686  0.4070
18889TIP3    H278083   1.357   6.447   5.764  1.1005  1.2519 -0.0083
18890TIP3   OH278084   0.879   2.972  12.698  0.2567  0.1264 -0.2473
18890TIP3    H178085   0.825   2.899  12.666  1.4711 -0.7276 -0.4095
18890TIP3    H278086   0.859   3.045  12.639 -0.1361 -0.4103 -0.7882
18891TIP3   OH278087   4.382   3.105  12.655  0.0795 -0.3687  0.3195
18891TIP3    H178088   4.468   3.079  12.687 -0.3950 -1.2898  0.8857
18891TIP3    H278089   4.340   3.149  12.729 -0.2599 -0.6994  0.3280
18892TIP3   OH278090   4.326   2.142   6.349 -0.7257 -0.2556  0.5752
18892TIP3    H178091   4.292   2.178   6.431 -0.0695  1.3971  0.1569
18892TIP3    H278092   4.326   2.216   6.288  2.6178 -0.3406  0.2711
18893TIP3   OH278093   2.952   1.377  11.193 -0.4991  0.3555  0.3699
18893TIP3    H178094   2.947   1.464  11.233  2.5487  0.0129  1.7806
18893TIP3    H278095   2.936   1.392  11.100 -2.0811  2.0628  0.8527
18894TIP3   OH278096   1.024   2.491   3.649 -0.0238  0.2518  0.2890
18894TIP3    H178097   1.032   2.396   3.654  0.3365  0.3415  1.5915
18894TIP3    H278098   0.934   2.509   3.676  0.6222  0.4279  2.4598
18895TIP3   OH278099   2.588   0.366  11.219  0.1412  0.1606 -0.3963
18895TIP3    H178100   2.507   0.414  11.206 -0.0820 -0.1263 -0.0850
18895TIP3    H278101   2.643   0.390  11.144 -0.5044 -0.1978 -0.9952
18896TIP3   OH278102   0.677   4.455  13.643  0.1718  0.6847  0.3709
18896TIP3    H178103   0.685   4.391  13.713  0.0159  2.4252  2.0495
18896TIP3    H278104   0.766   4.484  13.626  0.1606  0.5960  0.1496
18897TIP3   OH278105   2.686   1.224   5.410 -0.5230  0.3936  0.7766
18897TIP3    H178106   2.601   1.263   5.390  0.6058  2.1310 -0.9940
18897TIP3    H278107   2.721   1.278   5.480  0.5052  1.8631 -0.8116
18898TIP3   OH278108   5.327   2.446   3.953  0.0582 -0.3446  0.0974
18898TIP3    H178109   5.309   2.431   3.861  0.2318  0.3560 -0.0601
18898TIP3    H278110   5.377   2.527   3.954  1.1677 -1.0192  0.7082
18899TIP3   OH278111   6.066   5.346   0.584  0.3460 -0.3299 -0.5935
18899TIP3    H178112   6.013   5.283   0.536 -2.3844  0.5045  1.0928
18899TIP3    H278113   6.044   5.431   0.546  1.6050 -0.0620 -0.7836
18900TIP3   OH278114   0.661   4.215   5.299  0.6834  0.0533 -0.3354
18900TIP3    H178115   0.585   4.167   5.268  0.1944  0.7725 -0.2917
18900TIP3    H278116   0.713   4.151   5.347 -0.0397 -0.3869 -0.1259
18901TIP3   OH278117   0.950   4.017  13.408  0.2563  0.1026  0.8418
18901TIP3    H178118   0.955   3.971  13.324  0.7546  0.5950  0.5957
18901TIP3    H278119   0.893   4.092  13.390  2.8807  2.0627  0.0248
18902TIP3   OH278120   2.127   4.276   0.032  0.1155  0.7731 -0.7185
18902TIP3    H178121   2.061   4.280   0.100 -0.1086  0.9085 -0.9430
18902TIP3    H278122   2.081   4.242  -0.045  0.4632  0.2200 -0.6871
18903TIP3   OH278123   1.958   1.505  13.692  0.5525  0.0678 -0.2538
18903TIP3    H178124   1.863   1.506  13.702  0.5605 -0.4618 -0.1219
18903TIP3    H278125   1.979   1.592  13.659  0.0116  0.1580 -0.3717
18904TIP3   OH278126   2.878   4.583  14.039 -0.0806  0.0363  0.2146
18904TIP3    H178127   2.880   4.670  14.080  0.7361  0.6898 -1.1461
18904TIP3    H278128   2.964   4.545  14.059 -0.7212 -0.7982  1.4666
18905TIP3   OH278129   3.325   6.403  10.777 -0.1408 -0.1900  0.2685
18905TIP3    H178130   3.299   6.313  10.761  0.4380 -0.2599 -0.3007
18905TIP3    H278131   3.401   6.397  10.835 -0.4033 -0.0453  0.6339
18906TIP3   OH278132   3.632   4.934  11.933  0.3981  0.1060 -0.4173
18906TIP3    H178133   3.723   4.906  11.920  0.1522  0.0503 -2.1825
18906TIP3    H278134   3.629   5.023  11.898  0.1217  0.7546  1.1447
18907TIP3   OH278135   2.127   1.147  11.579  0.4386 -0.7090  0.0223
18907TIP3    H178136   2.070   1.208  11.532 -0.5370 -0.8397  1.0034
18907TIP3    H278137   2.097   1.060  11.552  2.4632 -0.8360 -2.1411
18908TIP3   OH278138   3.020   2.162  16.324  0.0772  0.4913  0.4462
18908TIP3    H178139   3.050   2.120  16.405  0.6087  1.1541  0.6045
18908TIP3    H278140   2.934   2.123  16.307  0.2076 -0.0670  1.0195
18909TIP3   OH278141   4.990   2.386   3.049 -0.0619 -0.3260  0.0429
18909TIP3    H178142   4.972   2.330   2.973  1.9246 -1.6464  0.4790
18909TIP3    H278143   4.954   2.338   3.123  0.0868 -0.1824  0.2095
18910TIP3   OH278144   6.169   0.697   0.129  0.4480 -0.0206 -0.5095
18910TIP3    H178145   6.247   0.642   0.141  0.6176 -0.4241 -2.9836
18910TIP3    H278146   6.114   0.677   0.205  1.4901 -1.9268 -0.1874
18911TIP3   OH278147   0.218   0.279  14.697 -0.2330 -0.4136  0.1242
18911TIP3    H178148   0.202   0.187  14.676  3.7759 -1.2796  0.0723
18911TIP3    H278149   0.238   0.320  14.613 -0.1308  0.0417  0.3645
18912TIP3   OH278150   1.016   2.827  13.281 -0.3473 -0.0949  0.0315
18912TIP3    H178151   0.941   2.789  13.326 -1.1295 -0.2563 -1.3660
18912TIP3    H278152   1.073   2.752  13.260 -0.4039 -0.1227 -0.0219
18913TIP3   OH278153   0.740   5.687   4.754 -0.4588  0.7460 -0.1386
18913TIP3    H178154   0.736   5.650   4.842  0.7035  1.9425  0.4531
18913TIP3    H278155   0.648   5.702   4.730 -0.8875 -1.1574  0.1352
18914TIP3   OH278156   2.210   1.480   2.434  0.8241 -0.0879  0.3495
18914TIP3    H178157   2.217   1.558   2.489  0.4736  0.7066 -0.7012
18914TIP3    H278158   2.229   1.407   2.493 -0.6834  0.6382  1.7974
18915TIP3   OH278159   4.668   3.053  11.939 -0.2277  0.0589 -0.5052
18915TIP3    H178160   4.755   3.075  11.906 -0.0372  0.2842  0.1229
18915TIP3    H278161   4.638   2.983  11.882  0.0682  0.4593 -1.1747
18916TIP3   OH278162   1.448   2.345  16.444 -0.0434 -0.1680  0.1221
18916TIP3    H178163   1.429   2.276  16.379  0.2468  0.5289 -0.7281
18916TIP3    H278164   1.513   2.306  16.502 -0.3101 -0.8136 -0.0008
18917TIP3   OH278165   0.525   4.259  12.905 -0.2815  0.2908  0.0319
18917TIP3    H178166   0.523   4.189  12.840  0.5747  0.5665 -0.3054
18917TIP3    H278167   0.528   4.340  12.854 -0.2669  0.5340  0.4142
18918TIP3   OH278168   5.554   4.118   5.039 -0.3470 -0.1933 -0.1680
18918TIP3    H178169   5.583   4.199   4.998 -0.6654 -0.6338 -1.3058
18918TIP3    H278170   5.508   4.071   4.969  1.2940 -2.1243 -0.0688
18919TIP3   OH278171   1.170   1.884  16.415 -0.2291  0.1360 -0.1488
18919TIP3    H178172   1.077   1.884  16.434  0.2024 -0.9112  2.5051
18919TIP3    H278173   1.176   1.873  16.320 -2.8013 -1.3425 -0.2210
18920TIP3   OH278174   5.173   1.506   4.332  0.3326  0.1977  0.5677
18920TIP3    H178175   5.231   1.583   4.330 -1.4291  1.5833  0.4881
18920TIP3    H278176   5.177   1.476   4.422 -0.3654  1.5565  1.0881
18921TIP3   OH278177   6.672   5.928  17.322 -0.3233 -0.6056 -0.2297
18921TIP3    H178178   6.714   5.904  17.240  0.7338 -1.1756  0.4620
18921TIP3    H278179   6.632   5.847  17.354  0.4093 -0.6941  0.4714
18922TIP3   OH278180   4.810   1.564  14.130 -0.3947  0.2370 -0.6301
18922TIP3    H178181   4.827   1.470  14.124 -0.1215  0.2415 -0.0468
18922TIP3    H278182   4.715   1.571  14.126 -0.4328 -0.0910 -0.3962
18923TIP3   OH278183   2.951   4.796  17.007  0.1904 -0.1105  0.7352
18923TIP3    H178184   2.966   4.704  16.986  0.2692 -0.0250  0.3944
18923TIP3    H278185   2.992   4.844  16.934 -0.5250  0.1686  0.4986
18924TIP3   OH278186   5.283   3.960   4.001  0.3045 -0.1387 -0.5344
18924TIP3    H178187   5.230   3.963   4.080  0.2229  1.3759 -0.6085
18924TIP3    H278188   5.224   3.927   3.933  0.1877 -0.8168 -0.1126
18925TIP3   OH278189   5.332   2.846  13.123  0.3113  0.1751  0.2896
18925TIP3    H178190   5.297   2.829  13.035  0.3618 -0.0379  0.3116
18925TIP3    H278191   5.295   2.777  13.177 -3.1558  2.5738  1.3665
18926TIP3   OH278192   5.184   3.297  10.090 -0.2926 -0.1469 -0.4298
18926TIP3    H178193   5.275   3.299  10.062  0.0194 -0.0193  0.5342
18926TIP3    H278194   5.136   3.265  10.014  0.3046  1.5686 -1.5832
18927TIP3   OH278195   5.510   0.716  15.123  0.1165  0.1640  0.2288
18927TIP3    H178196   5.575   0.654  15.089  0.5987 -0.1045  1.5645
18927TIP3    H278197   5.430   0.664  15.130 -0.0508  0.2833 -0.6774
18928TIP3   OH278198   4.707   2.552   2.859  0.3421  0.1608  0.4191
18928TIP3    H178199   4.740   2.621   2.916 -0.6229  2.4920 -1.6685
18928TIP3    H278200   4.767   2.478   2.874  3.3698  2.4415  0.5316
18929TIP3   OH278201   1.233   0.003   0.452 -0.3329 -0.1672 -0.2881
18929TIP3    H178202   1.139   0.023   0.459 -0.4576 -0.2461 -1.4892
18929TIP3    H278203   1.241  -0.041   0.368  0.8250  0.0323 -0.2908
18930TIP3   OH278204   4.793   4.913  12.752 -0.0549 -0.1446 -0.0990
18930TIP3    H178205   4.844   4.859  12.811  0.7060  0.2761 -0.3528
18930TIP3    H278206   4.728   4.955  12.808 -0.5547 -1.1954  0.1175
18931TIP3   OH278207   0.249   0.517   3.423  0.1761 -0.2237 -0.2157
18931TIP3    H178208   0.276   0.426   3.417 -1.0257 -0.6246  0.1586
18931TIP3    H278209   0.155   0.516   3.405 -0.5164  0.4914  2.7790
18932TIP3   OH278210   0.767   0.037   3.913  0.0959  0.1745 -0.0812
18932TIP3    H178211   0.752   0.106   3.849  0.6704  0.5657  0.1943
18932TIP3    H278212   0.818   0.079   3.982 -3.2494  0.6981  2.3337
18933TIP3   OH278213   6.096   1.358   4.101  0.1252  0.8949 -0.1309
18933TIP3    H178214   6.072   1.312   4.020 -0.6118  0.9244  0.0657
18933TIP3    H278215   6.012   1.380   4.142  0.4085  2.8796 -0.4719
18934TIP3   OH278216   3.224   5.473  11.932 -0.1824 -0.0878  0.1083
18934TIP3    H178217   3.229   5.478  12.027 -0.7072  0.6219  0.1162
18934TIP3    H278218   3.228   5.565  11.904  1.5146 -0.3643 -0.6546
18935TIP3   OH278219   5.053   3.912   3.075 -0.2106  0.4980 -0.4559
18935TIP3    H178220   5.014   3.970   3.140 -1.5853 -2.3764  1.5193
18935TIP3    H278221   4.993   3.837   3.070  0.9438 -0.4068 -3.5417
18936TIP3   OH278222   2.863   0.486   1.192 -0.3167 -0.2803 -0.0284
18936TIP3    H178223   2.938   0.437   1.159  0.6639 -0.0846  1.7834
18936TIP3    H278224   2.787   0.434   1.165  0.3820 -0.3248 -2.1723
18937TIP3   OH278225   5.835   1.810   5.692 -0.2614  0.6390 -0.2744
18937TIP3    H178226   5.847   1.842   5.602  0.4697  1.2411  0.0265
18937TIP3    H278227   5.899   1.741   5.702  0.4756  1.3666  0.1509
18938TIP3   OH278228   1.861   2.731  13.629  0.3811 -0.4120  0.1952
18938TIP3    H178229   1.954   2.713  13.646  0.3630 -0.3948  0.3134
18938TIP3    H278230   1.832   2.779  13.706  0.0055 -1.3339  0.6463
18939TIP3   OH278231   4.113   1.683   5.219  0.3570  0.9778 -0.3765
18939TIP3    H178232   4.143   1.609   5.272 -1.9769  1.4253  1.7468
18939TIP3    H278233   4.125   1.759   5.276  0.5521  1.9289 -1.6515
18940TIP3   OH278234   3.355   5.404   0.457 -0.4228 -0.3619 -0.0566
18940TIP3    H178235   3.262   5.409   0.437 -0.4360  2.0227  0.3605
18940TIP3    H278236   3.399   5.419   0.373 -0.3866 -1.0045 -0.1624
18941TIP3   OH278237   6.439   2.669   1.897  0.4328 -0.0806 -0.2348
18941TIP3    H178238   6.414   2.688   1.987 -0.3402  0.7963 -0.6167
18941TIP3    H278239   6.444   2.573   1.892  0.2030 -0.1416  0.6546
18942TIP3   OH278240   0.224   1.301   0.486 -0.1901  0.2325 -0.2444
18942TIP3    H178241   0.270   1.306   0.570 -0.8624  0.0562  0.1483
18942TIP3    H278242   0.275   1.356   0.427 -1.3618  2.9396  1.0606
18943TIP3   OH278243   1.386   6.210   0.491  0.0262  0.1372 -1.0331
18943TIP3    H178244   1.364   6.118   0.478  0.1037 -0.2484  1.2048
18943TIP3    H278245   1.358   6.253   0.410 -0.0219 -1.8335 -2.1161
18944TIP3   OH278246   5.545   0.096  13.794  1.1565  0.4385  0.3913
18944TIP3    H178247   5.464   0.139  13.821  0.3625 -1.8731  1.8857
18944TIP3    H278248   5.614   0.145  13.838  0.2825  0.2473  2.0296
18945TIP3   OH278249   3.338   1.332   6.344  0.4944  0.4947  0.3839
18945TIP3    H178250   3.418   1.297   6.384 -0.3517 -0.9473  0.8921
18945TIP3    H278251   3.291   1.374   6.417 -0.2814 -0.7141  0.6154
18946TIP3   OH278252   4.837   0.182   5.499 -0.4883 -0.3501  0.8917
18946TIP3    H178253   4.893   0.196   5.575  1.2542 -0.1916 -0.3690
18946TIP3    H278254   4.896   0.183   5.424 -2.3463  1.3463 -0.6859
18947TIP3   OH278255   0.551   0.462  15.549 -0.5461  0.0130 -0.0005
18947TIP3    H178256   0.518   0.536  15.599 -1.1122  0.6302 -1.2257
18947TIP3    H278257   0.634   0.439  15.590  0.0267  1.8485 -0.0591
18948TIP3   OH278258   1.390   2.636  16.504 -0.4414  0.4960 -0.0848
18948TIP3    H178259   1.376   2.679  16.419  0.4896  0.5877 -0.2062
18948TIP3    H278260   1.389   2.542  16.484 -1.9350  0.4602  0.0933
18949TIP3   OH278261   0.685   3.049  10.651  0.7071 -0.3149 -0.0116
18949TIP3    H178262   0.700   3.038  10.744 -2.3935 -1.3880  0.4738
18949TIP3    H278263   0.706   3.142  10.634 -0.7553  0.4886  2.2397
18950TIP3   OH278264   3.824   5.183  14.705 -0.4314 -0.0655 -0.0184
18950TIP3    H178265   3.876   5.147  14.777 -2.2894  0.5798  1.7578
18950TIP3    H278266   3.775   5.108  14.671  0.4841 -0.3808 -0.6700
18951TIP3   OH278267   1.724   2.948  11.389  0.1516 -0.2498 -0.2869
18951TIP3    H178268   1.638   2.987  11.375  0.4459  0.3097 -0.6071
18951TIP3    H278269   1.753   2.922  11.301  1.7850  2.7817 -0.7811
18952TIP3   OH278270   3.439   3.919   0.485 -0.0826 -0.2195 -0.2592
18952TIP3    H178271   3.353   3.878   0.501 -0.2917  0.4606  0.3968
18952TIP3    H278272   3.472   3.940   0.572  0.7451 -0.4384 -0.5132
18953TIP3   OH278273   3.479   1.130   1.715  0.3698 -0.0195  0.2799
18953TIP3    H178274   3.554   1.071   1.716 -0.6823 -1.3949  1.2276
18953TIP3    H278275   3.488   1.181   1.796  0.6098  0.2527  0.0831
18954TIP3   OH278276   6.442   5.293  16.733 -0.1746 -0.0848  0.5350
18954TIP3    H178277   6.423   5.282  16.826 -0.4525 -0.8897  0.3894
18954TIP3    H278278   6.448   5.204  16.699 -1.2374  0.1840 -0.4405
18955TIP3   OH278279   0.915   4.708   0.953  0.2069  0.7816 -0.6892
18955TIP3    H178280   0.831   4.700   0.908 -0.4249 -1.2171  0.7153
18955TIP3    H278281   0.965   4.631   0.925  0.4749  0.4570  0.5958
18956TIP3   OH278282   2.842   3.021  11.712 -0.1735 -0.4238 -0.3158
18956TIP3    H178283   2.835   3.095  11.652  0.3232 -1.6151 -1.9220
18956TIP3    H278284   2.909   2.965  11.672 -1.7973 -2.5928 -0.1379
18957TIP3   OH278285   6.439   0.180  12.082 -0.4757  0.0018 -0.1442
18957TIP3    H178286   6.398   0.244  12.141  0.2554  0.4396 -0.0967
18957TIP3    H278287   6.531   0.177  12.110 -0.2083 -0.0676 -1.0185
18958TIP3   OH278288   1.611   5.150   1.535 -0.1517 -0.2043  0.4546
18958TIP3    H178289   1.545   5.191   1.479 -1.1990 -0.7341  1.2652
18958TIP3    H278290   1.579   5.061   1.548  1.0263 -0.6527  0.4066
18959TIP3   OH278291   6.109   4.652  11.715 -0.5091 -0.0990 -0.0917
18959TIP3    H178292   6.030   4.677  11.666 -0.6468 -1.5055 -0.6431
18959TIP3    H278293   6.097   4.692  11.801 -1.3233  0.5858 -0.4996
18960TIP3   OH278294   1.645   5.437  14.224 -0.3456  0.1485  0.4206
18960TIP3    H178295   1.612   5.355  14.187  0.4764 -0.4856  1.0388
18960TIP3    H278296   1.720   5.410  14.277 -0.2350  1.2773  0.8579
18961TIP3   OH278297   4.741   6.643  11.224 -0.3634 -0.4800  0.1417
18961TIP3    H178298   4.805   6.614  11.159 -1.3702 -3.4143  0.3217
18961TIP3    H278299   4.687   6.706  11.177  1.7166  1.0040 -0.4198
18962TIP3   OH278300   6.483   0.500   6.491 -0.7785  0.5478  0.0383
18962TIP3    H178301   6.470   0.589   6.457 -0.9684  0.3044 -0.5337
18962TIP3    H278302   6.577   0.495   6.509 -0.7189  0.7647 -0.2051
18963TIP3   OH278303   6.678   1.535   0.438  0.2051  0.7452  0.0361
18963TIP3    H178304   6.586   1.559   0.449 -0.3170 -0.2649 -1.6499
18963TIP3    H278305   6.709   1.517   0.527 -1.5369  0.0983  0.5617
18964TIP3   OH278306   2.331   5.173   2.903  0.1662  0.1642  0.1437
18964TIP3    H178307   2.369   5.193   2.988  1.4888  0.0927 -0.4037
18964TIP3    H278308   2.312   5.259   2.865  0.5230  0.2283  0.1064
18965TIP3   OH278309   0.153   4.840   1.440  0.4396  0.1956  0.1404
18965TIP3    H178310   0.089   4.894   1.394  0.1060 -0.5494 -0.2861
18965TIP3    H278311   0.103   4.766   1.472  1.1635 -0.6310 -0.6001
18966TIP3   OH278312   5.510   5.698  15.791 -0.2141  0.4753  0.2501
18966TIP3    H178313   5.550   5.690  15.878  3.6377 -0.6963 -1.4324
18966TIP3    H278314   5.561   5.640  15.735 -2.1468  1.6175 -2.9744
18967TIP3   OH278315   5.872   2.726   1.281  0.1966 -0.0337 -0.1373
18967TIP3    H178316   5.951   2.704   1.233  0.1906 -1.7778  0.5682
18967TIP3    H278317   5.833   2.798   1.232  1.8778  0.4381 -0.8465
18968TIP3   OH278318   5.900   2.497   5.373 -0.6489  0.4424  0.0340
18968TIP3    H178319   5.953   2.574   5.392  2.3186 -0.9278 -1.9293
18968TIP3    H278320   5.905   2.445   5.453  2.4169 -0.3119 -0.5080
18969TIP3   OH278321   3.965   5.414   2.023  0.4208 -0.4904  0.5717
18969TIP3    H178322   3.906   5.348   1.989  1.5098 -0.6726 -1.0757
18969TIP3    H278323   4.038   5.416   1.961 -0.3765  3.5207 -0.5750
18970TIP3   OH278324   1.802   2.881   4.266 -0.2760  0.4245  0.0696
18970TIP3    H178325   1.862   2.913   4.333  0.8075 -0.4408 -0.4387
18970TIP3    H278326   1.777   2.793   4.295 -1.6613  0.9327  0.4850
18971TIP3   OH278327   6.378   1.902  14.688  0.2540 -1.1361  0.0342
18971TIP3    H178328   6.307   1.849  14.725 -0.1795 -1.0592 -0.6839
18971TIP3    H278329   6.409   1.954  14.762  0.9043 -2.5977  0.8429
18972TIP3   OH278330   4.436   2.438   2.885  0.2052  0.5831  0.4803
18972TIP3    H178331   4.515   2.489   2.866  0.9453 -0.6675  0.0903
18972TIP3    H278332   4.408   2.405   2.800  0.1847 -0.3064  0.8305
18973TIP3   OH278333   5.208   6.642  12.389  0.0997 -0.0954  0.1621
18973TIP3    H178334   5.123   6.675  12.420 -0.3433 -0.2508 -0.8701
18973TIP3    H278335   5.243   6.713  12.335  0.7016  0.0237  0.6928
18974TIP3   OH278336   1.070   4.441   3.068 -0.0744 -0.1968 -0.0716
18974TIP3    H178337   1.052   4.498   3.143  0.9829  1.5089 -1.0609
18974TIP3    H278338   1.089   4.501   2.996 -1.4410 -1.7881 -1.8419
18975TIP3   OH278339   3.418   2.933   4.043 -0.1976 -0.1602  0.4727
18975TIP3    H178340   3.363   3.007   4.068 -0.5969 -0.8166  1.5910
18975TIP3    H278341   3.489   2.934   4.107 -0.3422 -0.8942  0.6473
18976TIP3   OH278342   1.357   0.076   5.573  0.3968 -0.3334  0.2688
18976TIP3    H178343   1.379   0.049   5.661  1.5983 -0.6059 -0.1057
18976TIP3    H278344   1.301   0.005   5.539 -0.1626 -0.1713  0.8325
18977TIP3   OH278345   0.763   0.491   4.898  0.1142 -0.3132  0.2541
18977TIP3    H178346   0.700   0.470   4.967 -0.6000  1.4916  0.2222
18977TIP3    H278347   0.829   0.546   4.941  1.0702 -1.2555  0.0318
18978TIP3   OH278348   3.977   5.002   4.415  0.4368  0.1626 -0.4496
18978TIP3    H178349   3.972   4.927   4.355 -0.9478 -0.1273 -0.0073
18978TIP3    H278350   4.045   5.058   4.377  1.2435 -1.1215 -0.9966
18979TIP3   OH278351   0.415   1.862  16.221 -0.2232 -0.0182 -0.8166
18979TIP3    H178352   0.416   1.824  16.309 -0.4654  0.5097 -0.5857
18979TIP3    H278353   0.455   1.948  16.232 -1.4135  0.5807 -0.9729
18980TIP3   OH278354   5.931   4.332   4.423  0.5632 -0.3673 -0.2320
18980TIP3    H178355   5.846   4.375   4.418  0.9787  0.9304  2.2476
18980TIP3    H278356   5.995   4.402   4.413  1.2900 -0.8521  0.7739
18981TIP3   OH278357   4.574   4.838  11.839  0.0699  0.2949  0.0993
18981TIP3    H178358   4.641   4.888  11.885  1.7253  0.1172 -1.9403
18981TIP3    H278359   4.617   4.810  11.758 -2.2558 -0.4756 -0.9600
18982TIP3   OH278360   4.994   0.637   4.459  0.0106  0.2874  0.0039
18982TIP3    H178361   4.976   0.730   4.453  1.5572  0.6032 -0.2866
18982TIP3    H278362   4.919   0.600   4.506 -0.3791  1.7485  0.5626
18983TIP3   OH278363   0.160   5.942  16.659 -0.5363  0.4945 -0.1270
18983TIP3    H178364   0.073   5.981  16.653 -1.0779 -0.3456  1.6895
18983TIP3    H278365   0.215   6.011  16.695 -0.6274  0.7515 -0.4743
18984TIP3   OH278366   4.976   2.888   4.714  0.4404 -0.1307  0.3022
18984TIP3    H178367   4.897   2.943   4.711  0.3424 -0.3259 -2.2209
18984TIP3    H278368   5.039   2.940   4.763 -0.5883  0.9384  0.5480
18985TIP3   OH278369   2.173   4.659   6.643  0.8564  0.2346  0.2160
18985TIP3    H178370   2.206   4.588   6.698  1.5435  0.4252  0.0639
18985TIP3    H278371   2.085   4.677   6.676 -0.7714 -2.9685 -1.8760
18986TIP3   OH278372   4.694   6.664  11.679 -0.1416  0.0144 -0.3810
18986TIP3    H178373   4.759   6.668  11.608 -0.7292 -0.2873 -0.9456
18986TIP3    H278374   4.746   6.668  11.759  0.5777 -0.2197 -0.8255
18987TIP3   OH278375   4.724   6.112  14.694 -0.2888  0.2106 -0.4616
18987TIP3    H178376   4.644   6.095  14.742  0.0466  0.7632  0.3117
18987TIP3    H278377   4.784   6.043  14.722 -1.3786 -2.1521 -3.3467
18988TIP3   OH278378   6.506   3.684   0.333  0.0151 -0.1804 -0.6118
18988TIP3    H178379   6.507   3.595   0.298  1.6301  0.3012 -1.9109
18988TIP3    H278380   6.551   3.678   0.417  0.8637 -0.4623 -1.0792
18989TIP3   OH278381   5.004   2.483   5.002 -0.0755  0.4927 -0.1327
18989TIP3    H178382   5.071   2.524   5.056 -0.9945 -0.5897  1.9938
18989TIP3    H278383   5.039   2.396   4.981  0.1378  0.7865 -1.0209
18990TIP3   OH278384   5.617   6.626  12.515 -0.3336 -0.1024 -0.2306
18990TIP3    H178385   5.670   6.620  12.435 -0.2560 -0.5307 -0.1514
18990TIP3    H278386   5.627   6.717  12.543  2.7624 -0.7932  1.3738
18991TIP3   OH278387   3.979   0.286  16.719 -0.1630 -0.2984 -0.0814
18991TIP3    H178388   3.978   0.381  16.710  1.4098 -0.2919 -0.4315
18991TIP3    H278389   4.071   0.263  16.724 -0.5128 -1.8285 -0.1658
18992TIP3   OH278390   0.056   0.630  11.224  0.4370 -0.1239 -0.2099
18992TIP3    H178391   0.007   0.696  11.274  1.0333 -1.1276  1.7998
18992TIP3    H278392   0.006   0.550  11.233  2.3308 -1.1845  1.9165
18993TIP3   OH278393   2.501   2.093  17.273  0.2184 -0.1752 -0.5680
18993TIP3    H178394   2.406   2.081  17.267  0.2535 -0.7031 -0.2125
18993TIP3    H278395   2.518   2.097  17.367  0.5282  0.0807 -0.6365
18994TIP3   OH278396   2.015   4.837  11.409 -0.1625  0.1032 -0.0176
18994TIP3    H178397   2.008   4.907  11.345 -1.6687 -0.9609 -1.1010
18994TIP3    H278398   1.970   4.763  11.368  2.4148 -1.9108  0.5390
18995TIP3   OH278399   2.969   3.133   1.181  0.0706  0.6093  0.0625
18995TIP3    H178400   2.894   3.175   1.138 -1.0278 -0.9477  0.3401
18995TIP3    H278401   2.955   3.040   1.164  0.4701  0.0720  2.4230
18996TIP3   OH278402   4.524   1.111  14.383 -0.0037  0.0849 -0.8425
18996TIP3    H178403   4.445   1.152  14.418 -0.0696  0.1164 -1.0278
18996TIP3    H278404   4.596   1.161  14.422 -0.0572 -0.3263 -0.1917
18997TIP3   OH278405   3.086   4.511  15.897  0.1102 -0.3327  0.5264
18997TIP3    H178406   3.031   4.444  15.938  0.2075 -1.2420 -0.7593
18997TIP3    H278407   3.145   4.461  15.840 -0.1844  0.8970 -0.8880
18998TIP3   OH278408   3.242   3.446   6.072 -0.3928  0.3782 -0.2618
18998TIP3    H178409   3.246   3.506   6.146 -1.8613  0.8698 -0.5383
18998TIP3    H278410   3.284   3.366   6.103  0.3087  1.0572  0.5988
18999TIP3   OH278411   3.388   1.469   0.359 -0.4055  0.2359 -0.0133
18999TIP3    H178412   3.293   1.480   0.363 -0.9888 -3.5286 -0.0015
18999TIP3    H278413   3.419   1.510   0.440 -2.1432  0.5726  0.5353
19000TIP3   OH278414   0.671   4.373   0.621  0.0756 -0.0866  0.2948
19000TIP3    H178415   0.735   4.409   0.559 -1.4576  1.1030 -0.6582
19000TIP3    H278416   0.590   4.421   0.602 -1.7069 -3.0075 -0.0130
19001TIP3   OH278417   0.567   0.499   3.984  0.2304 -0.2914 -0.0693
19001TIP3    H178418   0.528   0.412   3.977  0.4493 -0.4129  0.1826
19001TIP3    H278419   0.610   0.499   4.070  0.6030 -0.0863 -0.2534
19002TIP3   OH278420   2.029   1.686  15.199 -0.0175  0.0740  0.6738
19002TIP3    H178421   2.066   1.759  15.249  0.0855 -0.2586  1.0878
19002TIP3    H278422   2.104   1.634  15.173 -0.1137 -0.0388  0.6193
19003TIP3   OH278423   1.509   0.107  16.004 -0.2527 -0.2738 -1.1097
19003TIP3    H178424   1.558   0.102  15.922  0.5065 -0.9698 -0.6214
19003TIP3    H278425   1.479   0.017  16.020 -0.4698 -0.1269 -0.6669
19004TIP3   OH278426   6.168   2.298   3.435  0.2914 -0.5456  0.1551
19004TIP3    H178427   6.157   2.258   3.522  0.0310 -0.9873 -0.0759
19004TIP3    H278428   6.082   2.288   3.393  0.0017  0.9421  0.3666
19005TIP3   OH278429   2.583   3.955  10.992 -0.3408  0.2079  0.1525
19005TIP3    H178430   2.528   3.898  10.938  1.2791 -1.2435 -0.0738
19005TIP3    H278431   2.575   3.919  11.080 -1.3147  1.2617  0.5149
19006TIP3   OH278432   0.202   4.684  14.960  0.2668  0.7042  0.6873
19006TIP3    H178433   0.259   4.620  14.917 -1.0564 -1.5796  2.1102
19006TIP3    H278434   0.130   4.697  14.898  1.3816  2.2204 -0.3471
19007TIP3   OH278435   3.158   2.157  12.104  0.1312 -0.8741 -0.5215
19007TIP3    H178436   3.158   2.064  12.128 -0.4956 -0.2069  2.4948
19007TIP3    H278437   3.069   2.174  12.072 -0.6873 -0.7725  1.6634
19008TIP3   OH278438   3.520   4.599   1.995  0.1013  0.1897 -0.1222
19008TIP3    H178439   3.587   4.532   2.001 -0.6167 -0.6765 -1.3177
19008TIP3    H278440   3.554   4.672   2.046  0.9684 -1.0157  1.0846
19009TIP3   OH278441   4.896   1.574  17.241 -0.0355 -0.5530 -0.1656
19009TIP3    H178442   4.816   1.609  17.281 -1.3298 -0.0006 -2.9790
19009TIP3    H278443   4.919   1.639  17.174  1.1406 -2.0830 -1.3093
19010TIP3   OH278444   1.265   2.593  10.931 -0.6336  0.1903 -0.3205
19010TIP3    H178445   1.332   2.609  10.865 -0.8172 -0.6555 -0.7257
19010TIP3    H278446   1.303   2.525  10.987 -0.5073  0.8498  0.4135
19011TIP3   OH278447   5.581   3.061  14.817  0.1821  0.5086  0.2713
19011TIP3    H178448   5.504   3.087  14.767 -0.4403 -2.6396 -0.6345
19011TIP3    H278449   5.551   3.060  14.908 -1.2502 -1.6848 -0.1664
19012TIP3   OH278450   6.120   1.403  11.617  0.0037  0.3579  0.1217
19012TIP3    H178451   6.174   1.470  11.576  0.9669 -1.1156 -1.1092
19012TIP3    H278452   6.044   1.395  11.558 -0.4462  0.8266  0.6298
19013TIP3   OH278453   2.062   1.736   1.224  0.2961 -0.0337 -0.1451
19013TIP3    H178454   2.071   1.756   1.317 -0.6791  1.3756 -0.3228
19013TIP3    H278455   2.027   1.816   1.186 -0.4840 -0.9923 -1.5229
19014TIP3   OH278456   4.259   6.127  16.671 -0.5413 -0.7696 -0.6226
19014TIP3    H178457   4.168   6.154  16.655  0.0117  1.9244  0.1251
19014TIP3    H278458   4.310   6.207  16.657  1.4013 -1.5098  1.5062
19015TIP3   OH278459   6.514   5.977   3.167  0.3442  0.1999 -0.5366
19015TIP3    H178460   6.604   5.946   3.164 -0.1225 -1.3245  0.2343
19015TIP3    H278461   6.478   5.956   3.081 -0.1307 -2.0464  0.1594
19016TIP3   OH278462   4.417   2.425   1.579  0.4558  0.1149  0.0327
19016TIP3    H178463   4.428   2.400   1.671  1.4569  0.0149 -0.0995
19016TIP3    H278464   4.412   2.343   1.531 -0.6302  0.1602  0.0404
19017TIP3   OH278465   0.093   5.376   1.472 -0.4624  0.1280 -0.0730
19017TIP3    H178466   0.018   5.401   1.526  0.2219 -0.8520  1.4167
19017TIP3    H278467   0.058   5.369   1.383 -1.7769  1.1707  0.3328
19018TIP3   OH278468   0.934   6.272   4.413 -0.1771 -0.1078 -0.3290
19018TIP3    H178469   0.967   6.339   4.353 -2.0368  1.3763  0.1982
19018TIP3    H278470   0.902   6.202   4.356  2.8952 -1.2275 -0.8689
19019TIP3   OH278471   2.136   1.758  14.512  0.4583  0.2524  0.2166
19019TIP3    H178472   2.152   1.773  14.605 -0.6838 -0.2840  0.5077
19019TIP3    H278473   2.080   1.831  14.485  0.7445  0.3787 -0.0515
19020TIP3   OH278474   1.967   5.139   1.094 -0.0248  0.5176  0.1620
19020TIP3    H178475   1.970   5.044   1.095 -1.8772  0.4045  1.6018
19020TIP3    H278476   1.875   5.160   1.111 -0.1580  2.5912 -2.4250
19021TIP3   OH278477   0.489   2.388  11.565  0.5385  0.3512 -0.0314
19021TIP3    H178478   0.506   2.478  11.538  1.3629  0.0697 -0.4688
19021TIP3    H278479   0.575   2.351  11.584  0.3833 -0.8513 -1.4800
19022TIP3   OH278480   5.546   3.205  13.740  0.0942 -0.1720  0.0634
19022TIP3    H178481   5.578   3.121  13.708 -1.4352 -0.8871  0.3184
19022TIP3    H278482   5.454   3.190  13.759 -0.1368  1.4882  0.4254
19023TIP3   OH278483   0.255   6.258  10.942 -0.3140 -0.4065  0.3595
19023TIP3    H178484   0.316   6.190  10.913  0.1791 -0.7166  2.0386
19023TIP3    H278485   0.170   6.215  10.944 -0.5004 -0.1892 -1.2206
19024TIP3   OH278486   2.659   3.864  14.174 -0.5220  0.0803 -0.0465
19024TIP3    H178487   2.729   3.837  14.115 -0.4040  1.9757 -0.8401
19024TIP3    H278488   2.578   3.839  14.128 -0.4111 -0.3383 -0.0233
19025TIP3   OH278489   4.011   0.011   1.763 -0.0018 -0.6786 -0.6996
19025TIP3    H178490   3.958  -0.068   1.751 -0.8036 -0.8660  2.9658
19025TIP3    H278491   3.954   0.082   1.735 -1.5709 -1.0446  1.2963
19026TIP3   OH278492   2.466   4.584   1.881  0.3334  0.3323  0.0878
19026TIP3    H178493   2.447   4.582   1.975 -3.0787 -0.4357 -0.4914
19026TIP3    H278494   2.521   4.507   1.866  1.8844  1.0782  1.5434
19027TIP3   OH278495   2.508   2.566   5.555 -0.7367  0.5820 -0.0292
19027TIP3    H178496   2.533   2.647   5.600 -1.4520  0.4363  0.6420
19027TIP3    H278497   2.414   2.558   5.571 -0.5988 -0.5828  0.2387
19028TIP3   OH278498   0.678   4.983  12.142  0.0773 -0.1861 -0.5364
19028TIP3    H178499   0.675   4.911  12.204  0.4193  0.4387  0.2171
19028TIP3    H278500   0.730   5.051  12.185 -0.4706  0.6266 -1.1141
19029TIP3   OH278501   0.070   5.412  16.677  0.4710 -0.1180  0.1112
19029TIP3    H178502   0.033   5.365  16.603  0.5804 -1.3118  0.7964
19029TIP3    H278503  -0.006   5.445  16.725  0.3522 -0.6382  0.2852
19030TIP3   OH278504   5.709   0.981   5.927 -0.1514  0.6310  0.0086
19030TIP3    H178505   5.733   0.985   6.019  0.8806 -0.0361 -0.2237
19030TIP3    H278506   5.783   1.020   5.881 -0.1338 -0.1364 -0.6258
19031TIP3   OH278507   0.870   0.466  17.170  0.1309 -0.3776  0.2411
19031TIP3    H178508   0.807   0.483  17.100 -0.2464 -1.3643  0.3352
19031TIP3    H278509   0.894   0.553  17.201  2.0504  0.2691 -2.6172
19032TIP3   OH278510   0.620   6.482  17.047 -0.1203 -0.1781 -0.4952
19032TIP3    H178511   0.673   6.486  16.968  0.6179 -0.4495 -0.0277
19032TIP3    H278512   0.638   6.395  17.084  0.6413  0.4613  0.7063
19033TIP3   OH278513   0.099   3.177  14.320 -1.0072  0.0087  0.3962
19033TIP3    H178514   0.021   3.230  14.305 -0.6287  0.5670  0.3966
19033TIP3    H278515   0.130   3.154  14.233  0.0265  1.5508  0.3335
19034TIP3   OH278516   5.556   0.353  11.149  0.3140  0.7501 -0.2939
19034TIP3    H178517   5.529   0.443  11.129  0.4336  0.8140 -0.1727
19034TIP3    H278518   5.556   0.349  11.245  0.3486  0.6337 -0.2992
19035TIP3   OH278519   1.483   1.765   4.765  0.0810  0.2327  0.0212
19035TIP3    H178520   1.566   1.724   4.786 -1.1157 -2.5011 -0.1692
19035TIP3    H278521   1.463   1.737   4.676 -2.1558 -1.2884  0.9081
19036TIP3   OH278522   2.292   5.691   1.257 -0.4136 -0.7248 -0.3419
19036TIP3    H178523   2.259   5.706   1.168 -0.6229  0.3366 -0.0930
19036TIP3    H278524   2.276   5.598   1.273 -2.4422 -0.4580 -0.5825
19037TIP3   OH278525   6.174   3.293  11.365  0.0861  0.1500  0.1499
19037TIP3    H178526   6.140   3.249  11.287 -0.4371 -1.1934  1.0976
19037TIP3    H278527   6.095   3.323  11.411  0.3219 -0.1617  0.7679
19038TIP3   OH278528   3.129   5.092  13.818 -0.0287  0.2894  0.5197
19038TIP3    H178529   3.097   5.113  13.730 -0.4637 -0.1554  0.5700
19038TIP3    H278530   3.210   5.043  13.803  0.3235  0.8957  0.3849
19039TIP3   OH278531   0.265   6.724  14.549  0.0494 -0.1298 -0.2305
19039TIP3    H178532   0.305   6.791  14.493  0.2676  0.0220  0.1044
19039TIP3    H278533   0.319   6.723  14.628 -0.6739  0.1485  0.2768
19040TIP3   OH278534   0.196   3.170  14.037 -0.4444  0.4731 -0.0217
19040TIP3    H178535   0.270   3.223  14.006  0.7080 -0.2158  1.4008
19040TIP3    H278536   0.196   3.093  13.980 -0.7135  0.9522 -0.6713
19041TIP3   OH278537   4.026   4.826  12.514 -0.0115 -0.2125  0.1261
19041TIP3    H178538   4.087   4.752  12.509  1.8542  1.2437  0.0079
19041TIP3    H278539   4.074   4.893  12.565 -0.6536  1.7409 -1.6784
19042TIP3   OH278540   3.212   0.114   0.499  0.3437 -0.4165 -0.3299
19042TIP3    H178541   3.160   0.140   0.423 -0.5142 -1.2549 -0.0652
19042TIP3    H278542   3.158   0.139   0.575  0.1056 -1.6458 -0.0553
19043TIP3   OH278543   4.505   0.986   4.683 -0.5329 -0.5517 -0.4729
19043TIP3    H178544   4.442   0.915   4.695 -0.7516 -0.2801  0.0239
19043TIP3    H278545   4.548   0.967   4.600  0.1796 -1.8792  0.1691
19044TIP3   OH278546   3.170   2.844   0.521  0.1142  0.2886  0.0104
19044TIP3    H178547   3.209   2.786   0.456  1.0161 -0.1461  0.9104
19044TIP3    H278548   3.141   2.785   0.591 -1.6735  0.6537 -0.3701
19045TIP3   OH278549   4.183   2.314   3.946  0.5671  0.1800  0.5432
19045TIP3    H178550   4.278   2.306   3.949  0.5965  0.4104  0.1844
19045TIP3    H278551   4.165   2.364   3.867  0.1811  0.7141  0.9610
19046TIP3   OH278552   1.343   3.127   3.509 -0.0687  0.7804 -0.4935
19046TIP3    H178553   1.343   3.032   3.520  1.4106  0.8939  0.8423
19046TIP3    H278554   1.262   3.157   3.551  0.3471  0.2513  0.7241
19047TIP3   OH278555   0.642   0.420  13.414  0.3234  0.1437  0.4977
19047TIP3    H178556   0.729   0.413  13.453  0.2208  1.1298  0.9372
19047TIP3    H278557   0.652   0.382  13.327  0.8186 -1.1228  1.0751
19048TIP3   OH278558   1.394   2.114  16.317 -0.7096 -0.0176  0.1503
19048TIP3    H178559   1.399   2.023  16.288  1.1569 -0.1646  0.7601
19048TIP3    H278560   1.311   2.146  16.283 -0.4260 -1.3085 -1.9330
19049TIP3   OH278561   3.437   4.529   3.534  0.4377 -0.0260  0.4834
19049TIP3    H178562   3.384   4.461   3.575 -0.0386 -0.8104 -1.3254
19049TIP3    H278563   3.511   4.541   3.594 -0.1901 -1.1346  1.5244
19050TIP3   OH278564   4.367   6.438   1.864  0.0389 -0.2246 -0.0273
19050TIP3    H178565   4.323   6.437   1.778  0.0789  0.7271 -0.0659
19050TIP3    H278566   4.438   6.374   1.855 -0.4007 -0.6652 -0.4637
19051TIP3   OH278567   6.543   1.295  17.320 -0.1759 -0.6774  0.2158
19051TIP3    H178568   6.473   1.352  17.288  0.6131 -0.1681 -0.6695
19051TIP3    H278569   6.513   1.206  17.301 -0.8054 -0.4865  0.3093
19052TIP3   OH278570   2.690   3.829   1.101 -0.1546  0.7264 -0.0087
19052TIP3    H178571   2.655   3.918   1.093 -0.3515  0.8343  1.6108
19052TIP3    H278572   2.775   3.833   1.058  1.1017  2.5164  2.4147
19053TIP3   OH278573   0.624   3.113   2.127 -0.3145  0.0043  0.0977
19053TIP3    H178574   0.690   3.085   2.190  3.1577 -0.0101 -3.1296
19053TIP3    H278575   0.564   3.038   2.120  0.5658 -0.8958  1.6586
19054TIP3   OH278576   2.394   2.723  13.620  0.4904 -0.4466  0.2809
19054TIP3    H178577   2.430   2.688  13.539  0.6348 -0.0487  0.1726
19054TIP3    H278578   2.460   2.783  13.653  0.2539 -0.2877  0.4757
19055TIP3   OH278579   0.669   4.677  12.568  0.1744  0.2377  0.0298
19055TIP3    H178580   0.704   4.644  12.485 -0.0550 -0.3249  0.1525
19055TIP3    H278581   0.630   4.600  12.610 -0.1690  0.6247  0.4247
19056TIP3   OH278582   4.976   6.164  11.785 -0.0198  0.3103  0.1329
19056TIP3    H178583   5.065   6.129  11.794 -0.1994 -0.3114 -0.3616
19056TIP3    H278584   4.987   6.259  11.782  0.8480  0.1981 -2.0063
19057TIP3   OH278585   2.478   3.033  11.626  0.5365 -0.0224 -0.0690
19057TIP3    H178586   2.384   3.022  11.645  0.2285 -0.4582 -1.7365
19057TIP3    H278587   2.520   3.026  11.712 -0.9268 -0.1659  0.6705
19058TIP3   OH278588   1.573   3.600  14.735  0.5342  0.3243 -0.1153
19058TIP3    H178589   1.639   3.612  14.667 -0.9252  0.9665 -1.5023
19058TIP3    H278590   1.509   3.670  14.719 -0.9014 -0.7437  0.6412
19059TIP3   OH278591   6.323   1.266   5.839  0.8296 -0.8031 -0.1173
19059TIP3    H178592   6.383   1.323   5.888  0.8898 -0.3497 -0.7028
19059TIP3    H278593   6.249   1.252   5.898 -0.5129  2.1416 -0.9047
19060TIP3   OH278594   0.491   2.953  16.418  0.5267 -0.0553  0.4810
19060TIP3    H178595   0.572   2.987  16.380  1.0652  0.7811  2.2644
19060TIP3    H278596   0.513   2.939  16.511 -1.0251 -0.9693  0.7272
19061TIP3   OH278597   5.562   2.714  15.044 -0.2203 -0.2262 -0.1689
19061TIP3    H178598   5.493   2.671  14.995  1.0161 -1.6119 -0.7627
19061TIP3    H278599   5.517   2.754  15.119 -1.6732 -0.9074 -0.6475
19062TIP3   OH278600   6.116   0.787  13.779 -0.1892 -0.1971 -0.6796
19062TIP3    H178601   6.044   0.793  13.842  0.3633 -0.4022 -0.0162
19062TIP3    H278602   6.132   0.878  13.752  1.3278  0.2565  1.5200
19063TIP3   OH278603   3.461   1.562  15.488  0.1000 -0.1159 -0.0875
19063TIP3    H178604   3.518   1.546  15.413 -1.1962  0.9766 -1.4012
19063TIP3    H278605   3.373   1.542  15.455 -0.5770  1.0572  0.9216
19064TIP3   OH278606   5.834   0.451   5.126  0.4981  0.3007 -0.3169
19064TIP3    H178607   5.821   0.491   5.041 -1.5527  0.7401  0.1529
19064TIP3    H278608   5.787   0.507   5.187  0.5121 -0.9033  0.8615
19065TIP3   OH278609   4.444   2.811  14.178  0.1708 -0.0710  1.1436
19065TIP3    H178610   4.367   2.764  14.147  0.9119 -0.2130 -0.5943
19065TIP3    H278611   4.412   2.899  14.199 -0.6244 -0.3971  1.3036
19066TIP3   OH278612   3.873   1.351   3.076  0.7385 -0.1050 -0.4657
19066TIP3    H178613   3.803   1.347   3.011 -0.1258 -1.1506  0.4976
19066TIP3    H278614   3.882   1.445   3.095 -1.0822 -0.0147  0.1047
19067TIP3   OH278615   4.458   1.846   2.975 -0.2024  0.0556 -0.2359
19067TIP3    H178616   4.524   1.777   2.979 -0.0657  0.1170 -1.2226
19067TIP3    H278617   4.494   1.910   2.913 -0.5436  0.7834  0.3051
19068TIP3   OH278618   4.283   1.002   4.985  0.4217  0.1476  0.3689
19068TIP3    H178619   4.280   1.031   5.077  1.5766  1.9259 -0.1082
19068TIP3    H278620   4.327   1.073   4.939  1.7763 -1.6139 -1.2338
19069TIP3   OH278621   0.151   2.816   1.715 -0.2962 -0.0370 -0.2398
19069TIP3    H178622   0.166   2.899   1.759  1.7704 -1.1585  1.3729
19069TIP3    H278623   0.206   2.819   1.637  1.1183 -0.4851  0.7029
19070TIP3   OH278624   1.816   0.796   6.669 -0.0996 -0.1138 -0.0875
19070TIP3    H178625   1.782   0.866   6.614  1.6677  1.9748  1.3037
19070TIP3    H278626   1.836   0.725   6.608 -1.1006  0.9169 -1.6872
19071TIP3   OH278627   0.268   4.584   1.799  0.4992 -0.0156  0.3746
19071TIP3    H178628   0.255   4.543   1.714  1.0271 -0.6839  0.6051
19071TIP3    H278629   0.209   4.536   1.858 -0.2160  0.7542  0.3011
19072TIP3   OH278630   6.353   4.991   3.337  0.3331  0.4887 -0.1902
19072TIP3    H178631   6.290   5.059   3.317  0.7239  0.5782 -1.1909
19072TIP3    H278632   6.315   4.943   3.411 -1.5079 -0.2518 -1.5411
19073TIP3   OH278633   0.057   6.731  12.652  0.1201  0.2445  0.2069
19073TIP3    H178634   0.128   6.794  12.665  0.5967  0.1263 -1.6359
19073TIP3    H278635  -0.023   6.783  12.659  0.3949  0.5442  1.3622
19074TIP3   OH278636   6.572   3.826  15.474 -0.0292 -0.0772  0.1641
19074TIP3    H178637   6.555   3.918  15.494 -0.0153  0.0642 -0.4360
19074TIP3    H278638   6.644   3.801  15.533  0.3601  0.4667 -0.0739
19075TIP3   OH278639   6.161   4.059   4.780  0.2198  0.1155 -0.0245
19075TIP3    H178640   6.098   3.987   4.773 -0.4904  0.8649 -1.9127
19075TIP3    H278641   6.170   4.073   4.875 -1.2218 -1.0506  0.3386
19076TIP3   OH278642   6.104   3.434   4.983  0.1817  0.5048  0.3634
19076TIP3    H178643   6.062   3.348   4.971  3.3297 -1.2711  0.8254
19076TIP3    H278644   6.050   3.478   5.049 -1.3968 -1.2176  0.3080
19077TIP3   OH278645   4.783   2.256   2.913  0.1825  0.3698  0.4792
19077TIP3    H178646   4.712   2.234   2.852 -1.1705  0.0993  2.0751
19077TIP3    H278647   4.854   2.196   2.889  0.3255  1.3732 -1.8499
19078TIP3   OH278648   4.115   5.337   2.899  0.0480 -0.6046  0.5016
19078TIP3    H178649   4.067   5.395   2.840  0.4933 -0.1368  0.5918
19078TIP3    H278650   4.184   5.392   2.936  0.8336 -1.3250  0.1573
19079TIP3   OH278651   3.432   4.467  15.004  0.1398 -0.4729  0.1126
19079TIP3    H178652   3.446   4.379  15.038  1.0389  0.3009  1.8662
19079TIP3    H278653   3.352   4.460  14.952  0.7469 -2.5226 -0.6433
19080TIP3   OH278654   1.885   5.749  15.281 -0.3385  0.1735 -0.8448
19080TIP3    H178655   1.860   5.726  15.192  0.3377 -0.5312 -0.8592
19080TIP3    H278656   1.807   5.729  15.333 -0.6788  0.4295 -1.2494
19081TIP3   OH278657   2.776   4.168   0.519  0.2308  0.3323  0.0549
19081TIP3    H178658   2.799   4.168   0.426  0.9736 -0.8122  0.2173
19081TIP3    H278659   2.692   4.124   0.523  0.7136 -0.6208  0.0172
19082TIP3   OH278660   4.435   3.859  13.262  0.5646 -0.0006 -0.0350
19082TIP3    H178661   4.430   3.895  13.173  0.4611  0.4476  0.1496
19082TIP3    H278662   4.488   3.922  13.311 -1.3023  1.0278  0.8090
19083TIP3   OH278663   2.034   1.267  12.490  0.0041 -0.2355 -0.4838
19083TIP3    H178664   2.011   1.309  12.407 -0.2490 -0.4821 -0.5377
19083TIP3    H278665   1.992   1.322  12.557 -1.3667 -1.0758 -0.6132
19084TIP3   OH278666   4.351   3.018   1.956  0.2935 -0.5058 -0.1756
19084TIP3    H178667   4.373   3.092   1.900 -1.6106  0.2188 -0.0134
19084TIP3    H278668   4.399   3.034   2.037  0.6797  0.0276 -0.5028
19085TIP3   OH278669   4.907   3.025  16.049  0.3546 -0.7877  0.1595
19085TIP3    H178670   4.834   2.980  16.092  0.0115  0.8562  1.4151
19085TIP3    H278671   4.975   2.959  16.041  0.2253 -1.3554  2.8145
19086TIP3   OH278672   0.452   3.535   3.815 -0.0061 -0.0594  0.0232
19086TIP3    H178673   0.386   3.599   3.790  0.5222 -0.1348 -1.6866
19086TIP3    H278674   0.523   3.587   3.853  0.6600  0.5047 -1.8556
19087TIP3   OH278675   4.547   2.151  12.778  0.2618  0.2456  0.0638
19087TIP3    H178676   4.537   2.146  12.683 -0.1144 -3.4063  0.1768
19087TIP3    H278677   4.458   2.161  12.812 -0.1847 -2.8474  0.0686
19088TIP3   OH278678   0.247   1.216  14.519 -0.2743 -0.1078  0.3582
19088TIP3    H178679   0.220   1.125  14.534 -0.0386  0.0714  2.0865
19088TIP3    H278680   0.168   1.268  14.535 -0.1584  0.0658  0.3695
19089TIP3   OH278681   5.833   0.599  15.446 -0.0584  0.0778  0.2972
19089TIP3    H178682   5.904   0.535  15.449 -0.0853 -0.0047 -0.4669
19089TIP3    H278683   5.777   0.577  15.520  1.9989  1.7037  2.5134
19090TIP3   OH278684   5.140   2.844   1.082  0.1697  0.0416  0.5231
19090TIP3    H178685   5.146   2.939   1.074  3.1263 -0.2115 -2.6479
19090TIP3    H278686   5.163   2.826   1.173 -1.7701  2.2971  1.5976
19091TIP3   OH278687   2.128   4.416  14.667 -0.3187 -0.4171 -0.2676
19091TIP3    H178688   2.193   4.467  14.619  0.0401  1.8486  2.3722
19091TIP3    H278689   2.179   4.360  14.725 -0.6864 -0.1824  0.2986
19092TIP3   OH278690   5.719   4.836  17.234  0.1319 -0.3232  0.2207
19092TIP3    H178691   5.771   4.878  17.302  0.3699 -1.4497  0.7527
19092TIP3    H278692   5.727   4.743  17.252  0.4841 -0.6701 -1.5534
19093TIP3   OH278693   2.076   2.399   0.043 -0.8172 -0.1859 -0.4753
19093TIP3    H178694   2.078   2.388  -0.052  1.5566 -1.4272 -0.3622
19093TIP3    H278695   2.101   2.490   0.057  0.8489 -0.5238 -1.0431
19094TIP3   OH278696   5.181   5.140   6.183  0.0932  0.7457 -0.1265
19094TIP3    H178697   5.260   5.115   6.232 -0.9433 -1.5873  0.4633
19094TIP3    H278698   5.137   5.203   6.240 -0.6893 -1.3312  1.7063
19095TIP3   OH278699   1.497   3.303   4.348 -0.0767 -0.2851 -0.1738
19095TIP3    H178700   1.536   3.378   4.393 -2.1377  1.0750 -0.4732
19095TIP3    H278701   1.509   3.323   4.255 -3.0430  1.2579 -0.3769
19096TIP3   OH278702   1.279   0.774   2.594 -0.4319  0.1440  0.3127
19096TIP3    H178703   1.273   0.679   2.585 -1.5889  0.1968  0.4139
19096TIP3    H278704   1.371   0.790   2.617  0.1277 -0.8277 -1.0647
19097TIP3   OH278705   2.497   0.366  11.854  1.1047 -0.2074 -0.2903
19097TIP3    H178706   2.501   0.420  11.933  2.1369 -0.6276 -0.0455
19097TIP3    H278707   2.504   0.276  11.886  0.4996 -0.4375 -0.7823
19098TIP3   OH278708   5.279   5.151  12.549 -0.5771 -0.7199 -0.6577
19098TIP3    H178709   5.240   5.064  12.536 -0.7224 -1.0760  1.7564
19098TIP3    H278710   5.367   5.143  12.512 -0.5449 -1.9480 -0.3624
19099TIP3   OH278711   1.499   4.176  13.020 -0.0302 -0.3177  0.1821
19099TIP3    H178712   1.482   4.096  13.069 -0.0869  0.2427  1.1153
19099TIP3    H278713   1.594   4.187  13.025 -0.0947  0.0573  0.7059
19100TIP3   OH278714   1.442   5.635   4.816 -0.0157  0.1947 -0.5838
19100TIP3    H178715   1.410   5.572   4.752  0.2437 -0.4041 -0.1409
19100TIP3    H278716   1.416   5.721   4.782 -0.2334 -0.1425 -1.2741
19101TIP3   OH278717   0.993   0.205  13.666 -0.0186 -0.2844 -0.1927
19101TIP3    H178718   1.019   0.228  13.755  0.8866  0.5825 -0.6622
19101TIP3    H278719   1.069   0.162  13.628  0.1440  0.6723 -1.0044
19102TIP3   OH278720   1.841   3.769   2.142 -0.1526  1.2322  0.0529
19102TIP3    H178721   1.923   3.723   2.123 -1.0879 -0.5839  0.1491
19102TIP3    H278722   1.841   3.843   2.082  1.5789  1.3276  0.0936
19103TIP3   OH278723   6.315   6.026  15.643 -0.2137 -0.6444 -0.5430
19103TIP3    H178724   6.272   6.109  15.621  0.0553 -0.5378 -0.6735
19103TIP3    H278725   6.295   5.968  15.570 -0.1425 -0.5981 -0.5995
19104TIP3   OH278726   4.795   4.764   2.671 -0.8460  0.2415 -0.4112
19104TIP3    H178727   4.887   4.770   2.648 -1.1940 -0.4893 -2.1718
19104TIP3    H278728   4.749   4.761   2.587 -2.4250 -0.1845  0.4137
19105TIP3   OH278729   0.898   5.443  17.226 -0.4669  0.0823 -0.4481
19105TIP3    H178730   0.922   5.526  17.185 -0.2890  0.7180  0.8952
19105TIP3    H278731   0.958   5.379  17.188  0.4437  0.8601 -0.3694
19106TIP3   OH278732   2.965   3.006   5.624  0.3474 -0.1888  0.1535
19106TIP3    H178733   2.897   3.070   5.643  0.9441  1.8602 -3.5694
19106TIP3    H278734   3.022   3.007   5.701 -2.1712  0.1805  2.1289
19107TIP3   OH278735   6.547   3.599  17.187 -0.3046  0.1999  0.2241
19107TIP3    H178736   6.592   3.682  17.204  0.8434 -0.8595  3.1346
19107TIP3    H278737   6.618   3.537  17.169 -0.9717 -0.5790  0.2032
19108TIP3   OH278738   2.649   1.528  16.260  0.2376 -0.0549  0.2252
19108TIP3    H178739   2.652   1.606  16.205 -0.6611  0.1533  0.4616
19108TIP3    H278740   2.633   1.456  16.198 -0.7898  0.1793  0.2006
19109TIP3   OH278741   1.284   3.185   3.966  0.2110 -0.2463  0.8678
19109TIP3    H178742   1.371   3.209   3.998 -0.9070  0.7205  3.4564
19109TIP3    H278743   1.228   3.191   4.043 -2.1784 -0.8170 -0.7252
19110TIP3   OH278744   6.643   4.063   3.229 -0.0976  0.1935 -0.0050
19110TIP3    H178745   6.677   4.050   3.140  1.5536  0.5278  0.5270
19110TIP3    H278746   6.632   3.975   3.264 -3.2893 -0.0705 -1.3556
19111TIP3   OH278747   4.738   1.596   5.544 -0.5506  0.1724  0.0225
19111TIP3    H178748   4.643   1.586   5.538 -0.6834 -0.3596  2.0874
19111TIP3    H278749   4.754   1.687   5.522 -1.7359  0.6535  1.0192
19112TIP3   OH278750   1.307   5.309  14.331 -0.0158 -0.2366  0.1936
19112TIP3    H178751   1.252   5.233  14.309  0.2623 -0.5378  0.5248
19112TIP3    H278752   1.291   5.325  14.424 -1.3693  1.1883 -0.2420
19113TIP3   OH278753   2.903   0.913   4.486 -0.5266 -0.6674  0.0034
19113TIP3    H178754   2.895   0.947   4.575 -0.3038  0.0022 -0.2222
19113TIP3    H278755   2.826   0.947   4.440  0.1493  0.2987 -0.4559
19114TIP3   OH278756   0.875   0.932   3.462 -0.7329  1.0589 -0.7000
19114TIP3    H178757   0.827   0.876   3.523  0.1592 -0.5797 -1.4485
19114TIP3    H278758   0.807   0.963   3.401 -1.4231  1.7608  0.3821
19115TIP3   OH278759   1.274   1.382  14.269  0.1299 -0.1184  0.3275
19115TIP3    H178760   1.180   1.384  14.288  0.0037  1.9282 -0.3077
19115TIP3    H278761   1.308   1.314  14.328 -1.5533 -0.0592  1.4532
19116TIP3   OH278762   1.771   3.003  16.397  0.6454 -0.3476 -0.7371
19116TIP3    H178763   1.749   3.023  16.488 -0.2969 -0.1145 -1.0070
19116TIP3    H278764   1.840   2.937  16.403  0.2667 -0.6764  0.1462
19117TIP3   OH278765   3.983   1.894   5.595  0.1568  0.2559  0.3493
19117TIP3    H178766   4.048   1.847   5.542 -0.8326 -1.3438  0.5021
19117TIP3    H278767   3.901   1.883   5.548 -0.2519  1.1039  0.8569
19118TIP3   OH278768   6.355   4.889   1.131  0.2893  0.4714 -0.5218
19118TIP3    H178769   6.375   4.819   1.194 -1.9358  1.3035  1.2459
19118TIP3    H278770   6.427   4.885   1.068  0.3215 -3.3235 -0.4777
19119TIP3   OH278771   6.597   1.719   4.738 -0.0624  0.3704 -0.1596
19119TIP3    H178772   6.517   1.762   4.706  0.1229  0.6563 -0.2418
19119TIP3    H278773   6.570   1.675   4.818 -0.9990 -1.8906 -1.6072
19120TIP3   OH278774   2.706   5.489  12.334  0.1195  0.0551  0.3876
19120TIP3    H178775   2.629   5.506  12.388  0.2556  0.4225  0.4673
19120TIP3    H278776   2.705   5.394  12.320 -0.0586 -0.0076  0.8208
19121TIP3   OH278777   1.653   2.838   3.609  0.2094 -0.4199  0.4340
19121TIP3    H178778   1.601   2.886   3.545 -0.9688 -1.0619  0.8966
19121TIP3    H278779   1.721   2.900   3.636 -0.6567  0.6266  0.2630
19122TIP3   OH278780   1.320   5.563  12.002  0.3825  0.3270  0.1215
19122TIP3    H178781   1.259   5.574  11.930  0.4056 -2.4600 -0.4013
19122TIP3    H278782   1.271   5.514  12.068  0.5298  2.3580  1.8577
19123TIP3   OH278783   5.417   0.447   5.460  0.3595 -0.1950  0.0466
19123TIP3    H178784   5.493   0.428   5.514 -0.5348  0.5493  1.6576
19123TIP3    H278785   5.404   0.368   5.407  2.1354 -0.3835 -0.1519
19124TIP3   OH278786   1.818   3.618  13.754 -0.3216 -0.4112  0.0321
19124TIP3    H178787   1.820   3.705  13.794  3.3225 -0.9523  1.4391
19124TIP3    H278788   1.816   3.635  13.660  2.4032  1.4281  0.1658
19125TIP3   OH278789   1.588   0.734  13.334  0.1887  1.1285  0.5046
19125TIP3    H178790   1.500   0.721  13.371  0.1476 -0.0677  0.0323
19125TIP3    H278791   1.577   0.805  13.271 -0.9869 -0.4719 -1.2242
19126TIP3   OH278792   2.252   2.421  11.574 -0.0697  0.3593  0.1859
19126TIP3    H178793   2.221   2.500  11.618  0.3090  0.3893  0.4064
19126TIP3    H278794   2.195   2.352  11.607  1.5290 -0.0114  2.4123
19127TIP3   OH278795   4.789   4.701   3.929 -0.2604 -0.7635  0.2114
19127TIP3    H178796   4.859   4.672   3.871 -0.6958 -3.0577  0.7426
19127TIP3    H278797   4.809   4.793   3.946  1.5586 -0.8504 -1.1235
19128TIP3   OH278798   5.370   4.055   5.738  0.1225  0.1243  0.1715
19128TIP3    H178799   5.341   4.054   5.829 -0.5991  0.9777 -0.0375
19128TIP3    H278800   5.401   3.966   5.721  0.7246  0.0893  1.3936
19129TIP3   OH278801   5.359   5.822  11.789  0.5015  0.1842 -0.9707
19129TIP3    H178802   5.315   5.906  11.801  0.1754  0.1280 -1.7274
19129TIP3    H278803   5.357   5.807  11.695 -0.2675 -1.1143 -0.7812
19130TIP3   OH278804   5.385   4.274   0.711 -0.2121  0.2833 -0.1795
19130TIP3    H178805   5.302   4.235   0.737 -0.0657  0.0809 -0.0122
19130TIP3    H278806   5.421   4.213   0.647 -0.5530  0.7579 -0.8418
19131TIP3   OH278807   6.077   6.285   3.386  0.0332  0.0330  0.0199
19131TIP3    H178808   6.024   6.251   3.458 -0.1320 -0.5717 -0.3733
19131TIP3    H278809   6.116   6.206   3.346 -2.0593  0.0381 -2.2546
19132TIP3   OH278810   1.939   2.979   2.440 -0.3422 -0.1661  0.8914
19132TIP3    H178811   1.875   3.021   2.497 -1.8324  0.0270 -0.8518
19132TIP3    H278812   1.915   2.887   2.441  0.5363 -0.4078  1.6670
19133TIP3   OH278813   4.832   5.453   3.284 -0.0189  0.0139  0.2169
19133TIP3    H178814   4.747   5.427   3.248  0.1742  1.6281 -1.5338
19133TIP3    H278815   4.815   5.535   3.330  0.6362  0.5309 -0.4450
19134TIP3   OH278816   3.503   2.970  16.172 -0.0593  0.1890 -0.3857
19134TIP3    H178817   3.578   2.918  16.143  0.6610  2.0978 -2.1997
19134TIP3    H278818   3.429   2.934  16.122  0.4365  0.8447 -1.6463
19135TIP3   OH278819   1.946   1.886  16.247  0.1758 -0.1318  0.5037
19135TIP3    H178820   1.910   1.820  16.307  0.3647 -0.6471  0.0665
19135TIP3    H278821   1.870   1.933  16.214 -0.2064 -1.7028 -0.9853
19136TIP3   OH278822   5.151   1.608  11.339  0.1480  0.4039  0.4545
19136TIP3    H178823   5.176   1.516  11.334  0.5741  0.5343  0.1659
19136TIP3    H278824   5.181   1.637  11.425  0.5371  0.4258  0.3118
19137TIP3   OH278825   6.036   0.719  12.833 -0.8937 -0.1702 -0.5643
19137TIP3    H178826   5.956   0.740  12.785  0.5011 -0.8364 -3.3887
19137TIP3    H278827   6.072   0.804  12.859 -1.1377  0.3192 -1.7573
19138TIP3   OH278828   6.529   5.717   4.641  0.0257 -0.3433 -0.4173
19138TIP3    H178829   6.469   5.773   4.690 -1.3576  0.0029 -2.3617
19138TIP3    H278830   6.614   5.759   4.649 -0.6587  1.0837 -0.4203
19139TIP3   OH278831   1.097   4.301  10.500  0.1085 -0.1012 -0.1561
19139TIP3    H178832   1.126   4.386  10.533 -1.8099  0.7781 -0.6228
19139TIP3    H278833   1.132   4.238  10.564  0.1663  1.1715  1.1221
19140TIP3   OH278834   5.038   3.845   5.607  0.0576 -0.7225  0.1316
19140TIP3    H178835   4.972   3.778   5.626 -0.3938 -0.2567  0.2133
19140TIP3    H278836   5.070   3.872   5.693 -0.8444  0.2402  0.1891
19141TIP3   OH278837   1.243   5.433   6.508 -0.6205 -0.0038 -0.4227
19141TIP3    H178838   1.176   5.499   6.494 -0.0783  0.6446 -0.0321
19141TIP3    H278839   1.199   5.363   6.556 -1.8351 -1.0609 -2.8705
19142TIP3   OH278840   5.358   6.297   0.685 -0.5732  0.5279  0.2818
19142TIP3    H178841   5.307   6.350   0.746  0.0732  0.0401  1.2720
19142TIP3    H278842   5.370   6.213   0.729 -2.6907 -0.9785 -1.8079
19143TIP3   OH278843   1.830   2.907  13.886 -1.0860  0.3716 -0.1137
19143TIP3    H178844   1.826   2.997  13.856 -2.7508  0.8279  1.2839
19143TIP3    H278845   1.828   2.913  13.981 -0.6702 -1.1329  0.0239
19144TIP3   OH278846   3.263   0.053   3.249  0.5510  0.1949 -0.0659
19144TIP3    H178847   3.190   0.033   3.307  0.7921  0.5198  0.3550
19144TIP3    H278848   3.292   0.141   3.275  2.8609 -0.9737  1.6814
19145TIP3   OH278849   3.158   5.490   3.716 -0.0844 -0.0545 -0.0445
19145TIP3    H178850   3.129   5.576   3.748  0.4164  0.9210 -2.0229
19145TIP3    H278851   3.077   5.444   3.693 -0.4027 -0.4653  1.7220
19146TIP3   OH278852   3.501   0.368  16.533  0.2597  0.6923 -0.3297
19146TIP3    H178853   3.407   0.377  16.516  0.1589 -0.5291 -0.5410
19146TIP3    H278854   3.538   0.343  16.448  0.7131  0.7713 -0.1562
19147TIP3   OH278855   2.459   1.950  16.845  0.2733  0.4416  0.4031
19147TIP3    H178856   2.381   1.988  16.886  0.4659  2.5418 -0.9932
19147TIP3    H278857   2.522   1.943  16.917 -0.5536  0.5704  1.1689
19148TIP3   OH278858   2.833   5.381  13.110 -0.0884  0.0517 -0.3203
19148TIP3    H178859   2.762   5.385  13.174  1.2836 -2.3712  1.5133
19148TIP3    H278860   2.806   5.312  13.049 -0.2390  0.5991 -0.8842
19149TIP3   OH278861   0.979   2.026   1.782 -0.1729 -0.6578 -0.0652
19149TIP3    H178862   0.977   1.934   1.809  0.1415 -0.5456  0.3484
19149TIP3    H278863   1.066   2.057   1.809 -0.4777 -0.0921  0.2739
19150TIP3   OH278864   1.949   4.827  15.031  0.3404 -0.2308  0.4242
19150TIP3    H178865   1.862   4.862  15.010  1.3338  2.6421  0.6694
19150TIP3    H278866   1.963   4.851  15.122  1.6278 -0.1620  0.2184
19151TIP3   OH278867   2.085   2.374  17.118 -0.5290 -0.1913  0.9639
19151TIP3    H178868   2.020   2.441  17.096 -0.5280 -0.2391  0.8105
19151TIP3    H278869   2.101   2.329  17.035  1.5952  1.4656  0.3643
19152TIP3   OH278870   2.972   5.684  16.923  0.1192  0.4640 -0.0124
19152TIP3    H178871   2.966   5.589  16.914 -1.1986  0.6632 -1.6679
19152TIP3    H278872   2.956   5.700  17.016 -2.0553 -0.7962 -0.1145
19153TIP3   OH278873   0.859   0.391  16.120  0.0382 -0.2549  0.5022
19153TIP3    H178874   0.866   0.486  16.130 -0.6247 -0.2789  1.2980
19153TIP3    H278875   0.798   0.377  16.048 -2.6244 -0.0435  2.5778
19154TIP3   OH278876   2.247   1.613  17.216  0.0378  0.6342 -0.0474
19154TIP3    H178877   2.322   1.558  17.193 -0.9792 -1.8607  1.9686
19154TIP3    H278878   2.219   1.652  17.134  1.1031 -1.6049 -1.5765
19155TIP3   OH278879   3.985   5.833   0.884 -0.5036 -0.4043  0.9467
19155TIP3    H178880   4.042   5.879   0.946 -1.4209  1.3163  0.5686
19155TIP3    H278881   3.897   5.862   0.907 -0.8538  0.5113 -1.2962
19156TIP3   OH278882   0.719   4.165  13.196  1.1131  0.1804 -0.5021
19156TIP3    H178883   0.805   4.204  13.180  2.0759 -0.5240  2.3354
19156TIP3    H278884   0.706   4.172  13.291 -1.7266 -0.2761 -0.7543
19157TIP3   OH278885   5.944   2.085   5.803  0.1586 -0.1148  0.3076
19157TIP3    H178886   6.029   2.042   5.800  0.0745 -0.2553 -2.3667
19157TIP3    H278887   5.881   2.013   5.803  0.0338 -0.0055 -0.0657
19158TIP3   OH278888   4.688   6.181   0.101  1.1492  0.1570  0.5194
19158TIP3    H178889   4.687   6.207   0.009  1.0244  1.1178  0.7750
19158TIP3    H278890   4.720   6.091   0.101 -2.7530 -1.4343 -0.8176
19159TIP3   OH278891   0.801   1.845  11.989  0.2646  0.2607 -0.4231
19159TIP3    H178892   0.719   1.892  11.995  1.2579  2.2028 -1.3812
19159TIP3    H278893   0.783   1.771  11.930 -0.4775  1.3905 -1.6528
19160TIP3   OH278894   4.155   5.049   5.183 -0.1517 -0.3030  0.3003
19160TIP3    H178895   4.206   5.122   5.218 -1.3021  0.1399  1.1196
19160TIP3    H278896   4.143   4.990   5.258 -1.2764 -0.1355  0.2775
19161TIP3   OH278897   3.354   5.897  16.268 -0.6546 -0.1786 -0.2068
19161TIP3    H178898   3.363   5.930  16.179  2.3727 -1.3565 -0.4447
19161TIP3    H278899   3.318   5.809  16.257  0.2727 -0.5488 -0.3384
19162TIP3   OH278900   6.476   5.413  12.933  0.0249  0.3530  0.8073
19162TIP3    H178901   6.436   5.328  12.955  0.7943 -0.6937 -1.5810
19162TIP3    H278902   6.533   5.432  13.007  1.8850 -2.5811  0.2953
19163TIP3   OH278903   1.697   2.932  12.021  0.1689 -0.2102 -0.0745
19163TIP3    H178904   1.661   2.919  12.109  1.5395 -0.0305  0.5469
19163TIP3    H278905   1.761   3.002  12.032  0.0636  0.0991 -1.3151
19164TIP3   OH278906   2.914   0.049  15.669  0.0072  0.4339 -0.0132
19164TIP3    H178907   2.899   0.099  15.749 -1.0482  0.1499 -0.0163
19164TIP3    H278908   3.009   0.038  15.665  0.1882  1.7216  0.4094
19165TIP3   OH278909   1.773   5.571   3.161  0.4036 -0.7852 -0.2494
19165TIP3    H178910   1.858   5.533   3.140  0.7218 -0.8659  1.0780
19165TIP3    H278911   1.710   5.519   3.112  1.0761 -1.0212 -0.8837
19166TIP3   OH278912   4.574   2.228  13.113 -0.1837  0.3996 -0.4123
19166TIP3    H178913   4.638   2.289  13.150  0.5828  0.4008 -1.6546
19166TIP3    H278914   4.625   2.149  13.094 -0.4774  0.4694 -1.5996
19167TIP3   OH278915   1.199   4.121   3.349 -0.3172  0.2407 -0.1267
19167TIP3    H178916   1.120   4.159   3.386  0.2054  0.2551  1.0049
19167TIP3    H278917   1.242   4.194   3.304 -1.0683  0.1703 -0.9728
19168TIP3   OH278918   1.589   6.067   3.150  0.5592 -0.0893 -0.0139
19168TIP3    H178919   1.668   6.109   3.117  1.1876 -2.1515 -1.2662
19168TIP3    H278920   1.620   5.995   3.204 -0.4617 -0.7541 -0.2899
19169TIP3   OH278921   4.964   2.072   0.566 -0.0876 -0.1282 -0.0782
19169TIP3    H178922   5.054   2.084   0.594 -0.4556  0.0317  1.0748
19169TIP3    H278923   4.931   2.161   0.552  0.2716 -0.2163 -1.6836
19170TIP3   OH278924   1.410   3.095   4.483  0.1151  0.0050 -0.3161
19170TIP3    H178925   1.421   3.184   4.449 -1.1980  0.1388 -0.4380
19170TIP3    H278926   1.495   3.053   4.467 -0.0517  0.4239 -2.6834
19171TIP3   OH278927   3.032   5.570  12.336 -0.2995  0.1792  0.5081
19171TIP3    H178928   3.025   5.487  12.384  0.2941 -0.1584  0.0225
19171TIP3    H278929   3.034   5.637  12.405 -0.7432 -0.2085  0.9049
19172TIP3   OH278930   3.207   4.151   1.640  0.1834  0.7251  0.2247
19172TIP3    H178931   3.220   4.105   1.556 -0.2134 -0.6913  0.9027
19172TIP3    H278932   3.138   4.101   1.684  1.1723  0.7421  1.8861
19173TIP3   OH278933   0.817   6.036   4.330 -0.2435 -0.1539 -0.4972
19173TIP3    H178934   0.771   6.024   4.414 -0.3475 -0.3744 -0.5832
19173TIP3    H278935   0.773   5.975   4.271 -0.3949  0.2438 -0.8015
19174TIP3   OH278936   5.975   5.978  15.907  0.1847  0.1769 -0.1780
19174TIP3    H178937   5.959   6.073  15.904  1.8606  0.4721 -0.7362
19174TIP3    H278938   5.954   5.953  15.997  0.0235  1.1333  0.0666
19175TIP3   OH278939   5.520   5.247  11.920 -0.3040  0.2625 -0.5450
19175TIP3    H178940   5.486   5.273  11.835  0.8638  2.1207 -0.5220
19175TIP3    H278941   5.596   5.192  11.900 -0.7762 -0.3615 -0.6586
19176TIP3   OH278942   6.044   0.442  13.959  0.0835  0.5683 -0.1589
19176TIP3    H178943   6.100   0.465  13.885  1.4903  0.4281  0.8172
19176TIP3    H278944   6.015   0.525  13.995 -0.4762  0.6391 -0.7525
19177TIP3   OH278945   2.000   2.889   0.188  0.5794  0.0510  0.3532
19177TIP3    H178946   2.060   2.836   0.240 -1.0970 -1.5493  0.7514
19177TIP3    H278947   1.951   2.825   0.135 -1.5928  1.1297  0.9245
19178TIP3   OH278948   5.500   2.077   3.833 -0.7504 -0.1683 -0.0554
19178TIP3    H178949   5.508   2.168   3.804  0.0364 -0.6397 -1.4665
19178TIP3    H278950   5.540   2.075   3.920 -0.4685  0.7806 -0.1548
19179TIP3   OH278951   3.340   1.631  13.479 -0.2432 -0.2662  0.5377
19179TIP3    H178952   3.407   1.606  13.542  0.7564 -0.6582 -0.6358
19179TIP3    H278953   3.260   1.589  13.511  0.2564 -0.5316  1.4773
19180TIP3   OH278954   5.832   0.031   3.140  0.1099 -0.3139  0.5952
19180TIP3    H178955   5.778  -0.039   3.105  0.2179 -0.0132 -0.1864
19180TIP3    H278956   5.891  -0.013   3.201 -0.7903 -0.6904  1.2168
19181TIP3   OH278957   1.753   4.823  14.079  0.1125 -0.5255 -0.6776
19181TIP3    H178958   1.743   4.879  14.002  2.9148 -0.0325 -0.7833
19181TIP3    H278959   1.847   4.823  14.096 -0.3218 -1.4891  2.1257
19182TIP3   OH278960   1.830   1.666  12.550  0.1118  0.2737 -1.2669
19182TIP3    H178961   1.863   1.586  12.592 -1.5138  0.3896  0.3514
19182TIP3    H278962   1.739   1.644  12.527 -0.5026  1.7716 -0.3806
19183TIP3   OH278963   4.796   3.095   5.696 -0.3484 -0.3316  0.2927
19183TIP3    H178964   4.806   3.114   5.789 -1.7245  0.2180  0.3605
19183TIP3    H278965   4.799   3.180   5.653 -1.4546 -0.3960  0.0446
19184TIP3   OH278966   3.288   3.020  17.334  0.3100  0.1228 -0.0232
19184TIP3    H178967   3.282   2.981  17.246 -2.3438 -0.9305  0.5364
19184TIP3    H278968   3.274   3.114  17.320  1.4057  0.1879 -0.8392
19185TIP3   OH278969   6.392   1.170   1.891  0.1540 -0.0591  0.2882
19185TIP3    H178970   6.300   1.176   1.866  0.5635 -1.6463 -1.9604
19185TIP3    H278971   6.440   1.192   1.810  1.6788 -1.6239  0.6998
19186TIP3   OH278972   1.885   5.193  13.523  0.2161 -0.5529  0.5545
19186TIP3    H178973   1.910   5.122  13.464  0.2447  0.8820 -1.2511
19186TIP3    H278974   1.934   5.269  13.491 -1.7164  0.8729  0.8111
19187TIP3   OH278975   0.875   2.880  11.563  0.2444 -0.0455  0.5341
19187TIP3    H178976   0.967   2.853  11.570  0.2859  0.3430  1.7800
19187TIP3    H278977   0.876   2.957  11.506  0.7551  0.1808  0.8406
19188TIP3   OH278978   0.846   1.232  13.187  0.2737 -0.5585  0.0264
19188TIP3    H178979   0.938   1.249  13.166  0.4582  0.7969  1.7430
19188TIP3    H278980   0.837   1.137  13.178  1.5803 -0.5978 -1.1164
19189TIP3   OH278981   3.556   6.635  15.514 -0.2414  0.0359 -0.3185
19189TIP3    H178982   3.643   6.672  15.498  0.5181  0.4468  3.8067
19189TIP3    H278983   3.555   6.554  15.463  2.4037  0.1998 -0.7856
19190TIP3   OH278984   3.847   5.896   2.116  0.9336 -0.0353  0.0156
19190TIP3    H178985   3.859   5.984   2.079  0.1431  1.1067  2.2728
19190TIP3    H278986   3.929   5.850   2.097  1.8053  1.5615 -0.2691
19191TIP3   OH278987   4.975   2.230  14.076 -0.4798 -0.1556  0.4135
19191TIP3    H178988   4.911   2.179  14.126 -2.5347  0.4472 -1.4472
19191TIP3    H278989   5.016   2.165  14.018 -0.2941 -0.3248  0.7294
19192TIP3   OH278990   1.733   6.248   5.190 -0.1794  0.3965  0.3474
19192TIP3    H178991   1.803   6.242   5.255 -0.0849  0.6116  0.2627
19192TIP3    H278992   1.775   6.279   5.111 -0.6138  1.9766  0.6941
19193TIP3   OH278993   5.347   1.814   3.983  0.1194  0.5558 -0.5247
19193TIP3    H178994   5.325   1.722   4.000 -0.2226  1.1757  3.5201
19193TIP3    H278995   5.264   1.861   3.993  0.8794  1.5970  1.4341
19194TIP3   OH278996   3.936   1.577  11.960  0.6034  0.3205  0.0125
19194TIP3    H178997   4.002   1.542  11.901  0.3530 -1.7753  0.8946
19194TIP3    H278998   3.855   1.576  11.909  0.9835  1.7677 -0.6762
19195TIP3   OH278999   4.916   3.684  15.697  0.8395 -0.6774 -0.1743
19195TIP3    H179000   4.853   3.685  15.769  1.3957  1.8407  0.3433
19195TIP3    H279001   4.963   3.601  15.709 -0.4814 -1.3054  1.0602
19196TIP3   OH279002   6.270   3.221  10.841 -0.0050 -0.0935  0.1483
19196TIP3    H179003   6.366   3.223  10.836  0.0871 -0.4006  1.4693
19196TIP3    H279004   6.246   3.308  10.874 -0.1775 -0.0536 -0.0785
19197TIP3   OH279005   4.899   5.571  11.396  0.0482 -0.1423  0.8728
19197TIP3    H179006   4.980   5.622  11.395 -0.3874  0.6042  2.0625
19197TIP3    H279007   4.874   5.568  11.488 -1.8826  0.6023  0.4003
19198TIP3   OH279008   1.177   5.851   2.271 -0.4446  0.1993  0.1444
19198TIP3    H179009   1.256   5.889   2.233 -1.9224  0.4546 -3.0431
19198TIP3    H279010   1.141   5.921   2.325  0.1510  1.0599 -0.5331
19199TIP3   OH279011   0.147   2.367   1.609  0.4500 -0.4419 -0.3340
19199TIP3    H179012   0.061   2.351   1.571 -0.0689  0.3450  0.4635
19199TIP3    H279013   0.132   2.436   1.674  0.8828 -2.9260  2.6899
19200TIP3   OH279014   4.734   3.549   0.906  0.5645  0.0184 -0.7914
19200TIP3    H179015   4.762   3.515   0.821  3.4257  1.2764 -0.4710
19200TIP3    H279016   4.655   3.500   0.927 -0.0980 -0.4928 -4.0490
19201TIP3   OH279017   0.314   6.652  13.226  0.2038 -0.1001  0.1355
19201TIP3    H179018   0.271   6.652  13.140  0.9455 -0.2189 -0.2446
19201TIP3    H279019   0.405   6.627  13.207  0.7229  1.2236  0.7895
19202TIP3   OH279020   0.409   1.587   2.688  0.0518 -0.0528 -0.1365
19202TIP3    H179021   0.324   1.544   2.694 -0.5236  1.0848  0.1165
19202TIP3    H279022   0.459   1.553   2.763 -0.2594 -0.5381 -0.1477
19203TIP3   OH279023   1.075   5.085  15.705  0.3888  0.2453  0.0538
19203TIP3    H179024   1.133   5.020  15.668  0.6367 -0.5277  1.6992
19203TIP3    H279025   0.991   5.040  15.716  0.1807  0.6036 -0.0399
19204TIP3   OH279026   6.509   0.485   1.954 -0.1232  0.8805 -0.0265
19204TIP3    H179027   6.430   0.508   1.906 -0.3522 -1.0568 -0.6418
19204TIP3    H279028   6.570   0.453   1.887  0.9277  1.6112  0.5377
19205TIP3   OH279029   1.727   4.710   4.966 -0.4481  0.9839  0.3940
19205TIP3    H179030   1.806   4.762   4.981  0.5285 -0.1433 -0.6696
19205TIP3    H279031   1.683   4.709   5.052  1.1263  0.9210  1.2339
19206TIP3   OH279032   0.610   5.450  16.757  0.5923 -0.3153  0.0148
19206TIP3    H179033   0.580   5.396  16.830 -0.9989 -0.1195 -0.4370
19206TIP3    H279034   0.529   5.489  16.722  1.5824  1.7184 -0.1647
19207TIP3   OH279035   0.588   5.939   4.593  0.6593  0.1874 -0.1360
19207TIP3    H179036   0.591   5.890   4.511  0.0212 -1.3413  0.7078
19207TIP3    H279037   0.514   5.999   4.581  1.1555  0.6448 -1.0131
19208TIP3   OH279038   4.261   5.504   5.773 -0.1624  0.0510 -0.3362
19208TIP3    H179039   4.221   5.427   5.811 -0.3314 -0.4489 -1.4855
19208TIP3    H279040   4.210   5.578   5.808 -0.8326 -0.4430 -0.2554
19209TIP3   OH279041   4.816   1.079  12.835  0.5767  0.0319 -0.2279
19209TIP3    H179042   4.853   1.147  12.778  1.1965 -0.9476 -1.0328
19209TIP3    H279043   4.728   1.110  12.855  1.5828  2.1501  1.2494
19210TIP3   OH279044   4.327   1.364   2.828  0.3760  0.0514  0.7585
19210TIP3    H179045   4.275   1.356   2.748  0.2876  1.2915  0.6799
19210TIP3    H279046   4.323   1.277   2.868 -1.0830 -0.1009  0.3300
19211TIP3   OH279047   3.914   6.470   2.217  0.0079 -0.4660 -0.1531
19211TIP3    H179048   3.955   6.463   2.131 -1.6876  0.3143 -1.0790
19211TIP3    H279049   3.965   6.412   2.273  2.1862  0.2583 -1.2578
19212TIP3   OH279050   2.034   2.387  14.106  0.4468 -0.8731 -0.0805
19212TIP3    H179051   2.076   2.303  14.088  0.1723 -1.1559  0.5734
19212TIP3    H279052   1.968   2.368  14.172  0.3782 -0.1406  0.0749
19213TIP3   OH279053   5.063   2.631  16.740 -0.2662 -0.4712 -0.0561
19213TIP3    H179054   5.091   2.722  16.736  0.7532 -0.7926 -0.6072
19213TIP3    H279055   5.051   2.605  16.649  0.3627 -1.1460  0.0377
19214TIP3   OH279056   2.352   0.316   1.608  0.2085  0.1938 -0.8682
19214TIP3    H179057   2.384   0.285   1.692  1.9321  0.0176 -1.5481
19214TIP3    H279058   2.312   0.239   1.567 -1.4259  0.4774  0.0943
19215TIP3   OH279059   6.672   5.543   3.489  0.4723 -0.2426 -0.4733
19215TIP3    H179060   6.621   5.559   3.409  0.2922  0.1063 -0.2898
19215TIP3    H279061   6.756   5.511   3.457 -0.6003 -3.0721 -0.7392
19216TIP3   OH279062   0.217   6.645   5.836  0.0171 -0.3667 -0.3624
19216TIP3    H179063   0.312   6.658   5.829 -0.0482 -0.0024 -0.5832
19216TIP3    H279064   0.207   6.580   5.906  0.2914  1.6626  1.6711
19217TIP3   OH279065   4.612   3.100   4.336 -0.4067 -0.0113 -0.6026
19217TIP3    H179066   4.546   3.166   4.355  1.0885  1.1479  0.9396
19217TIP3    H279067   4.596   3.031   4.401  0.7259  0.9594  0.7856
19218TIP3   OH279068   3.112   1.497   3.919  0.3871  0.2998  0.3804
19218TIP3    H179069   3.074   1.454   3.842 -0.2594  0.5373  0.5556
19218TIP3    H279070   3.205   1.477   3.914  0.2108 -0.4831  0.0560
19219TIP3   OH279071   1.886   5.609   3.660 -0.4823  0.7375 -0.1312
19219TIP3    H179072   1.820   5.659   3.612 -0.3576 -0.1050 -1.2277
19219TIP3    H279073   1.940   5.569   3.591 -0.8560 -1.2585  0.6963
19220TIP3   OH279074   1.101   5.059  13.308 -0.4413 -0.1640 -0.2127
19220TIP3    H179075   1.159   5.121  13.351  1.2521 -1.0207 -1.1319
19220TIP3    H279076   1.097   4.985  13.368 -0.6312 -0.0704 -0.1122
19221TIP3   OH279077   6.515   6.238   6.187 -0.3727  0.4700 -0.2129
19221TIP3    H179078   6.456   6.166   6.163 -0.3194  0.2535  0.3081
19221TIP3    H279079   6.456   6.310   6.209 -0.4450  0.3106  0.1245
19222TIP3   OH279080   2.194   5.151  13.477 -0.4347 -0.0042  0.3461
19222TIP3    H179081   2.145   5.226  13.512 -1.1634 -0.0843 -0.4713
19222TIP3    H279082   2.219   5.178  13.388 -1.2881 -0.9694 -0.2092
19223TIP3   OH279083   6.372   5.455   1.399 -0.6867  0.1195  0.2203
19223TIP3    H179084   6.449   5.475   1.452 -1.4017  0.6933  1.0603
19223TIP3    H279085   6.348   5.538   1.358 -0.8307 -0.0697 -0.0821
19224TIP3   OH279086   4.351   6.722  13.831 -0.1894 -0.3030  0.2678
19224TIP3    H179087   4.346   6.663  13.755  1.0122 -2.9762  2.0965
19224TIP3    H279088   4.261   6.728  13.862 -0.4146 -0.7486 -0.2787
19225TIP3   OH279089   1.119   0.412  12.638 -0.1667  0.0972 -0.4265
19225TIP3    H179090   1.092   0.471  12.708 -0.7636 -0.8283  0.1543
19225TIP3    H279091   1.038   0.385  12.596  0.0121 -0.9172 -0.1575
19226TIP3   OH279092   5.129   2.987   4.469 -0.3630  0.0810  0.5346
19226TIP3    H179093   5.184   3.056   4.506  0.8109  0.1369 -1.2000
19226TIP3    H279094   5.041   3.024   4.469  0.0192  1.0099  0.9955
19227TIP3   OH279095   0.821   2.390   0.901  0.1735  0.0581 -0.3924
19227TIP3    H179096   0.792   2.324   0.838 -0.2634  1.2407 -1.4784
19227TIP3    H279097   0.740   2.434   0.928  0.5102  0.4902 -0.0793
19228TIP3   OH279098   2.304   0.630  12.084 -0.5619 -0.0776  0.4347
19228TIP3    H179099   2.369   0.561  12.095 -1.3470 -0.7098  1.2875
19228TIP3    H279100   2.349   0.699  12.035  0.6938 -0.5646  0.8768
19229TIP3   OH279101   6.498   3.248   0.972  0.3488 -0.7230 -0.8432
19229TIP3    H179102   6.575   3.260   0.915  1.5838 -0.9696  0.7130
19229TIP3    H279103   6.466   3.161   0.950 -0.3442 -0.1131 -2.4502
19230TIP3   OH279104   5.068   2.328   5.792  0.1409  0.2172 -0.5509
19230TIP3    H179105   5.078   2.347   5.885 -1.6627  1.8684 -0.6384
19230TIP3    H279106   5.151   2.356   5.753  1.2734 -1.3391  0.6225
19231TIP3   OH279107   0.223   1.549  14.342 -0.2411  0.0726  0.2209
19231TIP3    H179108   0.293   1.530  14.405  0.3063  0.6447 -0.1906
19231TIP3    H279109   0.268   1.553  14.258 -1.1671 -2.1082 -0.4580
19232TIP3   OH279110   4.269   0.510   5.326  0.4025 -0.2192  0.3373
19232TIP3    H179111   4.256   0.584   5.267  2.3360  0.8667  1.1637
19232TIP3    H279112   4.249   0.433   5.273 -1.7348  0.8352 -0.5403
19233TIP3   OH279113   2.257   1.728   2.566 -0.1671 -0.0238 -0.7109
19233TIP3    H179114   2.263   1.713   2.660  0.1494 -0.8176 -0.8477
19233TIP3    H279115   2.340   1.770   2.544 -0.0938 -0.1516 -0.6836
19234TIP3   OH279116   0.450   0.718   0.769  0.3730 -0.1826 -0.0552
19234TIP3    H179117   0.521   0.700   0.830 -2.0276 -1.5000  2.6064
19234TIP3    H279118   0.432   0.811   0.780  1.2084  0.0065 -0.2279
19235TIP3   OH279119   5.371   4.399  11.130 -0.1004  0.1599 -0.3732
19235TIP3    H179120   5.357   4.308  11.155 -2.1824  0.6603  0.4296
19235TIP3    H279121   5.336   4.404  11.040 -1.2977  0.4488  0.0897
19236TIP3   OH279122   4.756   4.391   3.014  0.0503  0.3410  0.4902
19236TIP3    H179123   4.683   4.393   3.076  0.2360  0.2641  0.7140
19236TIP3    H279124   4.750   4.475   2.968  1.6464  1.7849  2.6645
19237TIP3   OH279125   2.443   6.123  13.434 -0.1660  0.3261  0.3163
19237TIP3    H179126   2.538   6.120  13.427  0.0411 -1.7032  2.7171
19237TIP3    H279127   2.426   6.179  13.510 -0.8932  0.6345 -0.0596
19238TIP3   OH279128   5.267   2.730   0.473 -0.4025  0.4886 -0.2286
19238TIP3    H179129   5.276   2.798   0.539 -2.0575 -0.8739  1.5144
19238TIP3    H279130   5.200   2.764   0.413 -0.6769  0.7226  0.2024
19239TIP3   OH279131   1.059   4.112  11.896 -0.1011 -0.0708  0.9285
19239TIP3    H179132   1.130   4.138  11.837  0.5351 -2.1090  0.7116
19239TIP3    H279133   1.000   4.187  11.898  0.7076  0.6652 -0.9986
19240TIP3   OH279134   5.850   5.320   5.917 -0.6353 -0.3784  0.2256
19240TIP3    H179135   5.795   5.278   5.850  0.7199  0.9299 -1.8490
19240TIP3    H279136   5.813   5.408   5.927  0.6140  0.3132 -0.7685
19241TIP3   OH279137   5.139   1.495  13.185  0.4396  0.0305  0.0218
19241TIP3    H179138   5.110   1.470  13.097 -1.1629 -2.0088  1.0291
19241TIP3    H279139   5.232   1.473  13.187  0.4945  0.0994 -1.1395
19242TIP3   OH279140   3.206   5.680  13.544 -0.0303 -1.0865 -0.2004
19242TIP3    H179141   3.172   5.624  13.474 -0.1645  1.2247 -2.1156
19242TIP3    H279142   3.298   5.652  13.554  0.5747 -0.2645 -2.7075
19243TIP3   OH279143   0.236   0.186  12.671  0.0273  1.0651  0.0498
19243TIP3    H179144   0.318   0.152  12.705 -1.2613  0.1668  2.4907
19243TIP3    H279145   0.250   0.280  12.660  1.6565  0.7696 -0.5802
19244TIP3   OH279146   1.385   2.712   3.307  0.2120 -0.6251  0.4481
19244TIP3    H179147   1.352   2.702   3.397 -0.2981  0.3712  0.3875
19244TIP3    H279148   1.316   2.673   3.253 -0.0730 -0.1078  0.4269
19245TIP3   OH279149   6.002   6.150   6.024 -0.3658  0.2324 -0.1643
19245TIP3    H179150   5.910   6.164   6.002 -0.1067  3.0271  0.1568
19245TIP3    H279151   6.006   6.164   6.119  0.4935  1.1563 -0.3134
19246TIP3   OH279152   6.444   4.139   1.004 -0.3059 -0.1453  0.1811
19246TIP3    H179153   6.408   4.227   0.993 -0.4673 -0.3277 -0.8694
19246TIP3    H279154   6.398   4.087   0.938  0.7674 -0.7186 -0.1294
19247TIP3   OH279155   5.612   6.721  15.079 -0.1829 -0.4436  0.0693
19247TIP3    H179156   5.575   6.736  15.166 -0.1337 -1.1393  0.2180
19247TIP3    H279157   5.705   6.744  15.088 -0.3427  0.2552 -0.0160
19248TIP3   OH279158   5.578   6.202  14.665 -0.7406 -0.0300  0.2852
19248TIP3    H179159   5.636   6.139  14.708 -0.6947  1.1110  2.0251
19248TIP3    H279160   5.490   6.176  14.693 -0.8289 -0.0773 -0.0369
19249TIP3   OH279161   6.720   1.765  12.121 -0.0776  0.4586 -0.0701
19249TIP3    H179162   6.811   1.736  12.118 -0.5379 -1.2143  1.0174
19249TIP3    H279163   6.679   1.724  12.044 -0.9944 -3.0328  2.0572
19250TIP3   OH279164   1.192   3.717  15.688 -0.0442  0.4030  0.1125
19250TIP3    H179165   1.181   3.805  15.724  0.4037  0.8017 -0.6923
19250TIP3    H279166   1.116   3.705  15.631 -0.5354 -0.0633  0.8514
19251TIP3   OH279167   3.436   4.211   5.590  0.3141 -0.1674 -0.0932
19251TIP3    H179168   3.516   4.243   5.548 -0.1897 -0.2106 -1.1343
19251TIP3    H279169   3.466   4.157   5.662  1.2242  2.0285  1.2832
19252TIP3   OH279170   3.494   0.153   1.088  0.5527  0.3271 -0.1951
19252TIP3    H179171   3.512   0.161   1.182  0.2179  0.5519 -0.1504
19252TIP3    H279172   3.399   0.154   1.082  0.5495  3.0094 -0.7660
19253TIP3   OH279173   4.294   1.011  15.068  0.3547  0.3310 -0.0836
19253TIP3    H179174   4.318   0.940  15.127 -1.6101 -0.5777 -0.3081
19253TIP3    H279175   4.201   0.999  15.052  0.2540  2.1822 -1.2072
19254TIP3   OH279176   3.651   2.235   2.698 -0.1192  0.6931 -0.7955
19254TIP3    H179177   3.704   2.313   2.717  0.5518 -0.0579  0.6046
19254TIP3    H279178   3.716   2.167   2.678 -0.5699 -0.0412  0.1593
19255TIP3   OH279179   1.021   2.273  12.772  0.1532  0.1687 -0.4289
19255TIP3    H179180   1.048   2.321  12.850 -1.8453  1.4150 -0.4470
19255TIP3    H279181   1.077   2.307  12.702  1.8122 -0.8060  0.3403
19256TIP3   OH279182   0.929   1.046   0.377 -0.3534 -0.5091  0.4612
19256TIP3    H179183   0.871   1.116   0.406 -0.8501 -0.6963 -0.0647
19256TIP3    H279184   1.015   1.072   0.409 -0.7679 -0.3913  1.5407
19257TIP3   OH279185   4.106   0.001  11.321 -0.3565 -0.1132 -0.7091
19257TIP3    H179186   4.115  -0.026  11.412  0.1700  0.5437 -0.5516
19257TIP3    H279187   4.034  -0.051  11.287 -0.8461 -0.0505  0.2081
19258TIP3   OH279188   6.274   4.021   0.406 -0.1464  0.0312  0.2848
19258TIP3    H179189   6.199   4.080   0.399 -0.3154 -0.1430  0.6155
19258TIP3    H279190   6.324   4.036   0.326  0.3269  1.3310  0.7905
19259TIP3   OH279191   2.382   0.654  15.166 -0.3229 -0.2239  0.3260
19259TIP3    H179192   2.469   0.625  15.190 -0.0269 -0.1741 -0.6233
19259TIP3    H279193   2.359   0.602  15.089  0.4315  2.2767 -1.7629
19260TIP3   OH279194   3.061   5.102  13.546 -0.0667 -0.2842 -0.2584
19260TIP3    H179195   2.994   5.162  13.513 -2.2529 -3.1353 -1.3651
19260TIP3    H279196   3.115   5.083  13.470 -2.0116 -2.8933 -1.1315
19261TIP3   OH279197   2.158   0.842   3.757  0.2409  0.0289 -0.3560
19261TIP3    H179198   2.211   0.921   3.769 -0.0791  0.1273  0.5368
19261TIP3    H279199   2.081   0.872   3.709 -0.3153  0.4757  0.7584
19262TIP3   OH279200   4.819   5.410  12.064 -0.6909  0.2525  0.4080
19262TIP3    H179201   4.773   5.386  12.145 -3.9971  0.9236 -1.0957
19262TIP3    H279202   4.794   5.500  12.048  0.0522  0.1899 -1.2774
19263TIP3   OH279203   2.397   2.233   3.360 -0.5258  0.1280  0.6113
19263TIP3    H179204   2.357   2.206   3.278 -2.1378 -1.1392  1.7418
19263TIP3    H279205   2.379   2.327   3.366 -0.0829  0.3064 -0.6129
19264TIP3   OH279206   2.129   1.366   2.676  0.1271  0.1772  0.0418
19264TIP3    H179207   2.177   1.306   2.733 -0.0352 -1.6601 -1.6440
19264TIP3    H279208   2.055   1.315   2.644 -1.1079  1.9180  0.0012
19265TIP3   OH279209   1.114   2.561  13.193 -0.3414 -0.1605 -0.1818
19265TIP3    H179210   1.130   2.475  13.153 -0.1345 -0.3528  0.3143
19265TIP3    H279211   1.027   2.553  13.232  0.1372 -0.5211  0.8431
19266TIP3   OH279212   2.936   0.856  17.006 -0.3172 -0.5188  0.5147
19266TIP3    H179213   2.916   0.786  16.944  0.5419  0.9770 -1.5485
19266TIP3    H279214   2.904   0.823  17.090 -1.9392 -2.4453 -0.7656
19267TIP3   OH279215   6.508   1.569   6.209  0.6286  0.8467  0.1276
19267TIP3    H179216   6.517   1.660   6.236  2.6576  0.7395 -0.0590
19267TIP3    H279217   6.568   1.520   6.266  0.6969 -0.1651 -0.7789
19268TIP3   OH279218   0.098   2.103  11.290 -0.3728 -0.4444  0.2504
19268TIP3    H179219   0.071   2.187  11.327  0.1157  1.6251 -3.5611
19268TIP3    H279220   0.044   2.093  11.212  1.7398 -2.1215 -1.1018
19269TIP3   OH279221   4.189   4.285  15.080 -0.0551  0.0906 -0.2765
19269TIP3    H179222   4.277   4.259  15.055  0.4621  1.3400  0.1887
19269TIP3    H279223   4.166   4.356  15.020  0.1197  1.2183  0.9261
19270TIP3   OH279224   3.107   5.772   6.025 -0.1375 -0.1814  0.2371
19270TIP3    H179225   3.020   5.732   6.025  1.2091 -3.4661 -0.7673
19270TIP3    H279226   3.132   5.775   6.117 -1.4176  1.2011  0.5768
19271TIP3   OH279227   1.043   5.689   0.530 -0.0413 -0.2638 -0.3010
19271TIP3    H179228   1.121   5.668   0.478 -0.0126  1.8133 -1.1845
19271TIP3    H279229   1.035   5.784   0.523 -1.3654 -0.1882  1.6650
19272TIP3   OH279230   1.100   4.860  11.009  0.1122 -0.3546 -0.5090
19272TIP3    H179231   1.051   4.797  11.062  0.0209 -0.3359 -0.5698
19272TIP3    H279232   1.185   4.820  10.994  1.0338  0.6212  1.6487
19273TIP3   OH279233   5.764   2.855  14.171  0.6647  0.5105  0.6849
19273TIP3    H179234   5.787   2.845  14.078  0.8760  2.6312  0.4601
19273TIP3    H279235   5.736   2.768  14.198  1.5936 -0.3964 -1.0926
19274TIP3   OH279236   4.086   0.023  16.793 -0.4181  0.7432  0.0308
19274TIP3    H179237   4.144  -0.018  16.728  0.9371  0.9555  1.0707
19274TIP3    H279238   3.998   0.016  16.754  0.4806  2.1744 -2.5116
19275TIP3   OH279239   5.801   4.664   3.810 -0.4828  0.3813 -0.4259
19275TIP3    H179240   5.773   4.587   3.857 -1.2410  0.0023 -1.4626
19275TIP3    H279241   5.895   4.670   3.827 -1.0492  1.6625  3.0814
19276TIP3   OH279242   4.546   4.798   4.216 -0.5110  0.1592  0.1915
19276TIP3    H179243   4.587   4.885   4.217 -1.0926  0.4349  1.3656
19276TIP3    H279244   4.599   4.746   4.275 -0.8266  0.0303  0.3619
19277TIP3   OH279245   3.659   5.865  11.127  0.3030 -0.1779 -0.0356
19277TIP3    H179246   3.688   5.922  11.055 -0.3530  0.9643  0.5727
19277TIP3    H279247   3.738   5.818  11.153  1.0597  1.0114 -0.0794
19278TIP3   OH279248   4.485   4.121  12.370 -0.4290  0.2749  0.0722
19278TIP3    H179249   4.555   4.065  12.335 -0.1279 -0.8648  2.3197
19278TIP3    H279250   4.512   4.210  12.345  1.4940 -0.1921  0.2673
19279TIP3   OH279251   0.950   3.518   3.462 -0.2044  0.7816  0.1328
19279TIP3    H179252   0.900   3.498   3.541 -0.9679  1.2553 -0.2164
19279TIP3    H279253   1.039   3.534   3.493 -0.4976  0.9741  0.8970
19280TIP3   OH279254   0.962   1.765   4.996  0.2587 -0.0896  0.2258
19280TIP3    H179255   1.011   1.818   4.932 -2.4199 -2.4836 -4.3052
19280TIP3    H279256   1.016   1.687   5.009 -0.0888 -0.5458 -0.9181
19281TIP3   OH279257   5.035   0.301  13.252  0.5781  0.4489 -0.3234
19281TIP3    H179258   5.032   0.208  13.233 -1.2730  0.0608  1.4643
19281TIP3    H279259   5.128   0.323  13.254  1.0219 -1.1776 -1.4447
19282TIP3   OH279260   2.308   1.255  11.054  0.0606  0.9759  0.3798
19282TIP3    H179261   2.386   1.295  11.015  0.5556 -1.2114 -1.0519
19282TIP3    H279262   2.236   1.282  10.996  0.0868  1.2687  0.4814
19283TIP3   OH279263   0.887   4.349   4.617  0.7609  0.5239  0.1580
19283TIP3    H179264   0.894   4.346   4.522  2.2362  0.4119  0.2505
19283TIP3    H279265   0.837   4.429   4.635 -0.4250  0.0085 -0.7192
19284TIP3   OH279266   3.453   2.672   0.604 -0.2718  0.1037 -0.1428
19284TIP3    H179267   3.470   2.669   0.698 -2.5908  1.3736  0.3862
19284TIP3    H279268   3.488   2.757   0.577 -0.4320  0.1401 -0.2367
19285TIP3   OH279269   2.210   6.229  16.806  0.0647  0.2845  0.5270
19285TIP3    H179270   2.302   6.214  16.786  0.1066  0.3053  0.7044
19285TIP3    H279271   2.201   6.324  16.810  0.0820  0.2797  0.7190
19286TIP3   OH279272   3.845   3.787  15.750  0.5394 -0.3633 -0.2274
19286TIP3    H179273   3.755   3.810  15.728  0.8030  0.1422 -0.7853
19286TIP3    H279274   3.884   3.759  15.668  0.8761 -0.6541  0.0277
19287TIP3   OH279275   3.396   5.230   4.642  0.0176  0.5994  0.4315
19287TIP3    H179276   3.372   5.137   4.638  0.4259  0.5259 -0.5069
19287TIP3    H279277   3.488   5.232   4.616  0.0605  1.2558  0.6204
19288TIP3   OH279278   2.674   2.103   3.285  0.0539  0.2160 -0.0034
19288TIP3    H179279   2.767   2.127   3.278  0.2537 -0.6810 -0.6728
19288TIP3    H279280   2.644   2.146   3.365  1.6966 -1.4694  1.6484
19289TIP3   OH279281   1.522   0.670  14.795  0.5352 -0.1050  0.2170
19289TIP3    H179282   1.524   0.722  14.716 -1.6358 -0.9529 -0.4749
19289TIP3    H279283   1.580   0.715  14.856  1.0155  1.4255 -1.3223
19290TIP3   OH279284   1.731   5.867   0.346  0.1484  0.0619 -0.1388
19290TIP3    H179285   1.745   5.815   0.267 -0.5531  0.7001 -0.6979
19290TIP3    H279286   1.755   5.956   0.320  1.9752 -0.0418  0.9945
19291TIP3   OH279287   6.122   6.317  12.792 -0.2471 -0.0291  0.0611
19291TIP3    H179288   6.140   6.267  12.713 -1.1757  1.8797 -1.4408
19291TIP3    H279289   6.036   6.357  12.776 -0.9442 -0.3888  2.4735
19292TIP3   OH279290   4.860   4.325  11.753 -0.2111  0.9130  0.5537
19292TIP3    H179291   4.950   4.350  11.775 -0.0223  1.1631 -0.4221
19292TIP3    H279292   4.865   4.232  11.732  0.3659  1.4255 -1.9615
19293TIP3   OH279293   5.781   6.512   1.964  0.3565  0.3258  0.0694
19293TIP3    H179294   5.705   6.537   1.911 -0.1348 -1.7799 -0.3258
19293TIP3    H279295   5.823   6.595   1.986 -1.7886  1.5296 -0.0849
19294TIP3   OH279296   0.038   5.634  15.008  0.3971  0.1914  0.5533
19294TIP3    H179297  -0.016   5.694  14.955  0.4630  1.2503  1.6535
19294TIP3    H279298   0.010   5.547  14.980  0.8530  0.6934 -1.6620
19295TIP3   OH279299   2.696   5.844   1.672  0.2036 -0.5171 -0.0571
19295TIP3    H179300   2.698   5.752   1.699 -0.4404 -0.2069  1.1504
19295TIP3    H279301   2.630   5.848   1.603 -1.2785 -0.6639  1.2775
19296TIP3   OH279302   5.126   2.656  14.145 -0.3756 -0.6844  0.2437
19296TIP3    H179303   5.127   2.750  14.130  3.0054 -0.6338  0.1571
19296TIP3    H279304   5.066   2.644  14.219  0.0881  1.6938  1.0935
19297TIP3   OH279305   6.672   2.257  11.834 -0.1763  0.0870  0.3406
19297TIP3    H179306   6.622   2.185  11.796  1.8092 -0.8232 -0.6811
19297TIP3    H279307   6.742   2.214  11.883 -0.6496  1.3102  2.1726
19298TIP3   OH279308   4.906   1.870   2.956  0.5514  0.0198  0.1560
19298TIP3    H179309   4.933   1.959   2.935 -2.6436  1.6562  2.1998
19298TIP3    H279310   4.926   1.860   3.049 -1.3107 -0.4369  0.5461
19299TIP3   OH279311   4.965   6.328  15.096 -0.0460 -0.4495  0.6965
19299TIP3    H179312   4.922   6.248  15.067 -0.3504 -0.6924  1.7709
19299TIP3    H279313   4.894   6.390  15.111 -0.0015 -0.6889  1.9808
19300TIP3   OH279314   4.631   3.557   0.382  0.8039  0.0446  0.2427
19300TIP3    H179315   4.564   3.500   0.344  1.4005 -0.3765 -0.1875
19300TIP3    H279316   4.683   3.586   0.307  0.9993  0.5119  0.5569
19301TIP3   OH279317   3.795   3.745   6.008  0.2221  0.2157  0.5091
19301TIP3    H179318   3.707   3.718   6.035 -0.2276 -0.2012 -1.2591
19301TIP3    H279319   3.854   3.689   6.060 -0.5336  0.5523  1.7641
19302TIP3   OH279320   0.649   3.246   3.393 -0.0905  0.6462  0.2510
19302TIP3    H179321   0.574   3.201   3.354  0.9607 -2.2329  1.2474
19302TIP3    H279322   0.694   3.287   3.319 -0.1895 -1.4898 -1.0937
19303TIP3   OH279323   2.944   5.968   3.871  0.1116  0.0588 -0.0698
19303TIP3    H179324   3.030   6.012   3.868 -0.7462  1.9088  0.7307
19303TIP3    H279325   2.912   5.986   3.960 -0.6169 -1.6402  0.0467
19304TIP3   OH279326   4.872   5.998   3.628  0.2634 -0.4889 -0.1461
19304TIP3    H179327   4.960   5.993   3.591  0.7084 -2.0035  1.0454
19304TIP3    H279328   4.847   6.090   3.617  0.3084 -0.7694 -4.2145
19305TIP3   OH279329   5.224   0.275   2.958 -0.1387  0.7952 -0.1507
19305TIP3    H179330   5.168   0.201   2.935  0.8462  0.1107 -0.3990
19305TIP3    H279331   5.249   0.259   3.049  0.7191  0.3841 -0.4470
19306TIP3   OH279332   0.711   0.834   1.861 -0.1340  0.0161 -0.1473
19306TIP3    H179333   0.672   0.879   1.936 -1.6100  0.6544 -1.2318
19306TIP3    H279334   0.803   0.823   1.884  0.4325  3.8518  0.1594
19307TIP3   OH279335   1.174   5.438  16.516 -0.3792 -0.2561  0.1969
19307TIP3    H179336   1.122   5.503  16.470 -0.3498  0.2679  0.9015
19307TIP3    H279337   1.251   5.486  16.548 -1.0755 -0.2746  2.0228
19308TIP3   OH279338   5.697   1.152  12.932  0.3969  0.2839 -0.3079
19308TIP3    H179339   5.674   1.215  12.864  1.1144 -1.9890 -2.8312
19308TIP3    H279340   5.616   1.107  12.952  0.6188 -0.7097 -1.5423
19309TIP3   OH279341   5.796   0.519   0.075 -0.3885  0.0581  0.8444
19309TIP3    H179342   5.809   0.444   0.132 -1.9751  0.1290  1.3574
19309TIP3    H279343   5.705   0.545   0.090 -0.1224  1.5715  0.0710
19310TIP3   OH279344   3.706   5.237  16.219  0.0678 -0.6798  0.2932
19310TIP3    H179345   3.619   5.203  16.240 -0.4119  0.3142 -0.0134
19310TIP3    H279346   3.766   5.166  16.241 -0.6343 -0.6672  2.4737
19311TIP3   OH279347   0.130   2.060   2.301 -0.3789  0.3358  0.4521
19311TIP3    H179348   0.092   2.115   2.370 -0.7671 -1.2903  1.5779
19311TIP3    H279349   0.222   2.054   2.324 -0.4442  0.0610  0.6399
19312TIP3   OH279350   3.258   0.160  11.416  0.0656  0.6717 -0.2195
19312TIP3    H179351   3.244   0.067  11.398 -0.7912  0.7230  0.1350
19312TIP3    H279352   3.186   0.204  11.371 -0.2988  1.0526  0.7137
19313TIP3   OH279353   0.531   4.586  14.205 -0.3366  0.2309  0.8345
19313TIP3    H179354   0.455   4.643  14.215 -1.7008 -1.5966  1.3629
19313TIP3    H279355   0.528   4.559  14.113 -0.9785 -0.6640  1.1025
19314TIP3   OH279356   1.438   1.749   1.337 -0.7166  0.4999 -0.4011
19314TIP3    H179357   1.429   1.845   1.339 -1.2137  0.4533  0.4832
19314TIP3    H279358   1.526   1.732   1.370 -0.7436  0.6412 -0.2550
19315TIP3   OH279359   0.175   2.517  16.905  0.0609 -0.5326  0.2508
19315TIP3    H179360   0.104   2.455  16.923 -0.2558 -0.9063 -1.9125
19315TIP3    H279361   0.130   2.600  16.890 -0.0676 -0.9037 -1.7592
19316TIP3   OH279362   4.094   6.382   4.892  0.4466  0.2617 -0.0082
19316TIP3    H179363   4.013   6.346   4.858 -0.1386 -0.6512  2.1964
19316TIP3    H279364   4.162   6.324   4.859  0.4230  1.6616 -2.7854
19317TIP3   OH279365   5.685   0.507   1.967  0.2805 -0.5960 -0.1107
19317TIP3    H179366   5.691   0.575   1.901  0.1208 -0.6456 -0.1781
19317TIP3    H279367   5.774   0.474   1.977  0.6099  0.5165  0.8780
19318TIP3   OH279368   0.531   2.554   5.425  0.7353  0.3181 -0.3446
19318TIP3    H179369   0.528   2.583   5.334 -1.8059 -1.3453 -0.8836
19318TIP3    H279370   0.603   2.604   5.463  1.0801  1.9953 -2.9222
19319TIP3   OH279371   1.916   6.635  16.435 -0.0394 -0.9248  0.0643
19319TIP3    H179372   1.861   6.707  16.464 -1.5340 -1.7474 -0.5660
19319TIP3    H279373   1.965   6.608  16.512 -1.2204 -0.7406  0.8972
19320TIP3   OH279374   2.541   3.535  14.281 -0.3558 -0.1118  0.1752
19320TIP3    H179375   2.563   3.472  14.348 -2.5495  1.0801  2.1754
19320TIP3    H279376   2.448   3.520  14.263 -1.1451  2.8210  1.1973
19321TIP3   OH279377   0.397   2.720  14.443  0.0805  0.7634  0.1776
19321TIP3    H179378   0.427   2.677  14.523  0.1780 -2.1404 -1.3008
19321TIP3    H279379   0.469   2.779  14.420  1.3672 -0.5214  0.7141
19322TIP3   OH279380   2.281   0.866  11.682  0.1375 -0.1550  0.1438
19322TIP3    H179381   2.208   0.805  11.691  0.7918 -0.9549  0.1558
19322TIP3    H279382   2.288   0.880  11.587  1.3449 -1.8355 -0.0666
19323TIP3   OH279383   3.234   3.787   1.906 -0.5882  0.1262  0.3841
19323TIP3    H179384   3.169   3.783   1.976  0.3364 -0.8020  1.1968
19323TIP3    H279385   3.304   3.728   1.933  1.5817  2.5500  0.5074
19324TIP3   OH279386   5.638   6.444   3.805 -0.1826 -0.4174  0.0052
19324TIP3    H179387   5.666   6.438   3.896  1.0204 -2.1778 -0.4323
19324TIP3    H279388   5.719   6.458   3.756 -0.4311 -2.2791 -1.0135
19325TIP3   OH279389   4.958   5.176   3.193  0.0063  0.4203 -0.4264
19325TIP3    H179390   4.945   5.269   3.215 -0.5034 -0.2497  2.4135
19325TIP3    H279391   4.908   5.128   3.258  0.5496 -1.9079 -1.6140
19326TIP3   OH279392   0.127   3.437  13.731  0.0949  0.8286  0.0857
19326TIP3    H179393   0.174   3.484  13.663  1.0677  3.0803  2.1794
19326TIP3    H279394   0.193   3.417  13.798 -1.0464 -0.1830  0.9744
19327TIP3   OH279395   4.347   6.232   4.826 -0.2694 -0.2942  0.0319
19327TIP3    H179396   4.435   6.271   4.832 -0.2317 -0.4146  0.2902
19327TIP3    H279397   4.357   6.159   4.765 -0.1395 -0.4400  0.2251
19328TIP3   OH279398   5.358   4.079  12.019  0.3258 -0.1423  0.0062
19328TIP3    H179399   5.360   4.010  12.085  0.3401  0.1471  0.3104
19328TIP3    H279400   5.451   4.098  12.003  0.3261  0.9785  1.1672
19329TIP3   OH279401   4.383   0.595   3.730 -0.1680 -0.1642  0.0049
19329TIP3    H179402   4.302   0.598   3.678 -0.0062  0.0993 -0.2346
19329TIP3    H279403   4.362   0.644   3.809  0.2214  1.2431 -0.7292
19330TIP3   OH279404   3.321   2.748   5.471  0.6764 -0.4855 -0.2163
19330TIP3    H179405   3.377   2.825   5.455  0.8474 -0.5793 -0.0674
19330TIP3    H279406   3.246   2.782   5.518  0.2001 -0.2120 -1.1412
19331TIP3   OH279407   1.668   0.059  11.031  0.2196 -0.2309 -0.1733
19331TIP3    H179408   1.659   0.121  11.103 -0.4115  0.0884 -0.5156
19331TIP3    H279409   1.761   0.062  11.009  0.1027  1.0885 -0.6002
19332TIP3   OH279410   5.984   1.760  12.452  0.2936  0.3388 -0.0067
19332TIP3    H179411   6.016   1.716  12.373  0.1717  1.5415 -0.7621
19332TIP3    H279412   6.055   1.819  12.477  1.8329 -2.4648  2.8969
19333TIP3   OH279413   2.714   0.138  14.052 -0.5445  0.5740 -0.1917
19333TIP3    H179414   2.629   0.127  14.009 -0.5720 -0.5350  0.1118
19333TIP3    H279415   2.752   0.050  14.053  0.4806  1.0088 -0.0583
19334TIP3   OH279416   6.384   6.257  13.784 -0.5757  0.3225  0.0422
19334TIP3    H179417   6.398   6.179  13.837 -1.3545 -2.2022 -3.1259
19334TIP3    H279418   6.447   6.250  13.713 -1.5708  1.8579 -1.0655
19335TIP3   OH279419   4.667   4.383  12.734  0.7157  0.6925 -0.0711
19335TIP3    H179420   4.722   4.331  12.675 -0.8900  0.5036 -1.4792
19335TIP3    H279421   4.639   4.458  12.682 -0.5381  0.6578  0.5105
19336TIP3   OH279422   4.882   3.722   0.517 -0.4303  0.1427  0.0864
19336TIP3    H179423   4.840   3.807   0.533 -0.8039 -0.0007 -0.1221
19336TIP3    H279424   4.910   3.693   0.604 -0.5150  0.3698  0.1905
19337TIP3   OH279425   4.860   3.336   1.075  0.3575 -0.1250 -0.2234
19337TIP3    H179426   4.832   3.425   1.051  1.4090  0.3941  0.4141
19337TIP3    H279427   4.899   3.301   0.995  0.4242  0.1853 -0.3290
19338TIP3   OH279428   1.145   5.796   4.980 -0.5307 -0.2230  0.2707
19338TIP3    H179429   1.159   5.817   4.887 -1.0047  0.7284  0.3973
19338TIP3    H279430   1.051   5.784   4.988 -0.3007 -2.2655  0.2655
19339TIP3   OH279431   3.150   1.697   1.163 -0.5833  0.1701 -0.1325
19339TIP3    H179432   3.080   1.717   1.225 -0.9840  0.1501 -0.5715
19339TIP3    H279433   3.177   1.608   1.185 -1.5365 -0.2928 -0.7247
19340TIP3   OH279434   1.511   5.465   0.511  0.2152 -0.1040 -0.3535
19340TIP3    H179435   1.499   5.453   0.605 -0.2194 -0.5999 -0.4667
19340TIP3    H279436   1.517   5.560   0.499  3.5726 -0.0833  0.5722
19341TIP3   OH279437   4.466   5.159  14.859  0.1389 -0.2620  0.0978
19341TIP3    H179438   4.402   5.118  14.918 -0.4172 -0.0422 -0.3364
19341TIP3    H279439   4.447   5.253  14.866 -0.0519 -0.2524 -0.5719
19342TIP3   OH279440   0.498   5.296   3.019  0.9347 -0.0213 -0.3410
19342TIP3    H179441   0.528   5.372   3.070  1.2155 -0.9102  0.8556
19342TIP3    H279442   0.407   5.285   3.045  0.8639 -0.0363 -0.5949
19343TIP3   OH279443   2.427   6.203  12.433 -0.3000 -0.2191  0.6448
19343TIP3    H179444   2.364   6.262  12.391 -1.5462 -0.4605  2.1284
19343TIP3    H279445   2.510   6.222  12.388 -1.2151  0.7383 -0.7338
19344TIP3   OH279446   2.862   0.616  12.283  0.0484 -0.2721  0.3906
19344TIP3    H179447   2.793   0.586  12.342 -0.1799 -0.0975  0.2172
19344TIP3    H279448   2.884   0.704  12.316  1.0421 -0.7950  1.1853
19345TIP3   OH279449   5.725   0.662  13.057  0.0687 -0.0534  0.1067
19345TIP3    H179450   5.788   0.733  13.044  0.9465 -0.3184  2.4103
19345TIP3    H279451   5.732   0.608  12.978  1.1515  1.1036 -0.6160
19346TIP3   OH279452   5.075   2.677   2.825  0.3150  0.5213  0.6912
19346TIP3    H179453   5.045   2.658   2.736 -0.3639 -1.7036  1.3275
19346TIP3    H279454   5.004   2.729   2.863  0.0555  0.4697  0.2915
19347TIP3   OH279455   6.619   3.523   6.023  0.2151  0.7027 -0.1623
19347TIP3    H179456   6.662   3.440   6.040  1.3321  1.2272 -0.3442
19347TIP3    H279457   6.584   3.551   6.108 -1.5999 -0.7051 -0.3925
19348TIP3   OH279458   1.036   4.586   6.334  0.3250  0.1330 -0.0119
19348TIP3    H179459   0.987   4.533   6.396  0.5135  0.0302  0.0517
19348TIP3    H279460   1.106   4.625   6.386 -0.4193  1.2850  0.1612
19349TIP3   OH279461   3.633   0.990  16.145 -0.1605 -0.4285 -0.1349
19349TIP3    H179462   3.701   1.030  16.091  0.9756 -1.7172  0.2832
19349TIP3    H279463   3.610   0.909  16.100 -0.5862 -0.5691  0.3226
19350TIP3   OH279464   4.618   3.473   1.462 -0.4319 -0.7150 -0.0375
19350TIP3    H179465   4.689   3.479   1.399 -1.8037  0.6389 -1.5592
19350TIP3    H279466   4.609   3.562   1.497 -0.9209 -1.0331  0.6837
19351TIP3   OH279467   6.356   2.430   2.296 -0.3142  0.4579  0.0402
19351TIP3    H179468   6.442   2.389   2.300  0.3307  1.6256 -1.0582
19351TIP3    H279469   6.374   2.522   2.276 -1.8780  0.3633 -2.0896
19352TIP3   OH279470   2.826   2.630   0.824 -0.0858 -0.3021  0.4578
19352TIP3    H179471   2.766   2.667   0.888 -0.3407  0.0989 -0.0109
19352TIP3    H279472   2.771   2.607   0.750 -0.0104 -2.0230  0.8817
19353TIP3   OH279473   4.579   2.709   4.726 -0.4463 -0.1155  0.4347
19353TIP3    H179474   4.629   2.670   4.797  0.0068 -1.3949 -0.5438
19353TIP3    H279475   4.616   2.670   4.646 -0.8654  1.3427 -0.5229
19354TIP3   OH279476   5.552   3.645  12.755 -0.6477 -0.4356  0.2949
19354TIP3    H179477   5.496   3.594  12.698 -0.8482 -0.4263  0.4850
19354TIP3    H279478   5.636   3.650  12.708 -1.7051  2.2637 -1.5275
19355TIP3   OH279479   1.680   1.785   1.810  0.1621  0.1608 -0.1091
19355TIP3    H179480   1.772   1.760   1.804 -0.4388 -1.8756 -2.2715
19355TIP3    H279481   1.641   1.721   1.869 -0.0459  0.5589  0.1954
19356TIP3   OH279482   2.639   0.135  13.798  0.2820  0.3824  1.0374
19356TIP3    H179483   2.721   0.107  13.759 -1.1381 -3.7713  0.4687
19356TIP3    H279484   2.594   0.184  13.729  0.5791 -1.0675 -0.2424
19357TIP3   OH279485   2.670   3.788   1.666 -0.2742 -0.6456  0.3631
19357TIP3    H179486   2.613   3.758   1.737 -3.0561  4.6956  0.8816
19357TIP3    H279487   2.743   3.829   1.710 -1.7162  2.1626  0.3459
19358TIP3   OH279488   0.340   5.470  15.422  0.4227  0.1298 -0.0017
19358TIP3    H179489   0.276   5.531  15.458  0.8508 -0.6620  2.2907
19358TIP3    H279490   0.340   5.487  15.328 -1.2955  1.8743  0.2578
19359TIP3   OH279491   0.307   1.452  13.339  0.2606  0.1598 -0.0413
19359TIP3    H179492   0.229   1.431  13.391  0.7829  0.2945  0.8278
19359TIP3    H279493   0.353   1.368  13.329  0.2320  0.1583 -0.1561
19360TIP3   OH279494   6.371   3.622   1.689 -0.1499 -0.5940 -0.0709
19360TIP3    H179495   6.285   3.584   1.674 -1.0765  0.1686  2.6510
19360TIP3    H279496   6.381   3.622   1.785  1.9576  1.3174 -0.2037
19361TIP3   OH279497   0.210   1.731   5.938  0.1031 -0.1461  0.2015
19361TIP3    H179498   0.153   1.692   6.004 -2.3349  1.4287 -0.8329
19361TIP3    H279499   0.209   1.824   5.958  0.6271  0.1612 -1.1067
19362TIP3   OH279500   5.494   0.681  13.538  0.1190  0.1283 -0.2136
19362TIP3    H179501   5.427   0.665  13.605 -0.0063 -0.0643 -0.3845
19362TIP3    H279502   5.453   0.742  13.477  0.1916  0.2119 -0.1793
19363TIP3   OH279503   4.033   3.299   2.130  0.3554  0.0855 -0.2011
19363TIP3    H179504   4.002   3.371   2.075 -0.2998  0.3095  0.4477
19363TIP3    H279505   3.971   3.295   2.202 -0.2747 -1.8794 -0.7970
19364TIP3   OH279506   2.623   1.419  15.009  0.2744  0.1821  0.5303
19364TIP3    H179507   2.654   1.329  14.997 -0.6479 -0.0770 -0.0666
19364TIP3    H279508   2.700   1.473  14.997  0.3365 -0.3658 -2.1887
19365TIP3   OH279509   6.193   3.987   3.516  0.1401 -0.3794 -0.7326
19365TIP3    H179510   6.159   4.016   3.431  0.2353  1.2817 -0.2366
19365TIP3    H279511   6.178   3.893   3.516 -0.4374 -0.3299 -2.3361
19366TIP3   OH279512   4.884   0.257  16.127  0.6105 -0.5275  0.1079
19366TIP3    H179513   4.946   0.243  16.055  0.5193 -0.7494  0.0734
19366TIP3    H279514   4.835   0.175  16.133 -0.6636  0.1216 -0.8234
19367TIP3   OH279515   3.300   1.980  16.156  0.4008  0.1521 -0.0996
19367TIP3    H179516   3.318   1.940  16.241  1.7362  0.1246 -0.3735
19367TIP3    H279517   3.301   1.907  16.095  0.6240  0.3237 -0.3002
19368TIP3   OH279518   4.319   0.491   2.188 -0.6766  0.4047 -0.4345
19368TIP3    H179519   4.394   0.487   2.128 -0.9900  0.2883 -0.8240
19368TIP3    H279520   4.347   0.442   2.265 -0.1365  0.8562 -0.3388
19369TIP3   OH279521   2.207   3.933  14.307 -0.2092 -0.4120  0.0816
19369TIP3    H179522   2.242   4.008  14.259 -0.0457  0.0478  0.8996
19369TIP3    H279523   2.117   3.924  14.275 -0.2128  0.0957 -0.0627
19370TIP3   OH279524   5.328   2.910  15.710  0.0097  0.2024  0.3250
19370TIP3    H179525   5.296   2.927  15.621  2.1639  0.0928 -0.5354
19370TIP3    H279526   5.298   2.821  15.729  1.4061 -0.6719 -1.2634
19371TIP3   OH279527   0.270   4.820  15.419 -0.3843 -0.2937 -0.6658
19371TIP3    H179528   0.325   4.833  15.342 -0.1721 -0.3080 -0.5164
19371TIP3    H279529   0.328   4.783  15.484 -0.0541  1.5782  0.1732
19372TIP3   OH279530   4.187   5.154  11.381 -0.3188  0.2180  0.3081
19372TIP3    H179531   4.217   5.245  11.376 -0.2669  0.1518 -4.1958
19372TIP3    H279532   4.092   5.159  11.377 -0.3532  0.0590  0.8151
19373TIP3   OH279533   1.348   2.429  15.322  0.5885 -0.3084  0.4620
19373TIP3    H179534   1.399   2.508  15.340  2.8248 -1.3841 -0.6769
19373TIP3    H279535   1.339   2.428  15.226 -1.7773 -0.1118  0.6168
19374TIP3   OH279536   6.634   1.086  10.807 -0.1670  0.2530  0.0252
19374TIP3    H179537   6.697   1.038  10.754  0.4977  1.1064  0.0165
19374TIP3    H279538   6.566   1.113  10.745  0.0150  0.2641 -0.1709
19375TIP3   OH279539   6.342   5.408  12.355 -0.0463  0.0572  0.4363
19375TIP3    H179540   6.295   5.485  12.387  1.7071  0.3321  2.5766
19375TIP3    H279541   6.273   5.346  12.332 -1.4612  1.3998  0.8879
19376TIP3   OH279542   3.808   5.699  13.100  0.5833 -0.0419  0.4720
19376TIP3    H179543   3.822   5.794  13.097 -1.4486  0.4075  2.6233
19376TIP3    H279544   3.871   5.667  13.164  0.9575 -0.1029  0.0806
19377TIP3   OH279545   6.715   2.665   5.780  0.2538 -0.3441 -0.4487
19377TIP3    H179546   6.695   2.678   5.873 -1.4760 -2.1973 -0.4916
19377TIP3    H279547   6.806   2.636   5.779  0.2836 -0.3323  0.6797
19378TIP3   OH279548   4.779   5.235  16.049 -0.0245  0.2876  0.3431
19378TIP3    H179549   4.843   5.253  15.980  2.1867 -3.0033  1.2673
19378TIP3    H279550   4.794   5.303  16.114  4.1262 -1.2845  1.3922
19379TIP3   OH279551   4.831   5.879  14.720  0.3879 -0.1315  0.5661
19379TIP3    H179552   4.847   5.810  14.656 -0.6104 -0.1953  0.3705
19379TIP3    H279553   4.809   5.832  14.800 -1.2976 -0.0557  0.1694
19380TIP3   OH279554   5.385   3.317   1.810  0.2051  0.2592 -0.1715
19380TIP3    H179555   5.384   3.224   1.833 -1.9784 -0.1413 -1.6417
19380TIP3    H279556   5.478   3.341   1.813  0.7521 -1.7634  0.9440
19381TIP3   OH279557   1.679   4.541  15.880 -0.1659  0.3723 -0.0930
19381TIP3    H179558   1.674   4.466  15.939 -0.2990  0.3338 -0.1524
19381TIP3    H279559   1.642   4.510  15.797 -1.1094  0.7694  0.1603
19382TIP3   OH279560   0.516   6.583   0.039 -0.6573  0.7423  0.0635
19382TIP3    H179561   0.584   6.627   0.089 -0.8779  2.4296 -1.0175
19382TIP3    H279562   0.486   6.650  -0.024 -1.3688 -0.8232 -1.3302
19383TIP3   OH279563   1.293   2.763   0.182 -0.1786 -0.3268  0.3790
19383TIP3    H179564   1.247   2.702   0.123  0.4727 -1.5030  1.0374
19383TIP3    H279565   1.289   2.847   0.138  0.6461 -1.2449 -1.5674
19384TIP3   OH279566   6.131   5.502  14.690 -0.1417  0.1969 -0.3592
19384TIP3    H179567   6.129   5.565  14.762 -0.8122 -1.1128  0.8086
19384TIP3    H279568   6.161   5.553  14.614 -0.1052  1.7663  0.6725
19385TIP3   OH279569   2.825   3.930   3.497 -0.0198  0.8616  0.4023
19385TIP3    H179570   2.856   4.013   3.459 -0.8581  0.9765 -0.0738
19385TIP3    H279571   2.889   3.908   3.564  1.7576  0.4503 -1.3441
19386TIP3   OH279572   0.906   4.331   6.750 -0.4943 -0.4732 -0.4459
19386TIP3    H179573   0.824   4.282   6.745 -1.4320  1.0159 -0.3727
19386TIP3    H279574   0.880   4.419   6.776  1.0249  0.3297 -1.4797
19387TIP3   OH279575   1.834   5.819  16.665  0.0656 -0.1117  0.2656
19387TIP3    H179576   1.811   5.769  16.586  1.9172 -0.3297 -0.1635
19387TIP3    H279577   1.926   5.800  16.680  0.3741  1.8689  1.0947
19388TIP3   OH279578   1.037   0.337  11.693  0.6939 -0.7583 -0.9387
19388TIP3    H179579   1.074   0.401  11.632 -0.7046  1.4746  0.4403
19388TIP3    H279580   0.962   0.299  11.646  0.9661 -0.7046 -1.4172
19389TIP3   OH279581   2.659   1.179  15.317 -0.6582  0.0226  0.3317
19389TIP3    H179582   2.619   1.148  15.236 -2.1993  0.6545  0.8104
19389TIP3    H279583   2.640   1.111  15.381 -0.1152 -0.1162  0.3515
19390TIP3   OH279584   5.953   3.818  15.937 -0.2176 -0.2692 -0.0121
19390TIP3    H179585   5.867   3.848  15.967 -0.4690 -2.8171  2.1811
19390TIP3    H279586   6.014   3.884  15.968 -1.0658 -0.1919  1.5893
19391TIP3   OH279587   4.083   4.839   3.457  0.3326  0.0458 -0.1406
19391TIP3    H179588   3.994   4.868   3.435  0.6100  0.7233 -0.3807
19391TIP3    H279589   4.137   4.869   3.384  0.6277 -1.1317 -0.4281
19392TIP3   OH279590   2.300   6.398  16.018  0.2630 -0.2311  0.2571
19392TIP3    H179591   2.304   6.482  15.973  1.4032 -0.4405 -0.0709
19392TIP3    H279592   2.300   6.421  16.111 -1.6923  0.1868  0.2086
19393TIP3   OH279593   3.244   5.636   4.805 -0.2542 -0.0422  0.0664
19393TIP3    H179594   3.215   5.547   4.783 -1.5115 -0.0990  1.8018
19393TIP3    H279595   3.295   5.626   4.885  0.1138  0.7480 -0.0539
19394TIP3   OH279596   3.601   4.074  11.730  0.3243  0.2641  0.1818
19394TIP3    H179597   3.581   4.004  11.668 -1.3576 -0.1516  1.1325
19394TIP3    H279598   3.588   4.155  11.681  2.3365 -0.0293 -0.9459
19395TIP3   OH279599   1.504   6.124  16.692  0.1446  0.1423 -0.2832
19395TIP3    H179600   1.531   6.202  16.741 -3.0025  0.7128  0.7710
19395TIP3    H279601   1.558   6.126  16.612  0.0359  3.5451 -0.4220
19396TIP3   OH279602   6.178   2.338   4.844  0.1993 -0.6058 -0.2113
19396TIP3    H179603   6.144   2.420   4.879  0.7407 -0.2532 -0.4954
19396TIP3    H279604   6.114   2.312   4.778  0.7353  0.3619 -1.1670
19397TIP3   OH279605   6.166   1.539   6.011 -0.3746  0.0567  0.1235
19397TIP3    H179606   6.176   1.460   6.064 -0.0020  0.8122  1.2078
19397TIP3    H279607   6.085   1.525   5.961 -0.0333 -1.2230 -0.1075
19398TIP3   OH279608   2.592   1.291  14.559  0.0932  0.5806 -0.0297
19398TIP3    H179609   2.582   1.196  14.548 -1.5122  0.9408 -2.5590
19398TIP3    H279610   2.659   1.300  14.626 -0.2863 -2.3398  0.9069
19399TIP3   OH279611   0.936   6.092  11.550 -0.8356 -0.3471  0.0386
19399TIP3    H179612   0.942   6.181  11.585  0.2678 -0.4742  0.2365
19399TIP3    H279613   1.007   6.044  11.594 -0.9825 -1.1480 -0.5588
19400TIP3   OH279614   4.733   2.951  16.751 -0.5221 -0.1057 -0.0753
19400TIP3    H179615   4.780   2.990  16.825  1.1202 -0.7660 -0.7267
19400TIP3    H279616   4.801   2.933  16.686 -1.6697 -1.1994 -1.0249
19401TIP3   OH279617   3.005   0.902   1.455  0.1052 -0.0254 -0.7419
19401TIP3    H179618   3.011   0.906   1.360 -0.2045 -0.5958 -0.7911
19401TIP3    H279619   3.041   0.816   1.477 -0.1483 -0.0395 -0.3731
19402TIP3   OH279620   5.320   0.075  10.848 -0.1825  0.3559  0.5310
19402TIP3    H179621   5.249   0.017  10.875 -0.3603  1.7080  3.1989
19402TIP3    H279622   5.394   0.051  10.904 -0.0607  2.2449  1.2458
19403TIP3   OH279623   6.479   5.594  16.317 -0.1103 -0.1496 -0.0303
19403TIP3    H179624   6.486   5.530  16.246  2.8743  0.0625 -0.0468
19403TIP3    H279625   6.431   5.548  16.386  0.9264 -1.9968 -0.4915
19404TIP3   OH279626   1.910   6.440  15.376  0.4032  0.3871  0.3799
19404TIP3    H179627   1.881   6.374  15.313 -0.5325 -0.8294  2.0160
19404TIP3    H279628   1.856   6.516  15.358  0.7589  0.3778 -0.8351
19405TIP3   OH279629   2.656   2.824  14.604 -0.3291 -0.2942  0.2552
19405TIP3    H179630   2.715   2.755  14.636 -0.6465 -1.0729 -0.8120
19405TIP3    H279631   2.577   2.778  14.576 -0.2914  0.4182 -1.1054
19406TIP3   OH279632   4.077   3.492  13.628  0.1950  0.8080 -0.2806
19406TIP3    H179633   4.095   3.519  13.718 -1.8455  0.0350  0.4191
19406TIP3    H279634   4.161   3.463  13.594  1.0276  1.2014  1.3613
19407TIP3   OH279635   4.322   2.097  13.016 -0.3069 -0.0945 -0.0546
19407TIP3    H179636   4.350   2.006  13.018 -0.6572 -0.2011  0.0305
19407TIP3    H279637   4.398   2.147  13.046 -0.4346 -0.4327  0.8329
19408TIP3   OH279638   5.317   0.158   1.995 -0.5857 -0.3425 -0.4194
19408TIP3    H179639   5.326   0.225   2.062  1.2043 -1.6386  0.7075
19408TIP3    H279640   5.380   0.182   1.928 -1.6747  0.4035 -1.2105
19409TIP3   OH279641   1.766   1.639  12.136 -0.1744  0.5931 -0.5072
19409TIP3    H179642   1.853   1.600  12.127 -0.3135 -1.0170  3.1609
19409TIP3    H279643   1.709   1.565  12.157 -2.0286  1.8715 -0.8136
19410TIP3   OH279644   6.090   5.052  15.608 -0.1690 -0.2225  0.0911
19410TIP3    H179645   6.065   5.087  15.523  2.3789  1.8098  0.0440
19410TIP3    H279646   6.181   5.026  15.597  0.6557  1.3236  2.4645
19411TIP3   OH279647   5.497   1.608   1.046 -0.0220  0.0245 -0.4146
19411TIP3    H179648   5.488   1.703   1.058 -2.2388  0.0761 -1.8761
19411TIP3    H279649   5.531   1.598   0.957  2.0659 -0.5790  0.3853
19412TIP3   OH279650   3.135   2.615   2.861 -0.1061 -0.2940  0.1687
19412TIP3    H179651   3.067   2.564   2.905  0.3239 -0.8019  0.2516
19412TIP3    H279652   3.087   2.674   2.803 -0.7767  1.2673  2.1799
19413TIP3   OH279653   1.615   2.257  12.337 -0.0982 -0.2422  0.1270
19413TIP3    H179654   1.707   2.249  12.311  0.1097 -0.8316  0.9978
19413TIP3    H279655   1.569   2.195  12.281  0.1903 -0.7094  0.3980
19414TIP3   OH279656   0.369   5.641   4.526  0.5658  0.3428  0.1186
19414TIP3    H179657   0.391   5.684   4.609  2.6694 -1.7538  0.7852
19414TIP3    H279658   0.361   5.548   4.550 -0.5620 -0.0772 -1.7484
19415TIP3   OH279659   6.673   3.594  16.757 -0.2049 -0.0850  0.3585
19415TIP3    H179660   6.602   3.636  16.806 -0.5472  1.0473 -1.0538
19415TIP3    H279661   6.687   3.511  16.802 -2.2720 -0.2401  0.8019
19416TIP3   OH279662   1.938   4.910   5.045 -0.4704  0.2777  0.2613
19416TIP3    H179663   2.014   4.878   5.094 -1.6865 -1.1878  1.2977
19416TIP3    H279664   1.924   4.998   5.077  0.0456  0.1141  0.9619
19417TIP3   OH279665   5.523   1.963  16.601 -0.3309 -0.7166 -0.0008
19417TIP3    H179666   5.517   2.007  16.516 -0.8191 -2.0901 -0.7104
19417TIP3    H279667   5.478   1.880  16.588  0.2213 -1.2644  1.4038
19418TIP3   OH279668   2.000   0.974   3.537  0.5429 -0.1597 -0.2009
19418TIP3    H179669   1.999   1.070   3.539 -0.3471 -0.1661  0.3660
19418TIP3    H279670   2.042   0.952   3.454  0.6494  0.7246 -0.3923
19419TIP3   OH279671   2.012   6.640  13.525  0.0641  0.0776 -0.8574
19419TIP3    H179672   1.994   6.697  13.450 -1.3558  0.4664 -0.2623
19419TIP3    H279673   1.925   6.621  13.561  0.7246  0.0008  0.7553
19420TIP3   OH279674   2.015   6.297  12.279 -0.0161 -0.5024 -0.2232
19420TIP3    H179675   1.936   6.322  12.328  1.1170  0.8024  1.0190
19420TIP3    H279676   2.001   6.333  12.192  0.1284  1.7122  0.6085
19421TIP3   OH279677   0.048   6.418  14.248 -0.3932  0.4115  0.2301
19421TIP3    H179678   0.112   6.348  14.256 -2.3889 -1.3688  1.8642
19421TIP3    H279679   0.029   6.423  14.155 -0.0462 -1.1101  0.0566
19422TIP3   OH279680   2.445   4.417   0.735  0.8538  1.0077 -0.6175
19422TIP3    H179681   2.512   4.474   0.697  0.2461  0.0011 -3.4670
19422TIP3    H279682   2.482   4.328   0.727  0.1596  0.6509  0.0312
19423TIP3   OH279683   6.708   1.763   5.750 -0.0689 -0.1568 -0.5330
19423TIP3    H179684   6.750   1.809   5.676 -0.9659  0.0959 -0.9007
19423TIP3    H279685   6.719   1.670   5.729 -0.5198 -0.0889 -1.1196
19424TIP3   OH279686   6.738   2.343   6.316  0.2078 -0.1997 -0.4657
19424TIP3    H179687   6.687   2.387   6.248 -2.0440 -1.4939  0.2604
19424TIP3    H279688   6.759   2.257   6.279 -0.5138 -0.6848  0.2073
19425TIP3   OH279689   0.921   5.874  10.850 -0.2352  0.4024  0.3252
19425TIP3    H179690   0.970   5.873  10.768 -0.5633 -1.5396  0.1209
19425TIP3    H279691   0.951   5.953  10.895  1.5522  0.3460 -0.6999
19426TIP3   OH279692   2.494   0.388   0.232 -0.4875  0.0582 -0.1991
19426TIP3    H179693   2.506   0.441   0.153 -1.0288  0.1588 -0.2158
19426TIP3    H279694   2.408   0.349   0.222 -1.2458  1.3319  1.0752
19427TIP3   OH279695   1.375   1.568   5.192  0.4692  0.4244  0.1501
19427TIP3    H179696   1.375   1.582   5.286  0.7727  1.2790  0.0247
19427TIP3    H279697   1.284   1.547   5.171  0.4516 -0.0355  0.6661
19428TIP3   OH279698   2.464   3.757  15.967 -0.3520 -0.0022  0.4490
19428TIP3    H179699   2.549   3.763  16.010 -0.3218  0.7614  0.2976
19428TIP3    H279700   2.417   3.690  16.017 -0.2837  0.7887  1.6205
19429TIP3   OH279701   6.237   4.246  16.161  0.0735  0.1806  0.2778
19429TIP3    H179702   6.296   4.321  16.167 -1.2847  1.2928  0.0819
19429TIP3    H279703   6.196   4.241  16.248  0.9753 -1.0640  0.6669
19430TIP3   OH279704   5.571   2.619  13.696 -0.7085 -0.6211 -0.4532
19430TIP3    H179705   5.537   2.606  13.607 -1.1674 -0.6251 -0.2796
19430TIP3    H279706   5.494   2.612  13.752 -0.6078  0.5438 -0.1527
19431TIP3   OH279707   1.543   3.311   1.214 -0.3289  0.7054 -0.4063
19431TIP3    H179708   1.594   3.246   1.262  0.3677  0.3952 -1.5273
19431TIP3    H279709   1.524   3.379   1.279 -2.3210 -1.2397  1.1839
19432TIP3   OH279710   4.498   4.473   5.986  0.4437 -0.4877 -0.3990
19432TIP3    H179711   4.543   4.395   5.952 -0.3164 -1.6174  1.0661
19432TIP3    H279712   4.450   4.508   5.911  2.3781 -0.2272 -1.5788
19433TIP3   OH279713   5.449   4.215  10.701 -0.6829 -0.1143 -0.1005
19433TIP3    H179714   5.396   4.288  10.669 -0.0766  0.1807 -0.4600
19433TIP3    H279715   5.508   4.256  10.765  1.3344  0.2245 -2.0450
19434TIP3   OH279716   0.018   0.820   1.505 -0.2389  0.0683  0.9034
19434TIP3    H179717   0.019   0.872   1.425 -1.2634  0.4015  1.0908
19434TIP3    H279718  -0.032   0.872   1.568 -1.5975 -1.2511  0.9916
19435TIP3   OH279719   4.532   2.355  10.591  0.4832 -0.9797  0.0248
19435TIP3    H179720   4.613   2.323  10.629  0.5244 -0.5028  0.3535
19435TIP3    H279721   4.553   2.372  10.499  0.9488 -0.2180  0.2602
19436TIP3   OH279722   3.898   4.532   0.278 -0.1464  0.1903  0.2045
19436TIP3    H179723   3.951   4.452   0.282 -2.0710 -1.1528  0.0753
19436TIP3    H279724   3.890   4.551   0.184  0.5796  0.7702  0.2439
19437TIP3   OH279725   1.267   4.415   5.377  0.8830 -0.1564 -0.4624
19437TIP3    H179726   1.358   4.418   5.408  0.6024 -0.6511  0.4625
19437TIP3    H279727   1.272   4.370   5.292  1.3740 -1.3839  0.1837
19438TIP3   OH279728   0.388   4.256  16.252  0.1168 -0.0633 -0.1130
19438TIP3    H179729   0.443   4.221  16.182 -0.6469 -0.5509 -0.4769
19438TIP3    H279730   0.384   4.350  16.235  2.7723  0.4030  1.2778
19439TIP3   OH279731   6.282   5.684   2.140 -0.1269 -0.1900 -0.0541
19439TIP3    H179732   6.354   5.744   2.123 -1.5256  1.8686  0.9077
19439TIP3    H279733   6.222   5.697   2.066 -0.4763 -0.3374  0.2005
19440TIP3   OH279734   1.865   5.569  15.544  0.2660  0.6979  0.1062
19440TIP3    H179735   1.803   5.598  15.478  0.2211 -0.1651 -0.2383
19440TIP3    H279736   1.904   5.650  15.577 -0.0451  1.1627 -0.6423
19441TIP3   OH279737   0.028   1.513  14.687 -0.0190  0.1264 -0.2193
19441TIP3    H179738   0.057   1.487  14.600 -0.1867  1.0097 -0.5440
19441TIP3    H279739   0.109   1.534  14.734  0.2091 -1.9305  0.3838
19442TIP3   OH279740   5.942   2.263   2.772 -0.0459  0.3622 -0.3600
19442TIP3    H179741   6.032   2.237   2.756 -0.1200  0.3653 -0.7719
19442TIP3    H279742   5.917   2.215   2.851  1.0016  1.9435  1.0074
19443TIP3   OH279743   1.834   5.535   4.282  0.3714 -0.0933  0.1820
19443TIP3    H179744   1.865   5.573   4.364  0.3459 -1.0757  0.6655
19443TIP3    H279745   1.769   5.470   4.309 -0.0792 -0.0036 -0.6586
19444TIP3   OH279746   4.695   2.785  17.098 -0.6443 -0.0944  0.1944
19444TIP3    H179747   4.778   2.783  17.052 -0.3530  2.1012  0.5396
19444TIP3    H279748   4.716   2.816  17.186 -1.8776  1.2671  0.0558
19445TIP3   OH279749   5.045   5.216   3.619 -0.6409 -0.2886 -0.1932
19445TIP3    H179750   5.025   5.222   3.713 -1.3306 -1.4599 -0.2525
19445TIP3    H279751   4.990   5.145   3.587  2.0652 -2.2921 -0.7820
19446TIP3   OH279752   3.954   6.374  16.397 -0.2469  0.0100  0.1611
19446TIP3    H179753   4.047   6.359  16.378  0.2486  3.4560 -0.7530
19446TIP3    H279754   3.944   6.349  16.489  1.7750  0.2643  0.4920
19447TIP3   OH279755   3.393   3.595   3.983  0.0958  0.1082  0.2280
19447TIP3    H179756   3.381   3.585   3.889  1.4516 -0.2479  0.0777
19447TIP3    H279757   3.398   3.689   3.998  3.3004  0.1657 -0.5650
19448TIP3   OH279758   1.551   5.577  12.761 -0.3573 -0.8978 -0.4870
19448TIP3    H179759   1.604   5.506  12.798 -0.4893 -0.6180  0.2519
19448TIP3    H279760   1.603   5.610  12.688  0.4066 -0.7485  0.1160
19449TIP3   OH279761   0.264   4.169  10.817  0.1193  0.3653  0.5689
19449TIP3    H179762   0.279   4.254  10.774 -2.1821  0.8845  0.6820
19449TIP3    H279763   0.180   4.140  10.783  0.6444 -1.6868  0.9097
19450TIP3   OH279764   4.279   3.654   1.345  0.4106 -0.2944  0.1526
19450TIP3    H179765   4.288   3.594   1.419  0.2133  1.7083  1.8898
19450TIP3    H279766   4.368   3.664   1.311  0.3000 -2.2974 -0.8172
19451TIP3   OH279767   5.175   2.414   0.080 -0.6025 -0.1172 -0.1743
19451TIP3    H179768   5.147   2.327   0.052  0.5202 -0.1648 -1.2682
19451TIP3    H279769   5.216   2.452   0.002  1.3072  0.3428  0.9735
19452TIP3   OH279770   1.534   1.085   4.298 -0.1322  0.3296  0.4696
19452TIP3    H179771   1.542   1.171   4.340  3.2794  0.6047 -0.4106
19452TIP3    H279772   1.611   1.037   4.327 -1.0823 -1.8581 -0.3840
19453TIP3   OH279773   0.303   1.139  12.374 -0.1079  0.3272 -0.7572
19453TIP3    H179774   0.340   1.154  12.462  0.0142  0.3026 -0.8034
19453TIP3    H279775   0.370   1.088  12.329 -0.0782  0.5209 -0.9327
19454TIP3   OH279776   5.133   2.314   5.414  0.0099 -0.2760 -0.3554
19454TIP3    H179777   5.137   2.269   5.330 -0.2057  0.0259 -0.5284
19454TIP3    H279778   5.215   2.364   5.418  0.2711 -0.7101 -0.1424
19455TIP3   OH279779   5.438   3.959   5.460  0.2440  0.3970  0.7863
19455TIP3    H179780   5.466   4.035   5.512 -0.4345  3.1861 -2.5256
19455TIP3    H279781   5.511   3.942   5.402 -1.2305  1.6631 -1.6022
19456TIP3   OH279782   2.611   1.034   5.697  0.4993 -0.1662 -0.6496
19456TIP3    H179783   2.531   1.008   5.651  0.0710  0.3050 -0.1793
19456TIP3    H279784   2.636   1.117   5.656  1.3171 -0.8009 -1.4773
19457TIP3   OH279785   5.875   3.435  16.288 -0.5325  0.2960 -0.3243
19457TIP3    H179786   5.906   3.515  16.330 -0.5807 -1.0835  2.5933
19457TIP3    H279787   5.822   3.465  16.214  0.2744  2.8904  0.0624
19458TIP3   OH279788   5.568   4.321  14.779  0.8945 -0.4866 -0.2129
19458TIP3    H179789   5.620   4.367  14.844  1.1581  1.3448 -1.6157
19458TIP3    H279790   5.603   4.232  14.779  3.3181  0.3757 -0.3055
19459TIP3   OH279791   2.521   4.349   5.396  0.0332 -0.2333 -0.1860
19459TIP3    H179792   2.467   4.276   5.428 -0.0395 -0.2411 -0.3241
19459TIP3    H279793   2.597   4.350   5.454 -0.6309  0.4624  0.7131
19460TIP3   OH279794   5.162   1.701  13.679 -0.0500  0.4372 -0.0537
19460TIP3    H179795   5.242   1.744  13.648 -0.4330  1.6616  0.5964
19460TIP3    H279796   5.127   1.657  13.601  0.8995  0.4269 -0.4937
19461TIP3   OH279797   1.018   6.335   2.121 -0.2428  0.4030 -0.5365
19461TIP3    H179798   1.106   6.313   2.150 -0.9436 -2.0207  0.0183
19461TIP3    H279799   1.027   6.353   2.027  0.6670 -1.3141 -0.8314
19462TIP3   OH279800   3.659   6.368   2.254 -0.3792  0.2048  0.4811
19462TIP3    H179801   3.664   6.429   2.328  1.6142  0.6035  0.0809
19462TIP3    H279802   3.749   6.360   2.223 -1.0467 -0.4744 -1.4886
19463TIP3   OH279803   4.892   2.777  16.324  0.2306  0.7027 -0.7275
19463TIP3    H179804   4.829   2.730  16.379  1.0710 -0.2926 -0.5796
19463TIP3    H279805   4.921   2.851  16.377 -0.8014  1.1792 -0.8023
19464TIP3   OH279806   0.968   6.236  15.417 -0.0928  0.5261 -0.0283
19464TIP3    H179807   0.915   6.165  15.453  0.8208  0.2994  0.8996
19464TIP3    H279808   1.053   6.197  15.400 -0.0398  1.0302 -0.9580
19465TIP3   OH279809   0.369   5.725  12.858  0.0748  0.3549 -0.2012
19465TIP3    H179810   0.274   5.721  12.845  0.1470  0.4714 -0.7921
19465TIP3    H279811   0.386   5.817  12.880 -0.0324  0.1822  0.6618
19466TIP3   OH279812   4.522   5.257  15.982 -0.0046  0.0390 -0.2093
19466TIP3    H179813   4.615   5.252  16.003  0.1253 -2.1169 -1.0915
19466TIP3    H279814   4.502   5.351  15.984  2.2356  0.5660 -0.2417
19467TIP3   OH279815   0.330   6.064   0.047  0.1114 -0.0070  0.7117
19467TIP3    H179816   0.337   5.988   0.104 -0.3572  0.8457  1.9423
19467TIP3    H279817   0.409   6.115   0.064  0.7547 -0.5044 -0.6007
19468TIP3   OH279818   5.916   6.279  15.859 -0.6361  0.0351 -0.1514
19468TIP3    H179819   5.856   6.297  15.786 -0.5023  0.2957 -0.1969
19468TIP3    H279820   5.863   6.293  15.938 -1.6640 -3.0374 -0.1465
19469TIP3   OH279821   0.608   5.605   2.326 -0.0527  0.7400  0.5470
19469TIP3    H179822   0.558   5.612   2.244 -0.8693 -0.4170  0.9221
19469TIP3    H279823   0.683   5.550   2.304 -0.8286 -0.4496  0.8033
19470TIP3   OH279824   5.346   1.555   0.555 -0.0978  0.2395 -0.6535
19470TIP3    H179825   5.425   1.503   0.540 -0.5999 -0.1057 -2.3230
19470TIP3    H279826   5.379   1.638   0.590  1.2249  0.7907 -3.0023
19471TIP3   OH279827   2.750   2.372   0.728  0.2345 -0.2900  0.2288
19471TIP3    H179828   2.690   2.298   0.741 -1.7284  0.9667 -0.9520
19471TIP3    H279829   2.745   2.390   0.634  1.4957  0.6802  0.3207
19472TIP3   OH279830   2.810   1.623   4.354 -0.4501  0.1971 -0.0491
19472TIP3    H179831   2.897   1.626   4.393 -0.6891 -1.5546  0.7400
19472TIP3    H279832   2.820   1.667   4.269  1.4269 -0.7332 -0.3698
19473TIP3   OH279833   0.532   4.196   1.659  0.2775  0.5341  0.2260
19473TIP3    H179834   0.588   4.259   1.612  2.0506 -1.8692 -1.1685
19473TIP3    H279835   0.451   4.195   1.609  0.4397  1.2809 -0.0737
19474TIP3   OH279836   5.284   6.340   5.255  0.1043 -0.1609  0.5223
19474TIP3    H179837   5.293   6.272   5.322  1.1892  1.1936  1.8014
19474TIP3    H279838   5.237   6.410   5.299  0.4842  0.5930 -0.2556
19475TIP3   OH279839   4.045   1.670  13.216 -0.1267 -0.1094  0.1638
19475TIP3    H179840   4.061   1.688  13.123 -0.4068 -0.3570  0.0669
19475TIP3    H279841   4.039   1.575  13.221  0.1585 -0.1134  0.4813
19476TIP3   OH279842   4.117   4.513  16.751  0.1270 -0.8438 -0.3547
19476TIP3    H179843   4.040   4.523  16.694 -0.1177 -0.1544  0.0817
19476TIP3    H279844   4.187   4.487  16.692  0.4473  2.0552 -1.4062
19477TIP3   OH279845   4.355   3.365   1.514  0.7382 -0.0982  0.7137
19477TIP3    H179846   4.366   3.314   1.434  2.6649 -1.6729  1.8841
19477TIP3    H279847   4.436   3.417   1.521 -0.3630  1.7156  0.5405
19478TIP3   OH279848   6.343   0.616   2.769 -0.2337  0.2301 -0.4599
19478TIP3    H179849   6.271   0.554   2.775  1.5179 -1.8502  0.2078
19478TIP3    H279850   6.352   0.634   2.675  0.4637 -2.1206 -0.8918
19479TIP3   OH279851   0.840   6.339   5.301  0.0189  0.3872  0.0894
19479TIP3    H179852   0.863   6.397   5.374  0.3379  0.8596 -0.3761
19479TIP3    H279853   0.744   6.342   5.298  0.0552  1.7525 -0.5982
19480TIP3   OH279854   5.167   5.408  15.120  0.3601 -0.6967  0.1029
19480TIP3    H179855   5.114   5.420  15.199  1.0300 -0.1896  0.4937
19480TIP3    H279856   5.103   5.399  15.049 -0.2504 -1.1926  0.7032
19481TIP3   OH279857   5.972   4.198  16.442  0.5276  0.3018  0.3232
19481TIP3    H179858   5.957   4.272  16.500 -1.8696  0.6115 -0.5812
19481TIP3    H279859   5.936   4.225  16.358 -1.0531 -2.0999  0.1421
19482TIP3   OH279860   1.964   4.443   4.659 -0.0692  0.4861  0.5267
19482TIP3    H179861   1.929   4.471   4.743 -0.6834  0.5422  0.2576
19482TIP3    H279862   1.930   4.354   4.647  0.9205  0.0580  0.8410
19483TIP3   OH279863   0.881   0.549   0.416  0.6456 -0.2138  0.2245
19483TIP3    H179864   0.835   0.590   0.489  1.3742  0.4841  0.3207
19483TIP3    H279865   0.824   0.479   0.387  1.4950 -2.3746  3.2325
19484TIP3   OH279866   2.362   0.293   4.358 -0.4772 -0.5630 -0.1224
19484TIP3    H179867   2.312   0.355   4.410 -0.3888 -0.4174 -0.2095
19484TIP3    H279868   2.441   0.341   4.331  0.2434 -1.1306  0.9161
19485TIP3   OH279869   2.003   4.575  14.949  0.7485 -0.4994  0.1918
19485TIP3    H179870   1.926   4.559  14.893 -0.0143  0.3735  0.9496
19485TIP3    H279871   1.986   4.661  14.987 -0.0770 -2.0849  3.7852
19486TIP3   OH279872   0.984   3.205   2.565 -0.0552 -0.1277  0.3440
19486TIP3    H179873   1.072   3.210   2.529 -0.5497 -1.2064 -1.1194
19486TIP3    H279874   0.939   3.282   2.531 -0.6713 -1.3992 -1.9451
19487TIP3   OH279875   4.509   4.224   2.203  0.8109  0.3728  0.2495
19487TIP3    H179876   4.421   4.197   2.177  0.5139  0.7485  0.8377
19487TIP3    H279877   4.568   4.167   2.153  0.3204  1.7305 -2.0151
19488TIP3   OH279878   0.571   4.040   2.656 -0.2352 -0.2007 -0.2366
19488TIP3    H179879   0.662   4.018   2.637 -0.0072  0.7541 -0.3109
19488TIP3    H279880   0.539   4.081   2.576 -0.3672  0.5247  0.1696
19489TIP3   OH279881   1.056   5.532   4.334  0.3167 -0.5375  0.0458
19489TIP3    H179882   1.139   5.580   4.338  0.5395 -0.8646 -0.5063
19489TIP3    H279883   1.071   5.456   4.391  0.6544 -0.9697 -0.6054
19490TIP3   OH279884   4.048   3.179   4.997  0.3872  0.3806  0.0292
19490TIP3    H179885   4.126   3.149   5.044 -1.3925  0.3411  3.2383
19490TIP3    H279886   4.004   3.099   4.971 -0.0178  0.3242  0.8528
19491TIP3   OH279887   6.136   0.779  12.536 -0.2209 -0.1143 -0.1413
19491TIP3    H179888   6.150   0.685  12.524 -2.3239 -0.3602 -0.9396
19491TIP3    H279889   6.061   0.800  12.481 -0.4954  1.8258  0.8793
19492TIP3   OH279890   6.140   6.364   6.739  0.3404 -0.0814  0.1950
19492TIP3    H179891   6.165   6.455   6.754  0.3581 -0.3468  1.9632
19492TIP3    H279892   6.163   6.319   6.820 -2.1282 -1.1553  0.3757
19493TIP3   OH279893   1.168   0.148  11.841 -0.1760  0.6558 -0.1814
19493TIP3    H179894   1.115   0.202  11.782  0.2496  0.6476 -0.5808
19493TIP3    H279895   1.115   0.070  11.855 -0.4343  0.8115 -0.2741
19494TIP3   OH279896   2.054   6.636   2.483  0.0188 -0.1008  0.2978
19494TIP3    H179897   2.053   6.587   2.565 -0.1919 -1.1865 -0.3350
19494TIP3    H279898   2.087   6.723   2.507 -1.4971  0.1124  1.8144
19495TIP3   OH279899   1.404   4.581  12.781  0.3999 -0.0594 -0.0399
19495TIP3    H179900   1.370   4.503  12.827 -1.2252  0.1137 -0.8786
19495TIP3    H279901   1.340   4.649  12.800  1.4981  0.9343  0.1838
19496TIP3   OH279902   4.752   2.049   3.883  0.1041 -0.3647  0.5791
19496TIP3    H179903   4.782   2.137   3.903  0.4739 -0.7994  2.0314
19496TIP3    H279904   4.783   2.032   3.794 -0.2693  1.0845  0.1611
19497TIP3   OH279905   3.347   4.776  11.263 -0.0638 -0.1978  0.0627
19497TIP3    H179906   3.371   4.795  11.172  0.9112  0.2736  0.4015
19497TIP3    H279907   3.278   4.710  11.256 -2.3924  2.2015 -1.0894
19498TIP3   OH279908   4.980   0.839  15.647 -0.3497 -0.4201 -0.0251
19498TIP3    H179909   5.063   0.839  15.599 -0.5933 -1.3954 -0.4577
19498TIP3    H279910   5.004   0.864  15.736  0.3756 -0.4403 -0.2105
19499TIP3   OH279911   5.025   2.112  11.036  0.5705  0.0396 -0.0839
19499TIP3    H179912   4.986   2.094  10.950 -1.2068  1.4189  0.3621
19499TIP3    H279913   5.102   2.165  11.017 -0.1410  0.8364 -0.8077
19500TIP3   OH279914   1.295   4.428   0.352  0.9025 -0.0555  0.3509
19500TIP3    H179915   1.304   4.371   0.428  0.6880  1.6285  1.6934
19500TIP3    H279916   1.278   4.514   0.389 -0.0454  0.6595 -1.6482
19501TIP3   OH279917   4.418   2.918   0.043  0.2989 -0.4374  0.1954
19501TIP3    H179918   4.335   2.939   0.086  1.3295 -0.1464  2.1635
19501TIP3    H279919   4.431   2.989  -0.019 -0.7765 -0.3341  0.0580
19502TIP3   OH279920   2.677   0.807  14.631 -0.3737  0.2050 -0.4163
19502TIP3    H179921   2.725   0.732  14.666 -0.1893  1.0862  1.3098
19502TIP3    H279922   2.587   0.775  14.621 -0.2372 -0.3244  0.0082
19503TIP3   OH279923   0.624   2.017  12.848  0.0107 -0.2307  0.6443
19503TIP3    H179924   0.696   2.051  12.901  0.0940 -3.4325  2.8898
19503TIP3    H279925   0.667   1.978  12.772  0.3473  0.3349  0.5359
19504TIP3   OH279926   4.878   4.053  11.754 -0.0544 -0.0533  0.3986
19504TIP3    H179927   4.925   4.002  11.688 -0.3783  0.6437 -0.3878
19504TIP3    H279928   4.787   4.023  11.748 -0.4374  1.2397 -0.7270
19505TIP3   OH279929   2.841   5.968   0.084  0.7654 -0.3047 -0.3141
19505TIP3    H179930   2.777   5.908   0.046  0.5283  0.2985 -0.8775
19505TIP3    H279931   2.914   5.912   0.109  0.1293 -0.9699  0.1067
19506TIP3   OH279932   1.183   0.046  13.594 -0.3945 -0.1194  0.4170
19506TIP3    H179933   1.214  -0.006  13.668  1.2330  1.9659  1.3066
19506TIP3    H279934   1.252   0.037  13.528 -0.5321  0.1828  0.2280
19507TIP3   OH279935   0.955   0.794  13.875 -0.4281  0.0684 -0.2844
19507TIP3    H179936   1.035   0.778  13.825  0.0457  0.3961  0.3728
19507TIP3    H279937   0.981   0.853  13.945 -1.7221  2.1689 -1.4478
19508TIP3   OH279938   2.764   1.694   2.345  0.4590 -0.3111  0.5084
19508TIP3    H179939   2.763   1.604   2.376 -0.3095 -1.2728 -2.0604
19508TIP3    H279940   2.696   1.697   2.277  1.5373  1.7779 -0.5871
19509TIP3   OH279941   0.306   0.786   1.762  0.3221 -0.0090  0.1324
19509TIP3    H179942   0.335   0.710   1.813  1.7758  1.1731  1.1575
19509TIP3    H279943   0.290   0.854   1.827  1.0154  1.1686 -0.8867
19510TIP3   OH279944   5.294   2.533   3.657  0.0991 -0.2258 -0.1213
19510TIP3    H179945   5.256   2.557   3.572 -0.1622 -0.2268 -0.0052
19510TIP3    H279946   5.249   2.589   3.720  1.7737  1.3037 -0.2038
19511TIP3   OH279947   5.873   6.387  16.123 -0.3076 -0.5664 -0.4813
19511TIP3    H179948   5.849   6.379  16.215 -0.5203  0.2697 -0.4567
19511TIP3    H279949   5.966   6.366  16.121 -0.0949  0.2601  0.0677
19512TIP3   OH279950   0.953   5.325  16.878  0.7702 -0.2587 -0.4286
19512TIP3    H179951   0.997   5.382  16.815 -1.2263  0.5306 -1.1980
19512TIP3    H279952   0.926   5.249  16.826 -1.7430  0.8325 -0.8705
19513TIP3   OH279953   1.291   4.422   6.116  0.1032 -0.4033 -0.2229
19513TIP3    H179954   1.328   4.436   6.203 -2.3011 -1.0768  0.9842
19513TIP3    H279955   1.207   4.379   6.132 -0.5680 -0.2482 -2.8743
19514TIP3   OH279956   4.538   6.070  13.906  0.4429  0.1706  0.0606
19514TIP3    H179957   4.463   6.088  13.849  0.0874 -0.0144  0.4673
19514TIP3    H279958   4.508   6.000  13.964  1.5585 -1.2280 -0.9982
19515TIP3   OH279959   0.631   2.192   3.299 -0.2686 -0.9220  0.6443
19515TIP3    H179960   0.555   2.177   3.356 -1.4263  0.9737 -0.2757
19515TIP3    H279961   0.608   2.271   3.250  0.9313 -2.1234 -2.0354
19516TIP3   OH279962   4.971   3.626   1.091 -0.0660  0.2056 -0.2721
19516TIP3    H179963   5.066   3.626   1.081 -0.2499 -0.9833 -2.8391
19516TIP3    H279964   4.947   3.718   1.092  1.1919  0.5959  2.2421
19517TIP3   OH279965   5.362   0.252  15.405  0.4152 -0.1058 -0.2311
19517TIP3    H179966   5.316   0.225  15.485  0.1754 -0.8578 -0.6081
19517TIP3    H279967   5.451   0.272  15.434  0.7545 -1.7822  0.0238
19518TIP3   OH279968   2.075   0.369   5.518 -0.3041 -0.3813  0.5010
19518TIP3    H179969   2.128   0.435   5.473 -2.7458  1.6054  0.3449
19518TIP3    H279970   2.047   0.310   5.448 -0.2173 -0.0893  0.2170
19519TIP3   OH279971   4.484   5.874  12.126 -0.1820  0.4183 -0.2972
19519TIP3    H179972   4.431   5.817  12.070 -0.8538  0.9125 -0.1800
19519TIP3    H279973   4.469   5.842  12.215 -1.4589  1.4469 -0.1102
19520TIP3   OH279974   4.629   2.742  11.184 -0.1323  0.3767 -0.0858
19520TIP3    H179975   4.674   2.659  11.202 -1.4400 -0.1310  1.0073
19520TIP3    H279976   4.583   2.727  11.102  1.3454  0.7778 -1.0197
19521TIP3   OH279977   4.330   6.540  12.995 -0.0271 -0.2477 -0.3457
19521TIP3    H179978   4.418   6.571  13.017 -0.7483  2.9654 -1.3546
19521TIP3    H279979   4.335   6.445  13.000  3.4003 -0.1567 -0.0606
19522TIP3   OH279980   3.901   4.238  14.331 -0.3328 -0.3942 -0.2954
19522TIP3    H179981   3.883   4.144  14.320  0.8479 -0.5671 -0.8542
19522TIP3    H279982   3.995   4.242  14.347 -0.5244  0.6320  0.6985
19523TIP3   OH279983   5.098   3.890   6.620  0.0347 -0.1809 -0.5441
19523TIP3    H179984   5.152   3.818   6.653  1.4954  1.5258  1.0052
19523TIP3    H279985   5.034   3.847   6.563  0.6116 -2.7198  0.5606
19524TIP3   OH279986   1.426   4.130  12.529 -0.3012  0.4382 -0.2765
19524TIP3    H179987   1.370   4.114  12.453  1.0339 -0.5097 -1.1065
19524TIP3    H279988   1.507   4.166  12.493 -0.2789  1.6304  0.8742
19525TIP3   OH279989   5.213   0.071   4.778 -0.5064 -0.1470  0.0767
19525TIP3    H179990   5.191   0.091   4.687  0.0672 -0.4843 -0.1379
19525TIP3    H279991   5.237   0.156   4.816  0.7267 -0.2239 -0.4997
19526TIP3   OH279992   4.668   6.382  14.607  0.5248  0.4107 -0.6554
19526TIP3    H179993   4.599   6.402  14.671  0.4980  1.3925 -0.9657
19526TIP3    H279994   4.683   6.288  14.617 -1.3875  0.0070 -1.1213
19527TIP3   OH279995   4.354   0.762  11.982 -0.4207  0.9585  0.8232
19527TIP3    H179996   4.355   0.718  11.897  0.2379 -0.1053  1.3453
19527TIP3    H279997   4.314   0.698  12.041  2.7378 -0.0248  2.1027
19528TIP3   OH279998   1.078   1.963   3.140  0.7402  0.3134 -0.4341
19528TIP3    H179999   1.139   1.998   3.205 -1.5014  0.0169  1.9592
19528TIP3    H280000   0.992   1.987   3.172 -0.5665 -1.5010 -2.3255
19529TIP3   OH280001   6.351   0.033   4.034 -0.6139  0.4721 -0.3424
19529TIP3    H180002   6.260   0.059   4.019 -0.6344 -0.3464 -1.7280
19529TIP3    H280003   6.370   0.067   4.122 -1.6966  2.1743 -0.7032
19530TIP3   OH280004   5.435   3.999   0.682 -0.1017  0.1665  0.3230
19530TIP3    H180005   5.368   3.933   0.703 -0.5656  0.9728  1.4818
19530TIP3    H280006   5.513   3.969   0.727 -0.2812  0.3381  0.7531
19531TIP3   OH280007   3.612   4.137  12.004 -0.1108  0.1998 -0.3122
19531TIP3    H180008   3.543   4.072  12.010  2.7021 -2.9256  2.0758
19531TIP3    H280009   3.646   4.128  11.915  0.0827 -1.5898 -0.0958
19532TIP3   OH280010   0.798   6.075   3.196 -0.4944 -0.2263  0.1094
19532TIP3    H180011   0.751   6.006   3.149 -2.4119  0.2152  1.2715
19532TIP3    H280012   0.870   6.030   3.239 -1.1486 -1.3493  0.0670
19533TIP3   OH280013   1.633   0.903   1.032  0.1629 -0.3438 -0.4503
19533TIP3    H180014   1.656   0.978   0.978  1.9952 -0.8926 -0.4863
19533TIP3    H280015   1.542   0.883   1.008  0.4402  0.3424 -2.2155
19534TIP3   OH280016   2.258   4.554  15.615  0.0074 -0.0887 -0.1177
19534TIP3    H180017   2.342   4.550  15.660 -0.4042  0.9147  0.7803
19534TIP3    H280018   2.279   4.537  15.523  1.0000 -1.1645  0.2887
19535TIP3   OH280019   2.810   5.147  10.621  0.5444  0.3055 -0.5747
19535TIP3    H180020   2.717   5.132  10.605  0.5850  1.1487 -1.7410
19535TIP3    H280021   2.830   5.227  10.572  1.9583 -0.0459 -0.6129
19536TIP3   OH280022   2.086   2.624  12.390 -0.1057  0.5820  0.5199
19536TIP3    H180023   2.137   2.545  12.406 -0.9302 -0.1398 -0.3519
19536TIP3    H280024   2.033   2.604  12.313 -0.8033  1.7538  0.6677
19537TIP3   OH280025   1.542   3.938   2.706  0.0424  0.5170  0.2353
19537TIP3    H180026   1.622   3.963   2.660 -0.8217 -0.2883 -1.7983
19537TIP3    H280027   1.476   3.999   2.675 -0.5339  0.0526  0.5391
19538TIP3   OH280028   2.640   2.037  15.382 -0.4751  0.1375  0.3722
19538TIP3    H180029   2.664   2.122  15.420  1.0306 -0.3785  0.6227
19538TIP3    H280030   2.581   1.998  15.446  1.7265 -0.5643  2.1145
19539TIP3   OH280031   2.208   1.111  15.625  0.0328 -0.9039  0.3294
19539TIP3    H180032   2.124   1.145  15.595  0.0681 -0.1352  1.0392
19539TIP3    H280033   2.234   1.047  15.559 -1.1223 -1.1783  0.1174
19540TIP3   OH280034   3.721   3.368   0.998 -0.1917 -0.1541  0.0995
19540TIP3    H180035   3.759   3.365   1.086  1.0283  2.0801 -0.2795
19540TIP3    H280036   3.731   3.279   0.965 -0.0082 -0.8684  1.9230
19541TIP3   OH280037   4.927   4.939   5.167  0.0713 -0.1792 -0.1604
19541TIP3    H180038   4.965   4.866   5.216  1.9722  0.4271 -0.6807
19541TIP3    H280039   4.922   5.011   5.231  0.9150  0.0848 -0.3790
19542TIP3   OH280040   0.088   0.962  14.498 -0.9554 -0.0965 -0.2680
19542TIP3    H180041   0.029   1.025  14.539  2.1338  0.6552  3.5959
19542TIP3    H280042   0.048   0.877  14.517 -0.3874  0.3013  3.6070
19543TIP3   OH280043   0.591   0.968  16.820 -0.1740  0.2314 -0.3149
19543TIP3    H180044   0.576   0.883  16.779  0.9217  0.1749 -0.6137
19543TIP3    H280045   0.544   0.962  16.904 -1.0798 -0.2274 -0.8319
19544TIP3   OH280046   1.571   5.579   0.208 -0.3674 -0.7386 -0.2797
19544TIP3    H180047   1.536   5.554   0.294 -2.2809  2.1278 -0.0958
19544TIP3    H280048   1.666   5.578   0.220 -0.5777 -0.9807  1.7212
19545TIP3   OH280049   4.954   4.289   5.113  0.8363 -0.2840  0.1223
19545TIP3    H180050   5.035   4.244   5.091 -0.2881 -1.4572 -1.9397
19545TIP3    H280051   4.946   4.358   5.048 -0.1583 -0.6575 -0.1715
19546TIP3   OH280052   5.429   5.491   5.127 -0.3587  0.2388 -0.3921
19546TIP3    H180053   5.474   5.413   5.093 -0.2636  0.4278 -0.7111
19546TIP3    H280054   5.496   5.560   5.124  0.0504 -0.0444  1.4449
19547TIP3   OH280055   4.848   4.132   5.612  0.5187  0.2173  0.4201
19547TIP3    H180056   4.860   4.183   5.692  1.0453  0.2142  0.3525
19547TIP3    H280057   4.865   4.195   5.542 -4.1917  1.4408  0.0849
19548TIP3   OH280058   6.125   3.035  10.711 -0.1900  0.0394  0.3497
19548TIP3    H180059   6.167   3.114  10.744 -1.4575  1.6231 -1.5795
19548TIP3    H280060   6.169   3.019  10.627 -2.1089  0.6601 -0.8212
19549TIP3   OH280061   0.626   1.479   2.227  0.3637 -0.4821 -0.4620
19549TIP3    H180062   0.530   1.486   2.230  0.4904  1.4580  0.5680
19549TIP3    H280063   0.647   1.484   2.134 -0.5408 -1.0946 -0.7179
19550TIP3   OH280064   2.963   2.418   1.162  0.0669  0.0255 -0.0711
19550TIP3    H180065   3.028   2.365   1.208  1.7368  2.0950  0.0736
19550TIP3    H280066   2.890   2.424   1.223 -0.3910 -2.3792 -0.2575
19551TIP3   OH280067   3.285   0.248   4.899  0.4461 -0.2956 -0.5145
19551TIP3    H180068   3.359   0.306   4.885  0.6409  0.3173  2.4729
19551TIP3    H280069   3.300   0.210   4.986 -2.9766  0.3303  0.4964
19552TIP3   OH280070   4.146   5.945   1.077 -0.2731 -0.2481  0.4690
19552TIP3    H180071   4.218   5.883   1.092 -0.4221 -0.1939  1.5214
19552TIP3    H280072   4.187   6.018   1.032  0.2489 -0.4161  0.6548
19553TIP3   OH280073   6.698   1.451  16.385 -0.3460  0.3402  0.1526
19553TIP3    H180074   6.690   1.500  16.467  1.0416 -1.1240  1.2200
19553TIP3    H280075   6.743   1.370  16.410 -1.2331 -0.8179 -1.8070
19554TIP3   OH280076   0.295   5.193   2.219  0.3478 -0.5580 -0.4433
19554TIP3    H180077   0.264   5.186   2.310  0.3289 -3.3185 -0.5730
19554TIP3    H280078   0.390   5.181   2.226  0.1117 -3.5194 -0.8903
19555TIP3   OH280079   0.243   6.576   6.373 -0.1042 -0.2516 -0.7169
19555TIP3    H180080   0.333   6.554   6.398 -0.0856  1.6911  1.1572
19555TIP3    H280081   0.202   6.491   6.359  1.9537 -1.1964 -1.4229
19556TIP3   OH280082   5.964   2.823   5.649  0.5651 -0.4267 -0.5134
19556TIP3    H180083   6.001   2.804   5.563  1.8648  3.0742 -0.8819
19556TIP3    H280084   6.035   2.864   5.697 -0.6578 -0.7006  1.6288
19557TIP3   OH280085   3.597   5.492   6.049  0.2862 -0.8458  0.0678
19557TIP3    H180086   3.621   5.552   6.120 -0.5273 -0.5463  0.1004
19557TIP3    H280087   3.504   5.507   6.036  0.6882  0.1398 -2.0238
19558TIP3   OH280088   3.302   1.815  16.381 -0.1306  0.7184  0.4374
19558TIP3    H180089   3.231   1.829  16.444  1.8466  0.9420  2.7965
19558TIP3    H280090   3.281   1.732  16.338 -1.7187  0.7128  1.1852
19559TIP3   OH280091   6.675   5.376   4.788  0.6359  0.7720  0.2693
19559TIP3    H180092   6.729   5.441   4.742  1.6447  0.3947  0.8686
19559TIP3    H280093   6.729   5.296   4.787 -0.8577 -0.2851 -1.0555
19560TIP3   OH280094   3.615   6.177  13.316  0.4618 -0.9624  0.4764
19560TIP3    H180095   3.673   6.139  13.382  1.8632 -2.0623 -1.3302
19560TIP3    H280096   3.591   6.104  13.260  0.4358  0.1896 -1.0692
19561TIP3   OH280097   1.198   4.204  10.856 -0.3780  0.2481 -0.1551
19561TIP3    H180098   1.113   4.189  10.817 -0.2079  0.6537 -0.6894
19561TIP3    H280099   1.261   4.185  10.786  0.0253 -0.9829  0.4954
19562TIP3   OH280100   1.011   4.307   5.483  0.4542 -0.5057 -0.3517
19562TIP3    H180101   0.951   4.343   5.418 -0.6998  0.5578  1.2264
19562TIP3    H280102   1.096   4.343   5.459 -0.4413  2.4918  0.4301
19563TIP3   OH280103   4.164   2.320   4.410 -0.3400 -0.5029  0.0162
19563TIP3    H180104   4.181   2.229   4.434 -0.3882 -0.5479 -0.1188
19563TIP3    H280105   4.070   2.324   4.395 -0.5128 -0.1821  1.0616
19564TIP3   OH280106   6.272   3.091   1.851 -0.7050  0.8628 -0.1450
19564TIP3    H180107   6.328   3.165   1.825 -0.1234  0.6976  0.6073
19564TIP3    H280108   6.289   3.024   1.784 -0.2109  0.9177 -0.0821
19565TIP3   OH280109   2.631   5.036  12.722  0.5046 -0.4868 -0.1153
19565TIP3    H180110   2.718   5.005  12.694  0.2802 -1.9327  0.6757
19565TIP3    H280111   2.570   4.994  12.661  0.2660 -0.7280  0.2859
19566TIP3   OH280112   4.848   4.859  14.103 -0.3346  0.0335 -0.3277
19566TIP3    H180113   4.923   4.872  14.161 -2.3687 -4.1664  3.8361
19566TIP3    H280114   4.871   4.782  14.051 -0.6291  0.5750 -1.2828
19567TIP3   OH280115   1.385   4.046  14.272 -0.1746  0.3554  0.2426
19567TIP3    H180116   1.450   3.985  14.237  0.1340  0.6007  0.3906
19567TIP3    H280117   1.400   4.127  14.224 -0.9468  0.1609 -0.3452
19568TIP3   OH280118   2.139   4.968   6.466 -0.0611  0.0290 -0.6469
19568TIP3    H180119   2.130   4.978   6.561  2.2640 -2.4761 -0.0163
19568TIP3    H280120   2.050   4.960   6.433 -1.0353  2.9171  0.9878
19569TIP3   OH280121   0.033   1.355   1.325  0.0953 -0.3999 -0.2743
19569TIP3    H180122   0.045   1.449   1.313  2.7488 -0.0540  3.4566
19569TIP3    H280123  -0.054   1.346   1.364 -0.7868  0.2622 -1.9926
19570TIP3   OH280124   5.453   1.425  16.224  0.0364 -0.3910  0.0435
19570TIP3    H180125   5.532   1.398  16.271  0.3121 -0.3668 -0.3976
19570TIP3    H280126   5.381   1.388  16.275  0.3117 -0.0729  0.6757
19571TIP3   OH280127   6.245   2.771   0.378  0.9297 -0.2760  0.2181
19571TIP3    H180128   6.327   2.797   0.421  1.2155 -0.3215 -0.3036
19571TIP3    H280129   6.179   2.828   0.419  1.8824  3.3107 -2.7139
19572TIP3   OH280130   3.145   5.872   2.018 -0.0932  0.6332 -0.0908
19572TIP3    H180131   3.103   5.943   2.066 -0.6477  0.0705  0.2756
19572TIP3    H280132   3.095   5.866   1.936  0.0151  0.7250 -0.1643
19573TIP3   OH280133   3.328   3.836  12.134 -0.1525 -0.0638  0.1815
19573TIP3    H180134   3.387   3.775  12.178  0.7287  0.4798 -0.2359
19573TIP3    H280135   3.240   3.806  12.158  0.2355  1.2185  3.8463
19574TIP3   OH280136   3.590   0.917  11.263 -0.2886  0.6706 -0.1437
19574TIP3    H180137   3.507   0.905  11.217 -0.7985 -0.2256  0.9618
19574TIP3    H280138   3.566   0.953  11.348  0.4839  0.6430  0.0992
19575TIP3   OH280139   3.577   3.189   3.334  0.1809  0.3476 -0.5750
19575TIP3    H180140   3.569   3.098   3.363  0.0508 -0.0079 -1.6841
19575TIP3    H280141   3.488   3.213   3.306  0.2349  0.7829 -0.3788
19576TIP3   OH280142   4.025   0.625   1.671 -0.7563 -0.2124  0.1357
19576TIP3    H180143   4.058   0.584   1.591  0.0418  0.9878 -0.1914
19576TIP3    H280144   4.009   0.553   1.731  0.7229 -0.9904 -0.3623
19577TIP3   OH280145   1.891   4.263  16.677  0.2299  0.0115  0.2353
19577TIP3    H180146   1.889   4.168  16.687 -0.6210  0.2148  2.3813
19577TIP3    H280147   1.802   4.287  16.651  0.3868  0.2442 -0.0945
19578TIP3   OH280148   5.357   6.158  11.031 -0.3082  0.2583  0.9090
19578TIP3    H180149   5.351   6.242  11.077  0.9710 -0.4156  2.3974
19578TIP3    H280150   5.392   6.180  10.945 -0.7767  1.3338  0.9781
19579TIP3   OH280151   3.944   6.327   4.014  0.7437 -0.5028  0.1204
19579TIP3    H180152   3.939   6.237   4.046  0.9607 -0.7796 -0.5902
19579TIP3    H280153   4.038   6.348   4.016  0.6405 -0.0843  0.8274
19580TIP3   OH280154   4.442   3.683   2.278 -0.4277  0.0857 -0.5404
19580TIP3    H180155   4.512   3.636   2.323 -0.1026  0.5901 -0.5091
19580TIP3    H280156   4.484   3.764   2.247 -1.4503  1.3581  1.2154
19581TIP3   OH280157   0.057   0.554  12.876  0.4438 -0.3712 -0.0374
19581TIP3    H180158  -0.031   0.568  12.911  0.8516 -0.4256  1.0703
19581TIP3    H280159   0.056   0.466  12.841 -0.2077 -0.0358 -0.8931
19582TIP3   OH280160   1.594   2.102   2.673 -0.2141 -0.1201 -0.3148
19582TIP3    H180161   1.544   2.168   2.720 -0.4663 -2.3905  2.9147
19582TIP3    H280162   1.528   2.044   2.635  0.0030 -0.2541 -0.4915
19583TIP3   OH280163   4.942   2.504  11.814 -0.3787  0.4389 -0.5429
19583TIP3    H180164   4.863   2.520  11.865 -0.0003  0.6520 -0.0085
19583TIP3    H280165   4.959   2.587  11.770  1.8710  1.8982  2.6323
19584TIP3   OH280166   4.023   5.998  15.659  0.3996  0.5583  0.0060
19584TIP3    H180167   4.081   5.935  15.703  1.1751  1.8626  0.9239
19584TIP3    H280168   3.979   5.946  15.592  1.4913 -0.8266  0.2944
19585TIP3   OH280169   5.710   3.976   4.048 -0.2984 -0.8361  1.1813
19585TIP3    H180170   5.794   3.946   4.013 -0.1037 -0.8474  1.6601
19585TIP3    H280171   5.733   4.045   4.111 -0.6877 -0.3403  0.7926
19586TIP3   OH280172   4.814   1.885   5.246 -0.1711  0.1365  0.4754
19586TIP3    H180173   4.900   1.880   5.287  0.5786  1.3102 -0.8413
19586TIP3    H280174   4.752   1.875   5.318  1.0531 -0.7250  1.4526
19587TIP3   OH280175   3.632   3.215   4.894 -0.0815 -0.2528 -0.2461
19587TIP3    H180176   3.574   3.208   4.818  1.0458 -0.0716 -1.1431
19587TIP3    H280177   3.706   3.158   4.874  0.7681  0.6695  0.2007
19588TIP3   OH280178   0.068   0.021   3.569  0.0817 -0.2609  0.1131
19588TIP3    H180179   0.011  -0.046   3.607 -2.2710  1.1183 -0.7620
19588TIP3    H280180   0.097  -0.017   3.486 -0.9795 -0.3532 -0.2275
19589TIP3   OH280181   0.484   6.216   3.344  0.2008  0.0309 -0.3254
19589TIP3    H180182   0.485   6.305   3.309  2.6155  0.2204  0.0054
19589TIP3    H280183   0.468   6.160   3.268  1.1784  0.6465 -1.0094
19590TIP3   OH280184   4.629   4.600  15.441 -0.1061  0.2191  0.0955
19590TIP3    H180185   4.674   4.653  15.376  0.0020 -0.2187 -0.1921
19590TIP3    H280186   4.594   4.526  15.391  1.2396 -0.9116  0.7602
19591TIP3   OH280187   5.171   2.123   4.204 -0.3194 -0.0512 -0.2473
19591TIP3    H180188   5.129   2.075   4.275 -1.5863  0.0591 -0.8790
19591TIP3    H280189   5.156   2.215   4.225 -0.2605 -0.0081 -0.3943
19592TIP3   OH280190   2.098   2.133  14.068 -0.5240 -0.6746 -0.3193
19592TIP3    H180191   2.166   2.067  14.085 -0.2975 -0.4302 -0.2714
19592TIP3    H280192   2.070   2.116  13.978  0.5547  0.0758 -0.8181
19593TIP3   OH280193   3.382   5.939  14.401 -0.1023  0.3393  0.0854
19593TIP3    H180194   3.300   5.932  14.450  0.5728  1.6994  1.4967
19593TIP3    H280195   3.450   5.921  14.465  0.7827  1.2349 -0.5681
19594TIP3   OH280196   5.676   2.730  15.329  0.6638 -0.2648 -0.0755
19594TIP3    H180197   5.652   2.706  15.239  0.7539  0.6043 -0.3435
19594TIP3    H280198   5.688   2.646  15.374  0.7194 -0.7123 -0.9010
19595TIP3   OH280199   6.682   1.228  12.341  0.1015 -0.0456 -0.3299
19595TIP3    H180200   6.729   1.154  12.379 -1.1586 -0.9046 -0.3818
19595TIP3    H280201   6.705   1.302  12.397  0.7068 -0.6474  0.2439
19596TIP3   OH280202   6.295   4.830  11.578 -0.0262  0.2310  0.2092
19596TIP3    H180203   6.376   4.800  11.619 -0.3622 -1.2087 -0.1336
19596TIP3    H280204   6.226   4.779  11.620 -0.7330  1.1989  0.2589
19597TIP3   OH280205   1.233   5.436  12.635  0.2300  0.0173  0.0325
19597TIP3    H180206   1.159   5.376  12.626 -0.2989  0.6199  0.2740
19597TIP3    H280207   1.227   5.468  12.725  0.2231  0.7928 -0.2392
19598TIP3   OH280208   5.036   6.187   5.296 -0.3690 -0.2161  0.2094
19598TIP3    H180209   5.118   6.215   5.255 -0.1408 -0.9736  0.1378
19598TIP3    H280210   5.001   6.266   5.337 -0.9733  0.7825 -2.0569
19599TIP3   OH280211   4.397   3.175   3.041  0.2590  0.0255 -0.1519
19599TIP3    H180212   4.477   3.140   3.001 -0.3512 -0.7203 -0.7594
19599TIP3    H280213   4.332   3.106   3.027 -0.8118  1.1212 -0.7600
19600TIP3   OH280214   2.029   1.554   1.834  0.0817  0.0344 -0.2530
19600TIP3    H180215   2.007   1.610   1.760  2.2676  0.0094 -0.9880
19600TIP3    H280216   2.050   1.469   1.794 -1.4228 -0.8275  0.6801
19601TIP3   OH280217   3.344   5.268   6.627  0.4491 -0.1998 -0.7562
19601TIP3    H180218   3.299   5.186   6.649 -1.6692  0.8692 -0.8279
19601TIP3    H280219   3.360   5.310   6.711  3.1091 -1.3891 -0.5821
19602TIP3   OH280220   3.906   5.444   0.574  0.5249 -0.1908 -0.2776
19602TIP3    H180221   3.879   5.436   0.483  1.5520  1.0454 -0.7154
19602TIP3    H280222   3.849   5.512   0.611 -0.0883 -0.8951  0.0982
19603TIP3   OH280223   2.863   0.564  12.996  0.1609 -0.1451 -0.0307
19603TIP3    H180224   2.872   0.635  13.059  0.2427  0.2583 -0.4874
19603TIP3    H280225   2.878   0.606  12.911  0.4667 -0.7594 -0.2854
19604TIP3   OH280226   1.101   4.271  12.719 -0.3031 -0.5005 -0.4756
19604TIP3    H180227   1.075   4.362  12.728 -0.3569 -0.4602 -0.9893
19604TIP3    H280228   1.197   4.273  12.713 -0.1067 -0.6857  1.8438
19605TIP3   OH280229   1.053   4.675   1.190 -0.4610  0.4947 -0.2803
19605TIP3    H180230   1.066   4.715   1.276 -2.4825 -0.2901  0.4516
19605TIP3    H280231   0.976   4.719   1.154  0.8610  1.4291 -2.1257
19606TIP3   OH280232   2.257   1.289  12.906  0.7726  0.0250  0.2552
19606TIP3    H180233   2.302   1.287  12.822  0.1338  0.7776 -0.1099
19606TIP3    H280234   2.165   1.306  12.884  0.4125 -0.7959  1.0334
19607TIP3   OH280235   6.619   3.218  12.045 -0.4939 -0.6069 -0.4318
19607TIP3    H180236   6.583   3.141  12.090 -0.7520  1.6585  3.7963
19607TIP3    H280237   6.712   3.218  12.068 -0.9662  1.5431  1.9552
19608TIP3   OH280238   1.105   1.285   4.513 -0.3821 -0.2237  0.4018
19608TIP3    H180239   1.128   1.277   4.421 -1.1154  2.5494 -0.1075
19608TIP3    H280240   1.073   1.198   4.538  1.4274 -1.5018 -1.4332
19609TIP3   OH280241   3.486   3.262  11.167 -0.1583 -0.0450 -0.2475
19609TIP3    H180242   3.575   3.226  11.168  0.2890  0.9993  1.1851
19609TIP3    H280243   3.438   3.208  11.230 -0.3571 -0.1436 -0.4809
19610TIP3   OH280244   3.468   1.596   0.813  0.2081  0.2256  0.2732
19610TIP3    H180245   3.541   1.583   0.873 -1.0084 -3.3231  1.2465
19610TIP3    H280246   3.507   1.594   0.726  1.3437 -1.6557  0.7709
19611TIP3   OH280247   6.090   6.027  13.593  0.6579  0.1126  0.3406
19611TIP3    H180248   6.125   6.071  13.516  1.0743  0.8649  0.9486
19611TIP3    H280249   6.143   5.947  13.601 -0.2967 -0.6853 -0.9313
19612TIP3   OH280250   4.969   4.240   4.281 -0.2602  0.6577  0.0052
19612TIP3    H180251   4.996   4.152   4.253  0.8100  0.1322  2.4788
19612TIP3    H280252   4.942   4.283   4.199 -1.8402 -2.2596 -1.1874
19613TIP3   OH280253   0.073   2.481  14.629  0.0744  0.0196  0.3711
19613TIP3    H180254   0.089   2.485  14.723  1.0993  0.0655  0.2037
19613TIP3    H280255   0.079   2.572  14.599  0.9022 -0.1129  0.0944
19614TIP3   OH280256   5.608   5.270  16.683 -0.2202 -0.0575  0.9824
19614TIP3    H180257   5.700   5.274  16.710 -0.1398  1.1713  0.5858
19614TIP3    H280258   5.582   5.362  16.674 -0.5736 -0.3560 -1.9713
19615TIP3   OH280259   3.887   2.217  13.009 -0.0671  0.2458 -0.3104
19615TIP3    H180260   3.823   2.258  12.950 -0.3575 -0.3348 -0.4067
19615TIP3    H280261   3.847   2.133  13.033  0.4326  0.1039  0.0358
19616TIP3   OH280262   1.300   4.542  13.882 -0.2235 -0.1254  0.2639
19616TIP3    H180263   1.343   4.456  13.881  1.3394  0.5723  1.6422
19616TIP3    H280264   1.344   4.592  13.813 -0.4696 -0.1413  0.0962
19617TIP3   OH280265   4.889   0.969  11.384  0.2979 -0.0973  0.1103
19617TIP3    H180266   4.967   0.965  11.440 -1.0394  2.0843  2.3359
19617TIP3    H280267   4.820   0.929  11.436 -1.0553  2.2610  0.2963
19618TIP3   OH280268   5.735   3.784  17.340 -0.0301 -0.4020  0.1513
19618TIP3    H180269   5.657   3.795  17.285 -0.5127  1.4984  1.1189
19618TIP3    H280270   5.809   3.792  17.280 -0.5522  0.6202 -0.3833
19619TIP3   OH280271   2.548   0.927  14.266  0.5916 -0.4618 -0.2563
19619TIP3    H180272   2.513   0.992  14.204 -1.9335 -2.3486 -0.9555
19619TIP3    H280273   2.622   0.887  14.219 -1.3722 -1.9729 -2.2680
19620TIP3   OH280274   1.262   2.010  13.025  0.3090  0.2032  0.1679
19620TIP3    H180275   1.224   1.973  13.105  0.7439  1.0029  0.7699
19620TIP3    H280276   1.343   2.053  13.055 -1.1495  3.3939 -0.0748
19621TIP3   OH280277   2.614   4.590   5.888 -0.1942 -0.0224  0.2939
19621TIP3    H180278   2.703   4.623   5.876  0.2405 -0.8840  1.0419
19621TIP3    H280279   2.558   4.657   5.849  0.7814  0.4993 -0.2448
19622TIP3   OH280280   5.279   6.706   0.561 -0.1255  0.3099  0.0814
19622TIP3    H180281   5.357   6.753   0.531 -0.2963 -1.1868 -3.2299
19622TIP3    H280282   5.206   6.763   0.536 -0.2708 -0.9628 -2.8258
19623TIP3   OH280283   3.551   0.212   3.521  0.3204 -0.4478 -0.6653
19623TIP3    H180284   3.587   0.275   3.458  0.0612  2.0501  1.5418
19623TIP3    H280285   3.628   0.176   3.565  0.4119  1.8126  1.1882
19624TIP3   OH280286   1.139   4.940   4.170  0.0362 -0.1664  0.6432
19624TIP3    H180287   1.194   4.904   4.100  0.6849  1.2577  0.3971
19624TIP3    H280288   1.201   4.976   4.233 -0.5682 -0.6544  1.5456
19625TIP3   OH280289   4.108   3.186   4.594 -0.4598 -0.0200  0.2514
19625TIP3    H180290   4.099   3.098   4.630  0.0169 -0.7137 -1.2585
19625TIP3    H280291   4.101   3.244   4.671  1.4722 -1.4537  1.6061
19626TIP3   OH280292   3.398   3.457   0.957 -0.2715 -0.4971 -0.4699
19626TIP3    H180293   3.311   3.447   0.919 -0.6862  0.2868  0.2576
19626TIP3    H280294   3.457   3.420   0.891 -1.3553 -4.0758  0.3662
19627TIP3   OH280295   1.371   6.077   2.590  0.1046 -0.2399  0.3215
19627TIP3    H180296   1.339   5.987   2.600 -0.4260 -0.2922 -1.5242
19627TIP3    H280297   1.362   6.096   2.497 -1.0001  2.1986  0.8499
19628TIP3   OH280298   5.054   3.668  15.430  0.3873  0.2726 -0.4210
19628TIP3    H180299   5.119   3.624  15.485 -0.1365 -0.6884 -0.5407
19628TIP3    H280300   4.982   3.690  15.490 -0.3289 -1.0678 -0.7284
19629TIP3   OH280301   5.045   3.008  13.077  0.0774  0.0699 -0.5047
19629TIP3    H180302   5.118   3.014  13.139  0.7756  3.2310 -1.4842
19629TIP3    H280303   5.072   2.941  13.014  1.3672  0.0156  0.0856
19630TIP3   OH280304   1.223   6.259   6.669 -0.2913 -0.4467  0.5146
19630TIP3    H180305   1.293   6.245   6.734  1.5406  2.2538 -0.7220
19630TIP3    H280306   1.238   6.191   6.603  0.9616 -0.1557  0.4695
19631TIP3   OH280307   4.228   6.005  13.149 -0.0963 -0.0922  0.1062
19631TIP3    H180308   4.188   5.973  13.068  2.4861 -0.6613 -1.0323
19631TIP3    H280309   4.167   5.978  13.218 -1.0823 -1.9482 -1.4067
19632TIP3   OH280310   1.589   0.485  12.286  0.0157 -0.0081 -0.4843
19632TIP3    H180311   1.577   0.403  12.237 -1.1976  1.4303 -2.7507
19632TIP3    H280312   1.512   0.538  12.264  0.3519  1.4632  1.5805
19633TIP3   OH280313   3.012   1.886  13.641 -0.5813  0.7615 -0.6314
19633TIP3    H180314   3.098   1.896  13.681 -0.9693 -0.7540  0.6679
19633TIP3    H280315   2.954   1.940  13.696 -1.3196 -2.1822  1.7448
19634TIP3   OH280316   0.711   0.999   2.632 -0.5179  0.5154  0.3026
19634TIP3    H180317   0.703   1.079   2.579  0.5337  0.5369  0.1526
19634TIP3    H280318   0.763   1.025   2.708 -1.5021  0.3359  1.0500
19635TIP3   OH280319   5.939   3.675   4.604  0.6218  0.3014  0.4879
19635TIP3    H180320   5.921   3.587   4.638  1.8906 -0.7829 -1.4755
19635TIP3    H280321   5.857   3.703   4.565  0.3686 -0.2586  0.6094
19636TIP3   OH280322   5.952   0.592  12.408 -0.2369 -0.2272 -0.0850
19636TIP3    H180323   6.034   0.544  12.410 -0.6039 -0.8690 -0.4299
19636TIP3    H280324   5.919   0.587  12.498  0.5416  0.8117  0.2729
19637TIP3   OH280325   0.472   0.001  14.725  0.1568  0.3554  0.4170
19637TIP3    H180326   0.565  -0.018  14.710 -0.2308 -0.4753 -1.1821
19637TIP3    H280327   0.472   0.083  14.773  1.7295  0.1088  0.9256
19638TIP3   OH280328   0.452   5.124   4.707  0.1337  0.0891  0.2280
19638TIP3    H180329   0.494   5.142   4.623  2.4184 -2.3317  0.7126
19638TIP3    H280330   0.490   5.041   4.735 -1.4150  0.2433  3.1298
19639TIP3   OH280331   0.527   3.630  11.740  0.4884 -0.3794  0.2692
19639TIP3    H180332   0.565   3.709  11.703  1.0524 -0.3765  0.8493
19639TIP3    H280333   0.520   3.570  11.665 -0.0701  0.2542 -0.2003
19640TIP3   OH280334   3.623   5.136  13.387  0.3244 -0.0590 -0.0419
19640TIP3    H180335   3.712   5.116  13.357  0.6687 -0.5635  1.2644
19640TIP3    H280336   3.631   5.148  13.482 -0.8600  0.7519 -0.0139
19641TIP3   OH280337   2.087   6.348   4.374  0.2255 -0.2358  0.0096
19641TIP3    H180338   2.179   6.323   4.380  0.0506 -0.7034  0.8966
19641TIP3    H280339   2.083   6.434   4.415  0.4271  0.2508 -0.9515
19642TIP3   OH280340   3.059   2.538   3.858 -0.1487  0.1543 -0.5806
19642TIP3    H180341   3.060   2.607   3.791  2.3461  1.5234  0.6972
19642TIP3    H280342   3.118   2.471   3.825 -0.1285  0.0979 -0.4315
19643TIP3   OH280343   3.591   1.475   1.682 -0.8625  0.4725 -0.3998
19643TIP3    H180344   3.550   1.432   1.757 -0.0289  2.5872  1.3938
19643TIP3    H280345   3.680   1.442   1.681 -1.4527 -1.2231 -1.9122
19644TIP3   OH280346   4.565   1.600  12.675  0.0347 -0.4012 -0.3933
19644TIP3    H180347   4.494   1.644  12.722  0.3000 -0.1012 -0.2711
19644TIP3    H280348   4.524   1.570  12.593  0.0901  1.0214 -0.9704
19645TIP3   OH280349   0.556   0.231  13.651 -0.1889  0.0815  0.2104
19645TIP3    H180350   0.465   0.226  13.680 -0.4081 -0.9298 -0.5993
19645TIP3    H280351   0.555   0.197  13.561  0.7649  1.3576 -0.3174
19646TIP3   OH280352   6.565   1.584   3.743  0.6269  0.1601 -0.5000
19646TIP3    H180353   6.485   1.576   3.692 -0.3566 -0.9905  1.1370
19646TIP3    H280354   6.536   1.603   3.832  2.1634 -0.0900  0.0999
19647TIP3   OH280355   0.289   3.181   3.352 -0.0670 -0.4399 -0.2273
19647TIP3    H180356   0.312   3.248   3.417  0.9235 -0.7850 -0.2061
19647TIP3    H280357   0.355   3.190   3.284  0.2916 -1.6305 -0.0536
19648TIP3   OH280358   6.396   5.449  15.916 -0.2135 -0.1746 -0.5560
19648TIP3    H180359   6.485   5.446  15.880  0.0554  1.9145 -0.2026
19648TIP3    H280360   6.339   5.445  15.839  0.1077 -2.1337 -0.7554
19649TIP3   OH280361   5.535   1.126  17.071 -0.2856  0.6443 -0.5156
19649TIP3    H180362   5.454   1.163  17.034 -0.4043  0.5869 -0.3143
19649TIP3    H280363   5.605   1.168  17.020 -0.4351  0.8356 -0.5676
19650TIP3   OH280364   2.588   4.363  13.527  0.3110  0.3656  0.5135
19650TIP3    H180365   2.548   4.286  13.566 -0.0876  0.4991  0.3746
19650TIP3    H280366   2.616   4.335  13.440  1.5270 -0.0318  1.0173
19651TIP3   OH280367   3.966   0.699   3.878 -0.0927 -0.4944  0.1940
19651TIP3    H180368   3.904   0.628   3.894  1.3953 -1.8075  0.4149
19651TIP3    H280369   4.051   0.656   3.872  1.1740  1.4339  2.3576
19652TIP3   OH280370   3.181   4.818  13.289  0.1416  0.2115 -0.3144
19652TIP3    H180371   3.240   4.853  13.222  0.1589 -0.9581 -0.9336
19652TIP3    H280372   3.231   4.747  13.329  0.8771  2.0296  2.2660
19653TIP3   OH280373   2.917   5.308  12.642  0.0752  0.0961 -0.1263
19653TIP3    H180374   3.000   5.289  12.687  0.6152  0.1163 -1.0753
19653TIP3    H280375   2.907   5.235  12.580 -1.0526 -0.3444  0.5538
19654TIP3   OH280376   1.127   3.253  13.966 -0.1706  0.3506 -0.0335
19654TIP3    H180377   1.171   3.200  13.900 -0.9434  0.6180 -0.7865
19654TIP3    H280378   1.051   3.201  13.992 -0.5175  0.7573 -0.2235
19655TIP3   OH280379   2.672   5.555  11.201 -0.5516 -0.4566  0.1830
19655TIP3    H180380   2.663   5.470  11.158 -1.1029 -0.7644  0.8974
19655TIP3    H280381   2.583   5.589  11.206 -0.1148  1.3558 -2.4134
19656TIP3   OH280382   6.660   6.202   2.979  0.6454  0.4495 -0.0695
19656TIP3    H180383   6.723   6.131   2.968 -1.1299 -1.2900  0.4404
19656TIP3    H280384   6.698   6.259   3.046  0.8938 -1.5605  1.5949
19657TIP3   OH280385   4.811   5.996  11.660  0.4892 -0.0220 -0.1627
19657TIP3    H180386   4.802   6.023  11.568 -0.0297  0.7886  0.1120
19657TIP3    H280387   4.856   6.070  11.701  1.1999 -0.6117  0.1335
19658TIP3   OH280388   4.849   4.771  15.000  0.1177  0.3581 -0.1341
19658TIP3    H180389   4.927   4.787  14.946  0.4282 -0.8995 -0.1000
19658TIP3    H280390   4.804   4.700  14.954  0.6801 -1.1378  1.5302
19659TIP3   OH280391   2.171   3.981  16.973  0.1434  0.4691 -0.2011
19659TIP3    H180392   2.217   3.899  16.955 -0.3927 -0.1890  1.2694
19659TIP3    H280393   2.086   3.971  16.931  0.1621  0.3658 -0.2141
19660TIP3   OH280394   3.692   0.399  14.169 -0.5692  0.1796  0.4534
19660TIP3    H180395   3.695   0.385  14.075  0.6079  2.2284  0.1158
19660TIP3    H280396   3.686   0.495  14.178  1.9121  0.2280  2.4387
19661TIP3   OH280397   0.491   0.857  15.124  0.0880 -0.6244  0.2379
19661TIP3    H180398   0.540   0.938  15.138  2.0495 -2.0307  2.2948
19661TIP3    H280399   0.542   0.790  15.170 -3.8585 -2.2497  2.7345
19662TIP3   OH280400   2.889   0.100   4.165 -0.2436 -0.1152 -0.3674
19662TIP3    H180401   2.843   0.016   4.158  1.7742 -1.2642 -0.5439
19662TIP3    H280402   2.921   0.103   4.255  1.6744 -0.6758 -0.9896
19663TIP3   OH280403   2.395   4.762  17.162  0.4352  0.1519  0.2015
19663TIP3    H180404   2.388   4.801  17.249 -0.0100  1.0975 -0.2443
19663TIP3    H280405   2.486   4.733  17.156  0.1786 -0.9990  1.4111
19664TIP3   OH280406   3.462   4.532   0.710 -0.4820  0.0082 -0.4982
19664TIP3    H180407   3.431   4.609   0.662 -0.7242  0.3574  0.2003
19664TIP3    H280408   3.383   4.479   0.724 -0.3752 -0.2001 -0.6610
19665TIP3   OH280409   5.551   3.323   0.239  0.5802 -0.5276 -0.0146
19665TIP3    H180410   5.493   3.254   0.207  1.0903 -1.7324  1.5359
19665TIP3    H280411   5.492   3.392   0.270  0.0618 -0.3696 -1.2870
19666TIP3   OH280412   3.552   3.271   1.790 -0.0255 -0.1679 -0.2903
19666TIP3    H180413   3.537   3.366   1.787 -0.1683 -0.0790 -4.8116
19666TIP3    H280414   3.647   3.261   1.792 -0.0192  0.0026  0.8550
19667TIP3   OH280415   5.138   3.571   0.519  0.1274 -0.1668  0.4731
19667TIP3    H180416   5.141   3.659   0.481 -1.5727 -1.1636 -2.2215
19667TIP3    H280417   5.084   3.581   0.598  1.0196  1.3927  0.9336
19668TIP3   OH280418   3.625   4.301  13.800  0.0754 -0.3942  0.3405
19668TIP3    H180419   3.720   4.312  13.806  0.0910 -1.0831  1.8528
19668TIP3    H280420   3.597   4.369  13.739  1.4153  0.5859  0.7625
19669TIP3   OH280421   6.278   6.165   1.367 -0.2679 -0.5785 -0.1831
19669TIP3    H180422   6.357   6.214   1.344  0.2204 -1.5610 -0.6689
19669TIP3    H280423   6.248   6.205   1.449  0.9041 -0.3949  0.1730
19670TIP3   OH280424   5.733   3.997  15.112  0.0672  0.2761  0.2949
19670TIP3    H180425   5.709   3.905  15.100 -0.1715  0.4812 -0.8968
19670TIP3    H280426   5.680   4.026  15.186 -0.9208 -0.1764 -0.2185
19671TIP3   OH280427   3.980   2.748  10.951  0.0166 -0.1366  0.1726
19671TIP3    H180428   3.943   2.716  10.869 -0.9626 -1.8716  1.2440
19671TIP3    H280429   4.075   2.740  10.938 -0.1488 -2.1699 -0.1684
19672TIP3   OH280430   0.342   2.443  10.575  0.7049 -0.0171  0.3990
19672TIP3    H180431   0.379   2.531  10.573 -0.9161  0.7008  0.2016
19672TIP3    H280432   0.247   2.456  10.573  0.4160 -1.7932 -0.9750
19673TIP3   OH280433   5.157   4.861   2.214  0.2225  0.1563 -0.1092
19673TIP3    H180434   5.104   4.784   2.232  1.0527  0.0294  2.2117
19673TIP3    H280435   5.209   4.873   2.294  2.2009  1.4455 -1.4890
19674TIP3   OH280436   0.238   5.269   0.582 -0.5418  0.3213  0.4528
19674TIP3    H180437   0.193   5.192   0.615 -1.8972  0.6047 -0.6672
19674TIP3    H280438   0.208   5.278   0.491  1.2478  0.9327 -0.1193
19675TIP3   OH280439   1.271   6.270   6.362  0.3020  0.6147 -0.4082
19675TIP3    H180440   1.244   6.193   6.412  0.3892 -0.0507 -1.3590
19675TIP3    H280441   1.304   6.331   6.428  1.5224 -0.6992  0.2390
19676TIP3   OH280442   5.837   2.301  15.515  0.0867 -0.1769 -0.2733
19676TIP3    H180443   5.919   2.318  15.469  0.3152  0.3577  0.3332
19676TIP3    H280444   5.863   2.256  15.595 -0.1524  0.5657  0.2323
19677TIP3   OH280445   6.531   5.756   2.434  0.9827 -0.2673 -0.0929
19677TIP3    H180446   6.504   5.797   2.352 -0.3430 -1.7766 -0.4472
19677TIP3    H280447   6.534   5.829   2.497  0.3377  0.6423 -1.0805
19678TIP3   OH280448   3.833   3.827  13.443  1.0296 -0.0247 -0.0528
19678TIP3    H180449   3.792   3.873  13.370  0.2396 -1.9519 -0.8842
19678TIP3    H280450   3.914   3.876  13.460  0.2899  1.5709 -0.9319
19679TIP3   OH280451   2.034   5.998  13.478  0.2263  0.0685 -0.1356
19679TIP3    H180452   2.127   5.992  13.453  0.0500  0.4344 -0.9107
19679TIP3    H280453   1.994   5.921  13.438  0.3684 -0.6243  1.0312
19680TIP3   OH280454   5.257   1.559  12.775  0.2670 -0.1230 -0.0696
19680TIP3    H180455   5.207   1.478  12.782 -0.8657  0.3876 -1.7565
19680TIP3    H280456   5.281   1.564  12.682  1.5890  0.7594  0.2929
19681TIP3   OH280457   0.154   1.803   0.767 -0.3755  0.4148 -0.3989
19681TIP3    H180458   0.192   1.886   0.796  0.4187  0.5632 -1.7902
19681TIP3    H280459   0.063   1.824   0.747  0.0245  1.1757 -1.5260
19682TIP3   OH280460   1.305   5.103   6.056  0.4310 -0.0312  0.1080
19682TIP3    H180461   1.330   5.187   6.017  3.3324 -0.5659  0.5167
19682TIP3    H280462   1.273   5.050   5.983 -0.8243  1.1901 -0.2576
19683TIP3   OH280463   4.609   4.131   5.273 -0.0856  0.2624  0.2187
19683TIP3    H180464   4.593   4.086   5.356  2.1790  1.6910  1.5490
19683TIP3    H280465   4.677   4.078   5.231  1.1905  1.2908  0.9004
19684TIP3   OH280466   3.889   2.073   0.324  0.1222 -0.3362 -0.0194
19684TIP3    H180467   3.918   2.037   0.240  0.0534 -0.9931  0.2329
19684TIP3    H280468   3.959   2.050   0.385 -0.0444 -0.2634  0.1980
19685TIP3   OH280469   4.237   1.801   3.945 -0.4749 -0.0598  0.2207
19685TIP3    H180470   4.293   1.839   4.013 -1.7214  1.5823  0.3740
19685TIP3    H280471   4.209   1.875   3.892 -2.5230 -0.7962  0.1756
19686TIP3   OH280472   2.098   3.393  11.615 -0.3875 -0.5381 -0.1397
19686TIP3    H180473   2.169   3.357  11.668 -1.0534 -0.1136  1.0780
19686TIP3    H280474   2.101   3.343  11.534  0.8899 -0.9640  0.1455
19687TIP3   OH280475   2.037   5.797   0.148 -0.4864 -0.6760  0.6307
19687TIP3    H180476   2.045   5.716   0.098 -2.1202 -0.0748 -0.6888
19687TIP3    H280477   2.113   5.849   0.121 -1.3071 -0.3865 -1.2549
19688TIP3   OH280478   3.963   3.437  17.078 -1.1203  0.1297 -0.0488
19688TIP3    H180479   4.054   3.457  17.053 -1.2456  1.7757  0.7084
19688TIP3    H280480   3.949   3.347  17.046  1.3422 -0.8504  1.3714
19689TIP3   OH280481   3.297   1.953   1.152  1.1858 -0.2562  0.4241
19689TIP3    H180482   3.342   1.897   1.089  0.7282 -1.3550  1.0438
19689TIP3    H280483   3.266   1.893   1.220 -0.8758  0.4896  0.2138
19690TIP3   OH280484   5.619   3.942   1.052  0.4076 -0.1866  0.1679
19690TIP3    H180485   5.574   4.025   1.037  1.9374  1.2599  2.8089
19690TIP3    H280486   5.669   3.928   0.971 -1.2034  0.5230 -1.0098
19691TIP3   OH280487   2.396   2.912  14.159  0.0644  0.1872 -0.1326
19691TIP3    H180488   2.453   2.987  14.144 -0.1501  0.5578  0.8439
19691TIP3    H280489   2.314   2.935  14.116  0.3103  0.0717 -0.6854
19692TIP3   OH280490   1.353   1.843  15.530 -0.5921  0.1128 -0.2998
19692TIP3    H180491   1.297   1.890  15.592 -0.6222  0.3497 -0.5056
19692TIP3    H280492   1.362   1.903  15.456 -0.1926  0.0155 -0.3320
19693TIP3   OH280493   6.151   3.554  11.931  0.0725  0.3918  0.4105
19693TIP3    H180494   6.133   3.568  12.024  0.1383 -0.1167  0.4987
19693TIP3    H280495   6.069   3.577  11.887 -0.8945 -1.9827  0.8162
19694TIP3   OH280496   5.375   2.214   4.527 -0.2775  0.2982 -0.1626
19694TIP3    H180497   5.313   2.203   4.599  1.3391  0.2555  1.2809
19694TIP3    H280498   5.443   2.271   4.562 -0.0391  1.2605 -2.0700
19695TIP3   OH280499   6.099   6.597   1.494 -0.1271 -0.3950 -0.3301
19695TIP3    H180500   6.075   6.640   1.412 -1.8349 -2.4606 -0.9952
19695TIP3    H280501   6.067   6.655   1.563 -0.1688  0.5489 -1.1342
19696TIP3   OH280502   6.646   1.979   1.862  0.2956 -0.3458 -0.4605
19696TIP3    H180503   6.625   2.016   1.948  0.5689 -0.3185 -0.4059
19696TIP3    H280504   6.584   1.907   1.852  0.5318 -0.6061 -0.0645
19697TIP3   OH280505   4.843   5.045  14.968 -0.2631  0.1254  0.0214
19697TIP3    H180506   4.868   4.955  14.987 -0.1427  0.5244  1.9740
19697TIP3    H280507   4.761   5.058  15.016 -0.6008  0.8833 -0.7344
19698TIP3   OH280508   5.458   3.374   5.359  0.0099  0.3341 -0.1806
19698TIP3    H180509   5.386   3.408   5.306 -0.0604  0.7458  0.1692
19698TIP3    H280510   5.524   3.347   5.296 -0.1277  0.6881 -0.4839
19699TIP3   OH280511   6.211   1.436  16.570 -0.5384 -0.1598  0.2258
19699TIP3    H180512   6.216   1.532  16.571  0.1993 -0.1901  0.1103
19699TIP3    H280513   6.185   1.415  16.480 -0.2266 -0.0856  0.1178
19700TIP3   OH280514   6.333   6.497  16.348 -0.4894 -0.6966 -0.0029
19700TIP3    H180515   6.277   6.444  16.292 -0.6718 -0.5422  0.0343
19700TIP3    H280516   6.421   6.488  16.310 -0.4759 -1.2110  0.1355
19701TIP3   OH280517   3.849   5.543  11.540  0.2885  0.2520 -0.4615
19701TIP3    H180518   3.779   5.488  11.575 -0.6712  1.2503 -0.7568
19701TIP3    H280519   3.825   5.632  11.567  0.8817  0.7266 -1.4536
19702TIP3   OH280520   5.048   5.707  13.498  0.2164 -0.6662  0.8220
19702TIP3    H180521   4.974   5.649  13.516  0.6744 -1.6070 -0.2160
19702TIP3    H280522   5.095   5.665  13.426  0.7586  0.8153  0.2576
19703TIP3   OH280523   6.615   4.244  14.280 -0.6117  0.2270 -0.1811
19703TIP3    H180524   6.615   4.157  14.240 -0.1146  0.0793  0.1341
19703TIP3    H280525   6.645   4.302  14.210  0.3117 -0.0388 -0.0141
19704TIP3   OH280526   6.445   3.886   6.119 -0.5076 -0.2214 -0.0026
19704TIP3    H180527   6.426   3.948   6.049 -0.7800  1.7363  1.7094
19704TIP3    H280528   6.365   3.835   6.129 -0.9666  0.4469 -0.2001
19705TIP3   OH280529   0.678   4.185   3.306  0.6582 -0.1983 -0.1299
19705TIP3    H180530   0.730   4.242   3.250  2.0283 -0.5249  0.7411
19705TIP3    H280531   0.717   4.098   3.293 -0.4360 -0.6662 -0.3300
19706TIP3   OH280532   2.571   4.864   0.051 -0.3326 -0.1137 -0.4041
19706TIP3    H180533   2.617   4.946   0.030 -0.2945 -0.1640 -0.5240
19706TIP3    H280534   2.626   4.823   0.118  0.2260 -0.5440 -1.1046
19707TIP3   OH280535   3.192   3.755  13.028 -0.3223 -0.0593 -0.6344
19707TIP3    H180536   3.121   3.782  13.086  1.3900 -1.9129  2.6199
19707TIP3    H280537   3.153   3.691  12.969 -2.1790  2.0440 -1.8095
19708TIP3   OH280538   5.863   4.531   3.146 -0.1956 -0.1938 -0.1998
19708TIP3    H180539   5.853   4.609   3.200 -0.5774 -0.3190 -0.0855
19708TIP3    H280540   5.811   4.464   3.191 -2.3990  0.2732 -1.8840
19709TIP3   OH280541   0.986   2.785   2.555 -0.0864  0.6624 -0.2260
19709TIP3    H180542   0.899   2.752   2.531 -0.5599 -1.2465  3.4680
19709TIP3    H280543   1.041   2.708   2.563  1.4935  1.6845 -0.7432
19710TIP3   OH280544   0.966   0.472   4.419  0.2390  0.0686  0.1257
19710TIP3    H180545   0.941   0.507   4.334  0.3912 -1.2025 -0.4788
19710TIP3    H280546   0.891   0.488   4.476 -1.6020 -2.5680 -1.3214
19711TIP3   OH280547   1.491   1.350  15.175  0.0062  0.2859 -0.0998
19711TIP3    H180548   1.585   1.348  15.194  0.0314  1.0967 -0.1062
19711TIP3    H280549   1.483   1.414  15.104 -0.6881  1.1194  0.7203
19712TIP3   OH280550   1.762   1.587  15.585 -0.1818  1.0129 -0.7818
19712TIP3    H180551   1.824   1.574  15.657 -1.7756 -2.0433  0.2429
19712TIP3    H280552   1.722   1.673  15.604  1.0690  1.3233  0.6635
19713TIP3   OH280553   3.173   6.712   5.907  0.0464  0.1109  0.7125
19713TIP3    H180554   3.173   6.670   5.993  1.5746 -1.8414 -0.1833
19713TIP3    H280555   3.255   6.760   5.904 -0.1436  0.4205  0.4422
19714TIP3   OH280556   0.677   5.978  11.707  1.0101 -0.5849  0.1574
19714TIP3    H180557   0.584   5.978  11.684  0.9416  0.2681  0.3860
19714TIP3    H280558   0.686   5.910  11.774  0.1644  0.6071  1.5503
19715TIP3   OH280559   2.102   1.910   3.031 -0.2691  0.2714  0.3372
19715TIP3    H180560   2.074   1.821   3.056 -1.2335  0.6785  0.7562
19715TIP3    H280561   2.102   1.959   3.113 -0.6196  0.8833 -0.0203
19716TIP3   OH280562   6.117   3.200  11.107  0.1326 -0.1583 -0.2095
19716TIP3    H180563   6.084   3.128  11.053  0.3724 -0.1606 -0.3517
19716TIP3    H280564   6.087   3.279  11.063 -1.3004 -0.1719  0.6684
19717TIP3   OH280565   1.782   3.126   2.285  0.4886 -0.1274 -0.0120
19717TIP3    H180566   1.843   3.088   2.348  0.6133 -0.4521 -0.3223
19717TIP3    H280567   1.695   3.099   2.316  0.1915  2.9458  2.2405
19718TIP3   OH280568   4.278   0.654   1.287  0.2659  0.1548  0.1846
19718TIP3    H180569   4.278   0.747   1.265  0.9717 -0.0028 -0.5136
19718TIP3    H280570   4.366   0.638   1.321  1.0406 -0.7782 -2.0698
19719TIP3   OH280571   4.963   2.942  15.127  0.2355 -0.0914  0.2062
19719TIP3    H180572   5.007   2.992  15.195  0.8384 -1.3648  0.7969
19719TIP3    H280573   4.873   2.932  15.158  0.4446 -0.4521  0.7051
19720TIP3   OH280574   0.619   2.565   0.001  0.5761  1.1539  0.4448
19720TIP3    H180575   0.663   2.627  -0.057 -1.1728  2.7726  0.7282
19720TIP3    H280576   0.683   2.545   0.068  1.8160  1.1637 -0.6938
19721TIP3   OH280577   5.177   3.434   3.798 -0.7382 -0.1819  0.5451
19721TIP3    H180578   5.258   3.393   3.828 -0.5392  0.2405  0.5887
19721TIP3    H280579   5.200   3.473   3.714 -0.1921  2.1210  1.6885
19722TIP3   OH280580   1.161   1.904   1.088  0.0190 -0.1271 -0.1998
19722TIP3    H180581   1.076   1.919   1.047 -1.0938 -1.6563  1.3992
19722TIP3    H280582   1.144   1.840   1.157  2.2524  0.4261  0.9764
19723TIP3   OH280583   4.483   5.587  13.147 -0.2021 -0.6697  0.2808
19723TIP3    H180584   4.494   5.665  13.093  1.7485 -1.3954 -0.4363
19723TIP3    H280585   4.430   5.617  13.221  1.6500  1.7125  0.7736
19724TIP3   OH280586   4.556   4.644  17.087  0.3510 -0.4565 -0.1183
19724TIP3    H180587   4.589   4.733  17.106 -1.6559  0.3857 -0.3386
19724TIP3    H280588   4.482   4.634  17.146  1.9655 -3.0150  1.6820
19725TIP3   OH280589   5.397   1.815   5.641 -0.0920  0.5606  0.3671
19725TIP3    H180590   5.402   1.822   5.546  2.9596  0.0368  0.3933
19725TIP3    H280591   5.366   1.725   5.657 -0.4073  0.5832 -0.0945
19726TIP3   OH280592   2.432   6.541  13.052 -0.1537 -0.3008 -0.5918
19726TIP3    H180593   2.347   6.576  13.023 -1.3701 -1.6739  1.0531
19726TIP3    H280594   2.497   6.601  13.015 -1.8562  0.9639 -1.6869
19727TIP3   OH280595   5.744   2.830  14.526  0.5158 -0.2602  0.1225
19727TIP3    H180596   5.805   2.757  14.519 -0.4475 -1.0547 -0.1116
19727TIP3    H280597   5.799   2.905  14.549  1.6748 -0.7876 -0.8624
19728TIP3   OH280598   6.087   0.818   4.172  0.4111  0.5293 -0.2124
19728TIP3    H180599   6.050   0.902   4.201 -0.8026 -0.6333  1.8138
19728TIP3    H280600   6.085   0.824   4.076 -1.2676  2.1447 -0.1563
19729TIP3   OH280601   3.323   5.915   3.180  0.3106 -0.4168 -0.5343
19729TIP3    H180602   3.284   5.930   3.266  0.1314  0.4674 -0.7554
19729TIP3    H280603   3.297   5.826   3.156  0.7766 -0.8542  0.5313
19730TIP3   OH280604   4.919   0.895   4.453  0.1776  0.0534 -0.9593
19730TIP3    H180605   4.891   0.970   4.507 -2.9156 -0.5220 -1.5634
19730TIP3    H280606   4.924   0.930   4.364 -1.6554 -0.4664 -1.3039
19731TIP3   OH280607   2.154   2.782  10.967  0.3369  0.3572 -0.4921
19731TIP3    H180608   2.224   2.794  11.032 -1.2544  1.7181  1.0549
19731TIP3    H280609   2.103   2.862  10.972 -1.8743 -0.9521 -0.9287
19732TIP3   OH280610   5.255   3.803  13.685 -0.8525 -0.0214  0.2932
19732TIP3    H180611   5.261   3.768  13.774  0.8920 -0.5630 -0.0051
19732TIP3    H280612   5.260   3.725  13.629  0.4818  0.4811 -0.3217
19733TIP3   OH280613   3.713   4.430   2.143 -0.2644  0.2159 -0.2078
19733TIP3    H180614   3.652   4.355   2.142 -0.4337  0.3500 -0.0418
19733TIP3    H280615   3.761   4.421   2.225 -0.9871  0.8456  0.3019
19734TIP3   OH280616   3.476   4.547  15.680 -0.0796 -0.4872  0.3843
19734TIP3    H180617   3.511   4.495  15.753 -1.1296 -1.2885  0.3437
19734TIP3    H280618   3.547   4.606  15.655 -0.0783  0.7358  2.9102
19735TIP3   OH280619   2.233   3.655   1.732  0.1204  0.3304 -0.5464
19735TIP3    H180620   2.261   3.573   1.692  0.8322  0.0529  0.4657
19735TIP3    H280621   2.304   3.677   1.793  0.7139  2.5262 -1.9133
19736TIP3   OH280622   1.639   5.768   4.577 -0.0140 -0.2007 -0.4593
19736TIP3    H180623   1.688   5.710   4.635  1.4362  1.4855  0.0746
19736TIP3    H280624   1.584   5.820   4.636  0.9395  1.0332 -0.6413
19737TIP3   OH280625   2.574   3.123  16.049 -0.0738 -0.0247  0.4704
19737TIP3    H180626   2.563   3.028  16.039 -0.4538 -0.0228  0.8583
19737TIP3    H280627   2.578   3.137  16.143 -1.8134  0.5307  0.5053
19738TIP3   OH280628   2.731   3.723  16.078  0.1919 -0.1634 -0.2135
19738TIP3    H180629   2.775   3.805  16.056 -0.9850  0.6627  0.3855
19738TIP3    H280630   2.760   3.703  16.167  1.1549 -0.8768 -0.6789
19739TIP3   OH280631   4.781   3.845  11.386  0.1700  0.3755  0.2254
19739TIP3    H180632   4.828   3.782  11.331 -1.1055 -0.7143  0.3147
19739TIP3    H280633   4.764   3.920  11.328  1.2599  0.4306 -0.0354
19740TIP3   OH280634   6.636   0.837   4.193 -0.3298 -0.2664 -0.7539
19740TIP3    H180635   6.571   0.898   4.158  1.0249  1.4512 -0.3903
19740TIP3    H280636   6.694   0.891   4.246 -0.0565 -2.1754  1.0135
19741TIP3   OH280637   0.528   1.036  16.094 -0.1372  0.5609 -0.2858
19741TIP3    H180638   0.536   1.128  16.118  0.0057  0.7296 -0.9390
19741TIP3    H280639   0.619   1.006  16.084 -0.1839  0.3627 -0.1213
19742TIP3   OH280640   6.252   2.485   4.015  0.7262 -0.0349  0.0978
19742TIP3    H180641   6.265   2.392   4.037  0.0350  0.1244  1.2507
19742TIP3    H280642   6.158   2.493   4.001  0.3138  1.0583  2.9649
19743TIP3   OH280643   6.626   4.531   6.119  0.8237  0.0511  0.4578
19743TIP3    H180644   6.642   4.456   6.063  0.4880  0.0489  0.3600
19743TIP3    H280645   6.711   4.574   6.129  0.8978  0.0030  0.0183
19744TIP3   OH280646   5.255   2.610   4.896  0.3380  0.6377 -0.1422
19744TIP3    H180647   5.335   2.615   4.948  1.5116  0.1792 -1.8187
19744TIP3    H280648   5.240   2.700   4.867 -0.8342  1.0694  1.6383
19745TIP3   OH280649   2.095   3.672   4.364  0.3176  0.3704  0.1529
19745TIP3    H180650   2.000   3.682   4.358  0.3763  1.6004  1.0243
19745TIP3    H280651   2.108   3.577   4.371 -0.9396  0.2561  1.3338
19746TIP3   OH280652   5.986   0.165   0.743 -0.4889  0.4182 -0.3949
19746TIP3    H180653   6.071   0.130   0.770  0.1960  2.2824  0.0140
19746TIP3    H280654   6.002   0.202   0.656 -1.6567 -1.8122 -1.6470
19747TIP3   OH280655   2.049   3.491   3.781  0.1607 -0.0826  0.1842
19747TIP3    H180656   2.102   3.567   3.807 -2.1799  1.5484  0.4725
19747TIP3    H280657   1.990   3.476   3.854  0.3886 -2.0839  0.0150
19748TIP3   OH280658   6.178   6.655   5.739  0.0609  0.0077  0.2505
19748TIP3    H180659   6.206   6.641   5.829  1.4762 -0.2147 -0.1967
19748TIP3    H280660   6.247   6.615   5.686  0.3699  2.0255 -0.9631
19749TIP3   OH280661   5.882   1.426  15.354 -0.4694  0.2106  0.4379
19749TIP3    H180662   5.858   1.339  15.384 -0.0293 -0.7210 -1.7335
19749TIP3    H280663   5.960   1.413  15.300 -0.8162  1.8435 -0.5415
19750TIP3   OH280664   6.319   6.607  14.978 -0.4102 -0.3157  0.2220
19750TIP3    H180665   6.263   6.538  15.013 -1.8710  0.4337 -0.5558
19750TIP3    H280666   6.367   6.564  14.907  0.7790 -1.2112  1.5023
19751TIP3   OH280667   0.315   3.750   0.395  0.2434  0.0933  0.0566
19751TIP3    H180668   0.387   3.689   0.383  0.5418  0.5753 -0.5960
19751TIP3    H280669   0.305   3.755   0.491  0.3009 -0.8614  0.1283
19752TIP3   OH280670   5.314   0.196   6.096  0.0590 -0.2442  0.2803
19752TIP3    H180671   5.310   0.105   6.126  1.3081 -0.6370 -0.6385
19752TIP3    H280672   5.232   0.235   6.127  0.3396 -1.1506  2.3397
19753TIP3   OH280673   0.250   3.671   0.116  0.6138 -0.0251 -0.5509
19753TIP3    H180674   0.295   3.726   0.180 -0.9810  0.3327  0.3242
19753TIP3    H280675   0.306   3.594   0.107  0.6027 -0.3664  1.7479
19754TIP3   OH280676   4.027   0.398  16.384  0.4905 -0.1219 -0.3199
19754TIP3    H180677   3.962   0.328  16.390  1.0189 -0.7199 -1.2626
19754TIP3    H280678   4.111   0.354  16.399  0.9213  0.0950 -1.8578
19755TIP3   OH280679   0.087   6.625  11.340  0.0780  0.8430  0.2410
19755TIP3    H180680   0.092   6.715  11.309  0.8455 -0.0493 -2.4743
19755TIP3    H280681   0.024   6.582  11.282  0.6849 -0.6821  0.6427
19756TIP3   OH280682   6.706   4.268   0.386 -0.5574  0.0341 -0.2649
19756TIP3    H180683   6.704   4.195   0.325 -0.9928 -0.6518  0.5391
19756TIP3    H280684   6.730   4.228   0.470 -0.2506  0.9047  0.0726
19757TIP3   OH280685   6.659   2.750   0.781 -0.1908  0.0385  0.3533
19757TIP3    H180686   6.591   2.769   0.716 -0.1055  0.2602  0.3285
19757TIP3    H280687   6.710   2.678   0.742  0.5736  0.9373 -0.3594
19758TIP3   OH280688   0.566   3.508   1.637  0.0353  0.5007 -0.0186
19758TIP3    H180689   0.545   3.545   1.723  0.7117 -0.1335  0.4380
19758TIP3    H280690   0.509   3.555   1.576  0.9463  2.4036  0.5014
19759TIP3   OH280691   3.653   1.615  11.219  0.6680  0.6347  0.2527
19759TIP3    H180692   3.610   1.615  11.304 -0.5835 -0.9171 -0.3214
19759TIP3    H280693   3.680   1.524  11.206  3.1182  1.3353  0.0582
19760TIP3   OH280694   2.586   1.944  11.236 -0.0581  0.0476 -0.5220
19760TIP3    H180695   2.519   1.986  11.183  0.0019 -0.7398 -1.2500
19760TIP3    H280696   2.651   1.913  11.172  0.7734  0.3976  0.1327
19761TIP3   OH280697   5.376   2.561  12.783 -0.0906  0.8403 -0.2946
19761TIP3    H180698   5.388   2.540  12.876  0.0902  2.8416  0.1641
19761TIP3    H280699   5.455   2.527  12.741 -0.2704 -0.2795  0.2272
19762TIP3   OH280700   5.085   2.681   1.991 -0.3827 -0.3356  0.0914
19762TIP3    H180701   5.079   2.743   1.918 -0.2446  0.1301  0.4688
19762TIP3    H280702   5.165   2.631   1.974  1.2776  1.7183  1.3990
19763TIP3   OH280703   3.233   0.126   1.074  0.2272  0.8475  0.2289
19763TIP3    H180704   3.176   0.051   1.060  1.7361 -0.3139  0.0903
19763TIP3    H280705   3.190   0.176   1.144 -0.0623 -0.9371  1.3998
19764TIP3   OH280706   1.471   3.167  13.400 -0.4510 -0.0175 -0.1250
19764TIP3    H180707   1.475   3.073  13.419 -0.2492  0.4730  2.6209
19764TIP3    H280708   1.382   3.180  13.365 -0.5068 -1.1926 -0.4814
19765TIP3   OH280709   4.814   5.021  14.617  0.3822 -0.3190 -0.2558
19765TIP3    H180710   4.737   4.970  14.592 -0.2939 -0.2636  1.5630
19765TIP3    H280711   4.812   5.022  14.713  0.8261  2.4054 -0.1808
19766TIP3   OH280712   3.133   2.968  15.130 -0.2934 -0.0834  0.4195
19766TIP3    H180713   3.051   2.998  15.168  0.1912  0.3708  1.1322
19766TIP3    H280714   3.141   3.018  15.048 -0.5761  0.0897  0.4948
19767TIP3   OH280715   0.869   2.314   1.290 -0.2599 -0.3827  0.2612
19767TIP3    H180716   0.872   2.275   1.378 -1.2887  0.3672  0.6569
19767TIP3    H280717   0.785   2.284   1.254 -0.9369  1.1529  0.4555
19768TIP3   OH280718   1.045   0.658   0.221 -0.0949  0.7434  0.2458
19768TIP3    H180719   0.999   0.633   0.141  0.7669  1.6297 -0.5401
19768TIP3    H280720   0.985   0.633   0.292 -0.7232 -0.3534 -0.6498
19769TIP3   OH280721   2.771   2.243  14.591 -0.3033  0.4251  0.3089
19769TIP3    H180722   2.773   2.224  14.685 -0.5997  1.3157  0.5100
19769TIP3    H280723   2.679   2.258  14.572 -0.5761 -2.0762 -0.6452
19770TIP3   OH280724   6.242   0.960  12.006 -0.1008 -0.4758  0.8785
19770TIP3    H180725   6.247   0.975  11.912 -1.8307  1.0018  0.9622
19770TIP3    H280726   6.185   0.884  12.015  0.8042 -1.1896  0.7346
19771TIP3   OH280727   4.021   4.670   2.344  0.2753 -0.5694 -0.1222
19771TIP3    H180728   4.098   4.721   2.371 -0.8487  0.8380  0.5586
19771TIP3    H280729   4.025   4.591   2.397  0.7823 -0.1046  0.5555
19772TIP3   OH280730   0.289   1.577   0.690 -0.0912 -0.7471  0.0798
19772TIP3    H180731   0.252   1.490   0.671  0.0493 -0.8368  0.2141
19772TIP3    H280732   0.215   1.627   0.724 -0.6185 -0.2509 -1.6604
19773TIP3   OH280733   4.911   5.748   0.200 -0.1571 -0.3188 -0.1723
19773TIP3    H180734   4.906   5.721   0.291  0.8284 -1.1920 -0.3702
19773TIP3    H280735   4.952   5.675   0.155  0.5827  0.6313 -1.0901
19774TIP3   OH280736   0.895   6.681   4.829  0.6369  0.0323  0.2005
19774TIP3    H180737   0.818   6.734   4.810  0.1934 -1.4186 -2.3964
19774TIP3    H280738   0.959   6.706   4.762  1.6937 -0.2638  1.0602
19775TIP3   OH280739   3.259   4.201   0.463 -0.0067  0.4444 -0.5370
19775TIP3    H180740   3.191   4.134   0.465 -0.5280  0.9802 -0.0354
19775TIP3    H280741   3.236   4.261   0.533  0.8458  0.7783 -0.5249
19776TIP3   OH280742   5.074   4.950   0.384  0.3559  0.2463  0.5512
19776TIP3    H180743   5.049   4.885   0.449  0.5660  0.0934  0.4795
19776TIP3    H280744   4.998   5.007   0.376  0.0704 -0.1515  0.4163
19777TIP3   OH280745   0.524   4.739   0.518 -0.2286  0.3419 -0.1546
19777TIP3    H180746   0.585   4.718   0.588 -0.1975 -1.2390 -0.6041
19777TIP3    H280747   0.443   4.763   0.562 -0.1344 -0.3897  0.4427
19778TIP3   OH280748   4.379   3.392  13.185 -0.5311  0.8281 -0.0035
19778TIP3    H180749   4.434   3.465  13.215  0.1486 -0.2503  1.4825
19778TIP3    H280750   4.431   3.314  13.204 -1.6916 -0.1162 -0.5956
19779TIP3   OH280751   1.034   4.549   2.439 -0.2509  0.2231 -0.6209
19779TIP3    H180752   1.025   4.519   2.530 -1.9850 -0.5378 -1.0048
19779TIP3    H280753   0.946   4.538   2.402  0.1366  1.6687 -2.0532
19780TIP3   OH280754   4.391   4.647  14.695  0.4262 -0.1268  0.6269
19780TIP3    H180755   4.351   4.635  14.609 -1.1301  0.0907  1.2894
19780TIP3    H280756   4.460   4.712  14.681  0.2456 -0.1587 -0.4611
19781TIP3   OH280757   1.682   0.286  11.189  0.2012  0.0440  0.5176
19781TIP3    H180758   1.600   0.320  11.224 -0.1221  1.2701 -1.2734
19781TIP3    H280759   1.746   0.356  11.206  1.1294 -1.2049  2.5838
19782TIP3   OH280760   3.106   2.329   5.389 -0.8102  0.5408  0.2574
19782TIP3    H180761   3.175   2.266   5.410  1.0922  1.3523 -2.8709
19782TIP3    H280762   3.063   2.292   5.311 -1.3937  1.8330 -0.0561
19783TIP3   OH280763   5.664   1.386   4.373 -0.2958  0.3934  0.2466
19783TIP3    H180764   5.704   1.448   4.434  1.6844  0.0039 -0.5815
19783TIP3    H280765   5.588   1.433   4.338  1.0156  2.3147 -0.1943
19784TIP3   OH280766   2.228   4.625   3.897  0.2136 -0.4985  0.1603
19784TIP3    H180767   2.286   4.640   3.823  0.7622  1.5614  0.9532
19784TIP3    H280768   2.285   4.631   3.974 -0.3470 -2.5479  0.8014
19785TIP3   OH280769   1.457   2.112   4.016 -0.0540 -0.7523  0.3629
19785TIP3    H180770   1.523   2.074   4.075  0.6711 -0.8714 -0.5039
19785TIP3    H280771   1.457   2.205   4.036  1.3307 -0.5384 -0.5052
19786TIP3   OH280772   2.320   3.503  16.737 -0.0550  0.2319  0.3806
19786TIP3    H180773   2.374   3.556  16.679  0.5589 -1.5256 -0.7529
19786TIP3    H280774   2.371   3.423  16.751 -2.3801 -1.6227 -0.9388
19787TIP3   OH280775   2.213   1.927   5.644  0.0612 -0.5524 -0.5492
19787TIP3    H180776   2.216   1.964   5.556  0.3571  0.3902 -0.1484
19787TIP3    H280777   2.216   2.003   5.702 -2.1420 -1.0207  0.2689
19788TIP3   OH280778   5.575   3.702  10.937  0.0157 -0.2401 -0.1734
19788TIP3    H180779   5.664   3.703  10.901  0.6763 -0.0302  1.4019
19788TIP3    H280780   5.550   3.610  10.936 -0.4310 -0.1339 -2.1786
19789TIP3   OH280781   4.468   4.294  13.144  0.3130 -0.1695  0.6913
19789TIP3    H180782   4.503   4.349  13.074  2.4744  1.5504  2.9399
19789TIP3    H280783   4.378   4.325  13.155 -0.2791 -0.8511 -1.5671
19790TIP3   OH280784   1.163   0.930  16.959  0.3158 -0.1614 -0.5315
19790TIP3    H180785   1.195   0.998  16.900 -0.9652 -0.8660 -2.1258
19790TIP3    H280786   1.184   0.848  16.914 -1.9327 -0.6904 -0.7497
19791TIP3   OH280787   1.554   0.039  13.856 -0.3421  0.4672 -0.5270
19791TIP3    H180788   1.589   0.128  13.851  0.0569  0.2872 -0.9475
19791TIP3    H280789   1.520   0.021  13.769 -0.9911  0.4314 -0.2742
19792TIP3   OH280790   6.314   3.735   2.669 -0.3615 -0.5245  0.4418
19792TIP3    H180791   6.403   3.749   2.637 -0.2474  0.9855  1.3451
19792TIP3    H280792   6.325   3.680   2.747 -0.2466 -0.5885  0.3808
19793TIP3   OH280793   5.463   5.145  16.149 -0.3539 -0.2316 -0.1856
19793TIP3    H180794   5.454   5.050  16.146 -1.0802 -0.2359  1.2450
19793TIP3    H280795   5.490   5.165  16.238 -0.2315  0.9150 -0.4516
19794TIP3   OH280796   6.549   5.338  17.324 -0.1859  0.0169 -0.2654
19794TIP3    H180797   6.562   5.424  17.285 -0.7053  0.4533  0.5057
19794TIP3    H280798   6.596   5.278  17.266  0.6940  0.8861 -0.4706
19795TIP3   OH280799   2.861   6.710   1.581 -0.2538  0.2951  0.2923
19795TIP3    H180800   2.767   6.703   1.564 -0.1808 -0.2163  0.0644
19795TIP3    H280801   2.890   6.619   1.591  0.0079  0.5000  1.5286
19796TIP3   OH280802   0.542   3.562  11.474  0.0169 -0.1960  0.1317
19796TIP3    H180803   0.632   3.591  11.454 -0.5052  0.9459 -0.7309
19796TIP3    H280804   0.541   3.469  11.452  0.6894  0.0450 -1.0096
19797TIP3   OH280805   1.037   4.534   1.918 -0.1916 -0.3926 -0.0115
19797TIP3    H180806   1.099   4.516   1.848  0.3669  0.0090  0.3632
19797TIP3    H280807   1.088   4.584   1.982 -1.4331  1.7808 -0.6290
19798TIP3   OH280808   1.845   6.633  16.833 -0.2421  0.0448  0.2081
19798TIP3    H180809   1.775   6.664  16.892 -0.4943 -0.4343  0.1668
19798TIP3    H280810   1.882   6.713  16.796  0.8163  0.4606  2.0157
19799TIP3   OH280811   6.196   0.165  17.042  0.5016 -0.7692 -0.1932
19799TIP3    H180812   6.152   0.249  17.048  0.9201 -0.5493 -0.1078
19799TIP3    H280813   6.287   0.184  17.066  0.9760 -0.9310 -1.7486
19800TIP3   OH280814   2.902   1.137  17.062  0.1672  0.3785 -0.6002
19800TIP3    H180815   2.831   1.150  17.000  1.5343 -0.7353 -2.5026
19800TIP3    H280816   2.937   1.050  17.041  1.4557  0.4615  0.9537
19801TIP3   OH280817   5.023   5.292   6.455 -0.2985 -0.1313  0.1871
19801TIP3    H180818   5.046   5.204   6.486  2.4538  0.3050 -0.3950
19801TIP3    H280819   5.084   5.350   6.500 -0.8258  1.2810 -0.8566
19802TIP3   OH280820   5.376   1.044  13.896  0.0808 -0.2136  0.3535
19802TIP3    H180821   5.395   1.053  13.802  2.1832 -0.4457  0.7302
19802TIP3    H280822   5.315   1.116  13.914 -0.9358 -0.5869 -1.3069
19803TIP3   OH280823   4.566   4.938   5.977  0.3906  0.2403 -0.5732
19803TIP3    H180824   4.511   5.014   5.961  1.0685  0.8963  0.1272
19803TIP3    H280825   4.506   4.871   6.012 -0.1916  0.4735 -1.1185
19804TIP3   OH280826   2.672   0.764  16.779  0.2123 -0.2790  0.5745
19804TIP3    H180827   2.617   0.692  16.811 -1.2970 -0.1688 -1.6088
19804TIP3    H280828   2.611   0.837  16.768  0.3926 -0.5382 -3.1925
19805TIP3   OH280829   3.292   2.845   2.092  0.0089  0.3952  0.1040
19805TIP3    H180830   3.348   2.856   2.169 -0.4237 -0.0838  0.4999
19805TIP3    H280831   3.349   2.862   2.018  1.1010 -1.5009  0.4325
19806TIP3   OH280832   5.999   2.371  14.201 -0.4607  0.3968 -0.3412
19806TIP3    H180833   6.017   2.291  14.150 -0.2373 -0.1844  0.6349
19806TIP3    H280834   5.918   2.406  14.162 -0.3436 -0.0772 -1.0417
19807TIP3   OH280835   1.348   0.000  13.329 -0.1690  0.1038 -0.2359
19807TIP3    H180836   1.417   0.034  13.271  0.8843 -1.2876  0.1589
19807TIP3    H280837   1.295  -0.056  13.272  1.0329 -1.4907  0.1429
19808TIP3   OH280838   3.136   6.252  17.220  0.0994 -0.2575 -0.4529
19808TIP3    H180839   3.054   6.300  17.206  0.1461 -0.0461 -0.0273
19808TIP3    H280840   3.122   6.167  17.179 -0.7851 -0.6808  0.6621
19809TIP3   OH280841   5.510   1.948  15.548 -0.5452  0.8632  0.1694
19809TIP3    H180842   5.518   1.911  15.636 -0.7100  1.3706  0.4048
19809TIP3    H280843   5.504   1.872  15.490 -0.7690  0.5264  0.6277
19810TIP3   OH280844   5.986   4.260  15.362  0.7515  0.5370  0.2665
19810TIP3    H180845   6.049   4.230  15.428 -0.1072 -0.2586  0.7466
19810TIP3    H280846   5.908   4.207  15.378  0.3067  0.7907 -0.9762
19811TIP3   OH280847   4.512   1.191  17.181  0.2874 -1.0278  0.0691
19811TIP3    H180848   4.506   1.203  17.276 -1.5629 -1.8651  0.1058
19811TIP3    H280849   4.534   1.099  17.170 -2.0408 -1.6106 -0.2760
19812TIP3   OH280850   5.883   1.744  16.310 -0.0727 -0.0467 -0.2487
19812TIP3    H180851   5.976   1.738  16.330  0.1913 -2.2929 -1.8293
19812TIP3    H280852   5.840   1.714  16.390  0.7732 -3.2186 -0.8397
19813TIP3   OH280853   0.046   4.835   1.076 -0.6282 -0.0056  0.2373
19813TIP3    H180854   0.127   4.820   1.126 -0.8454  0.7898  0.8552
19813TIP3    H280855  -0.024   4.805   1.134 -0.7304 -2.3090 -0.9562
19814TIP3   OH280856   3.915   4.716  13.039  0.4901 -0.2009 -0.8191
19814TIP3    H180857   4.002   4.753  13.026  1.6703 -0.7758  3.7031
19814TIP3    H280858   3.856   4.792  13.036  1.2035  0.3507 -2.6810
19815TIP3   OH280859   1.845   3.725   5.229  0.4882 -0.7270  0.2800
19815TIP3    H180860   1.844   3.659   5.160 -0.7740  0.9295 -1.3969
19815TIP3    H280861   1.896   3.797   5.193  0.8824 -0.3249  1.6032
19816TIP3   OH280862   3.238   6.079   5.531  0.1837 -0.5190  0.2373
19816TIP3    H180863   3.231   5.993   5.488  0.2915  0.3888 -1.6984
19816TIP3    H280864   3.287   6.061   5.611 -0.1787 -2.3414  0.1073
19817TIP3   OH280865   6.340   1.001   4.322  0.1273 -0.0906  0.1212
19817TIP3    H180866   6.255   1.031   4.289 -0.2555 -1.8592 -0.6280
19817TIP3    H280867   6.319   0.928   4.381  1.0841 -0.0893  0.4840
19818TIP3   OH280868   3.664   1.364   2.897 -0.7770 -0.0960 -0.0967
19818TIP3    H180869   3.583   1.414   2.900  0.2633  1.5978  0.9787
19818TIP3    H280870   3.641   1.280   2.938 -1.6679  0.8824  1.5240
19819TIP3   OH280871   3.585   3.383   3.112 -0.4439 -0.1965  0.5256
19819TIP3    H180872   3.633   3.464   3.131  0.2972 -0.0530 -1.6093
19819TIP3    H280873   3.595   3.330   3.191  0.0996  1.3058  1.5154
19820TIP3   OH280874   5.489   1.872   1.200 -0.0565 -0.4113 -0.0003
19820TIP3    H180875   5.581   1.894   1.190 -0.2203  0.4529  0.2337
19820TIP3    H280876   5.444   1.957   1.198 -0.6381 -0.6057  2.0231
19821TIP3   OH280877   4.231   3.789  17.127 -0.1243 -0.4358  1.0789
19821TIP3    H180878   4.250   3.784  17.033  0.7834 -0.4546  1.2506
19821TIP3    H280879   4.136   3.778  17.133 -0.2958  0.3146  0.1070
19822TIP3   OH280880   6.576   2.253   2.140  0.1197  0.4004  0.4475
19822TIP3    H180881   6.619   2.270   2.224 -0.9010  0.7590  0.9195
19822TIP3    H280882   6.551   2.161   2.144  2.4661 -0.3464 -0.6159
19823TIP3   OH280883   3.111   3.247  11.918 -0.2232 -0.0913 -0.2664
19823TIP3    H180884   3.054   3.280  11.988  0.0159  1.2138 -0.6576
19823TIP3    H280885   3.149   3.167  11.953  0.1615  0.7217  1.2480
19824TIP3   OH280886   5.950   0.905   1.167  0.1930 -0.1344  0.4796
19824TIP3    H180887   5.928   0.819   1.203  0.3625  0.2910  1.6468
19824TIP3    H280888   5.908   0.906   1.081 -1.2114 -0.7629  1.1185
19825TIP3   OH280889   2.477   0.699   2.874 -0.2012 -0.0065 -0.3336
19825TIP3    H180890   2.540   0.771   2.872  0.3291 -0.4710 -0.9713
19825TIP3    H280891   2.474   0.672   2.966 -0.0797  0.5429 -0.1640
19826TIP3   OH280892   5.385   6.390  17.182  0.4295  0.1707  0.6520
19826TIP3    H180893   5.439   6.430  17.251  0.9313  1.4208 -0.4383
19826TIP3    H280894   5.441   6.321  17.146  0.3054 -0.2411  1.2223
19827TIP3   OH280895   6.074   2.577   3.689 -0.0410 -0.2916 -0.0125
19827TIP3    H180896   5.979   2.581   3.699 -0.2105 -0.5591 -1.3877
19827TIP3    H280897   6.094   2.484   3.682  0.7158 -0.5231  3.2747
19828TIP3   OH280898   2.167   3.262  12.931 -0.4833  0.4779 -0.4181
19828TIP3    H180899   2.096   3.267  12.995 -0.2624  0.1750 -0.1529
19828TIP3    H280900   2.188   3.354  12.912 -0.4086  0.5710  0.0969
19829TIP3   OH280901   1.394   0.306   0.637 -0.1074 -0.3400 -0.4129
19829TIP3    H180902   1.387   0.355   0.555 -0.1499  3.3807  1.6046
19829TIP3    H280903   1.339   0.354   0.699  1.3108 -1.9101  2.2856
19830TIP3   OH280904   2.401   3.068   1.921 -0.1723  0.9086  0.1645
19830TIP3    H180905   2.405   2.985   1.874 -0.0793  0.0159  1.6921
19830TIP3    H280906   2.399   3.135   1.852  0.4781 -0.3175 -1.0859
19831TIP3   OH280907   0.676   3.607   5.502  0.0920  0.3484 -0.1073
19831TIP3    H180908   0.671   3.702   5.506 -0.5781  0.3238 -0.3292
19831TIP3    H280909   0.769   3.587   5.516  0.4647  1.0889 -1.4542
19832TIP3   OH280910   2.634   6.406   0.345  0.3197  0.0319  0.1292
19832TIP3    H180911   2.711   6.459   0.324  0.8814 -0.8355 -0.0560
19832TIP3    H280912   2.669   6.318   0.361 -0.8506 -0.9037 -2.0988
19833TIP3   OH280913   4.461   3.849  11.346  0.3413 -0.2182  0.5760
19833TIP3    H180914   4.530   3.912  11.364 -0.0932  0.6779 -0.7818
19833TIP3    H280915   4.459   3.841  11.251 -2.1778  0.6943  0.4702
19834TIP3   OH280916   0.323   3.817  11.839 -0.2138 -0.8782  0.3491
19834TIP3    H180917   0.281   3.844  11.757 -1.3092 -2.3393  0.3812
19834TIP3    H280918   0.382   3.746  11.814  0.2706 -0.6020  0.6887
19835TIP3   OH280919   1.659   5.730   1.873  0.4466 -0.8706 -0.1101
19835TIP3    H180920   1.690   5.796   1.935 -2.2747  2.6325 -2.1014
19835TIP3    H280921   1.728   5.726   1.807  0.8474 -0.3604  0.2644
19836TIP3   OH280922   1.152   2.504  13.674  0.3937 -0.5451  0.1069
19836TIP3    H180923   1.167   2.597  13.656 -1.0999 -0.7145 -2.4770
19836TIP3    H280924   1.058   2.497  13.689  0.8834 -1.2028  4.2351
19837TIP3   OH280925   5.528   6.593  13.633  0.6433 -0.5219  0.3025
19837TIP3    H180926   5.544   6.660  13.699  2.0199 -0.4469 -0.0644
19837TIP3    H280927   5.604   6.598  13.575  0.0104 -1.3437 -0.6405
19838TIP3   OH280928   0.621   2.874   2.706 -0.8519 -0.6273 -0.0146
19838TIP3    H180929   0.646   2.791   2.747 -1.3765  0.6274  3.1582
19838TIP3    H280930   0.701   2.925   2.702 -0.9456 -0.4582  0.2194
19839TIP3   OH280931   0.033   6.043   1.343 -0.2739 -1.0433 -0.3904
19839TIP3    H180932  -0.053   6.085   1.337 -1.4277 -2.3292  3.7512
19839TIP3    H280933   0.090   6.111   1.380 -0.6158 -1.3386  0.7147
19840TIP3   OH280934   4.747   3.473   0.653  0.1278 -0.4569  0.0295
19840TIP3    H180935   4.674   3.532   0.633 -1.8693 -2.9104 -0.3512
19840TIP3    H280936   4.745   3.408   0.583  2.2485 -1.0275  0.4384
19841TIP3   OH280937   4.548   2.942   4.558  0.3381  0.8989 -0.0271
19841TIP3    H180938   4.618   2.878   4.569  0.2286  1.0811  2.0886
19841TIP3    H280939   4.469   2.890   4.545  0.6474  0.6755 -1.0959
19842TIP3   OH280940   3.580   0.106  11.731  0.2614  0.5263 -0.3114
19842TIP3    H180941   3.645   0.070  11.791  0.3198 -1.3247 -1.3822
19842TIP3    H280942   3.499   0.110  11.782  0.2301 -1.3321 -0.1245
19843TIP3   OH280943   3.932   5.105  16.805 -0.4105 -0.5520 -0.4277
19843TIP3    H180944   3.853   5.125  16.856  0.5090 -0.7562  1.1410
19843TIP3    H280945   3.983   5.185  16.806  1.0700 -1.4290  1.7736
19844TIP3   OH280946   5.570   5.126   0.249  0.2090 -0.5225  0.2475
19844TIP3    H180947   5.476   5.125   0.267 -0.1062 -0.4507 -1.2845
19844TIP3    H280948   5.596   5.034   0.250  0.0435 -0.5684  0.2568
19845TIP3   OH280949   2.917   5.054  14.851  0.3092  0.3858  0.0520
19845TIP3    H180950   2.835   5.078  14.807 -0.4837 -2.8047 -0.4517
19845TIP3    H280951   2.891   4.989  14.915  2.3313  0.2304  0.7732
19846TIP3   OH280952   5.067   1.315   4.149 -0.5472  0.2789  0.3592
19846TIP3    H180953   5.017   1.270   4.217  1.1750  0.4031  1.7920
19846TIP3    H280954   5.068   1.406   4.176 -0.1369  0.3921 -0.0264
19847TIP3   OH280955   5.577   0.115   3.040 -0.2260 -0.4994  0.0992
19847TIP3    H180956   5.653   0.087   3.091 -2.3207  0.8593  4.4937
19847TIP3    H280957   5.512   0.047   3.054 -0.6951 -0.4286 -1.4988
19848TIP3   OH280958   2.494   5.198   6.950 -0.8270  0.0672 -0.6902
19848TIP3    H180959   2.566   5.252   6.984 -2.0305  0.6371  1.0998
19848TIP3    H280960   2.427   5.203   7.018 -1.8180 -1.9925 -1.4493
19849TIP3   OH280961   4.687   4.295  15.331  0.6791  0.4243  0.3566
19849TIP3    H180962   4.734   4.214  15.350  0.7416 -0.0056 -1.4185
19849TIP3    H280963   4.721   4.323  15.246 -1.5985  0.5680 -0.5824
19850TIP3   OH280964   0.641   3.360  13.233 -0.0847 -0.3312  0.3937
19850TIP3    H180965   0.673   3.416  13.161  0.4187 -0.4507  0.5254
19850TIP3    H280966   0.665   3.407  13.312 -0.6312 -0.2067  0.4939
19851TIP3   OH280967   6.239   5.287  16.108 -0.0506  0.3510 -0.4600
19851TIP3    H180968   6.219   5.232  16.031  0.8477 -0.6949  0.0199
19851TIP3    H280969   6.328   5.319  16.092  0.9886 -1.5646  1.0363
19852TIP3   OH280970   0.283   2.051  10.935 -0.0150  0.1153 -0.7214
19852TIP3    H180971   0.265   2.120  10.870 -1.7698  0.9959  0.6312
19852TIP3    H280972   0.221   1.982  10.914 -0.8366  0.5533  0.2069
19853TIP3   OH280973   4.973   5.469  16.964  0.0247  0.6965  0.2003
19853TIP3    H180974   4.914   5.510  17.028 -1.7904 -0.9657 -0.3437
19853TIP3    H280975   5.045   5.434  17.017 -1.0653  0.0065  1.2720
19854TIP3   OH280976   0.600   5.324  10.688  0.4878  0.1722 -0.1463
19854TIP3    H180977   0.588   5.237  10.728  3.8801 -0.3903 -0.0848
19854TIP3    H280978   0.536   5.379  10.733 -0.2895 -1.8149  1.3834
19855TIP3   OH280979   3.427   5.413  11.740  0.2866 -0.1765 -0.2151
19855TIP3    H180980   3.380   5.473  11.798  0.3297 -0.8051  0.4981
19855TIP3    H280981   3.372   5.407  11.662  0.3659  0.9022 -0.3572
19856TIP3   OH280982   1.885   4.220   1.244  0.0351  0.1922 -0.1585
19856TIP3    H180983   1.912   4.262   1.326 -1.5155 -1.0226  1.0555
19856TIP3    H280984   1.965   4.183   1.208  0.4735 -1.2245  2.0540
19857TIP3   OH280985   1.048   3.311   1.349  0.2518 -0.5633 -0.2357
19857TIP3    H180986   1.074   3.363   1.273  0.6677  0.1708  0.3942
19857TIP3    H280987   0.965   3.270   1.324  0.3895 -0.3408 -1.0800
19858TIP3   OH280988   4.024   3.952  16.719 -0.8409  0.0995  0.1588
19858TIP3    H180989   3.990   4.000  16.644 -1.2140 -0.5629 -0.1086
19858TIP3    H280990   4.097   4.004  16.751 -0.9373  0.5907 -0.4186
19859TIP3   OH280991   3.988   4.011  16.456  0.4554 -0.5973 -0.1624
19859TIP3    H180992   3.933   4.062  16.396  1.7918  0.0243 -0.9039
19859TIP3    H280993   3.945   3.926  16.462 -1.0645  0.1463 -0.0002
19860TIP3   OH280994   4.708   4.235  13.765 -0.2939 -0.4959  0.3224
19860TIP3    H180995   4.712   4.327  13.738  0.2034 -0.5507  0.1902
19860TIP3    H280996   4.619   4.208  13.746 -0.5432  0.0571  0.6848
19861TIP3   OH280997   4.270   1.233  10.944  0.0817  0.2472  0.0590
19861TIP3    H180998   4.208   1.161  10.957 -0.3982  0.4828 -0.8834
19861TIP3    H280999   4.352   1.201  10.983 -0.6128 -0.0635  1.3328
19862TIP3   OH281000   4.373   0.924  13.436  0.2140  0.0145 -0.0092
19862TIP3    H181001   4.281   0.927  13.461  0.1429  2.1184 -0.3333
19862TIP3    H281002   4.420   0.944  13.517  0.2627  0.9883 -0.2638
19863TIP3   OH281003   4.384   6.065  15.546  0.2046 -0.7740 -0.4108
19863TIP3    H181004   4.467   6.036  15.509  0.4891  1.0201 -1.3004
19863TIP3    H281005   4.340   6.110  15.474 -0.6978 -0.0583  0.5583
19864TIP3   OH281006   4.390   0.646  15.308  0.1223 -0.8296 -0.2449
19864TIP3    H181007   4.412   0.632  15.400 -0.5733 -0.5529 -0.0324
19864TIP3    H281008   4.401   0.740  15.294 -0.8033 -0.6936 -0.1547
19865TIP3   OH281009   5.356   4.897   3.442 -0.0295 -0.6325  0.0836
19865TIP3    H181010   5.376   4.959   3.511  0.4977  0.6676 -1.1866
19865TIP3    H281011   5.263   4.910   3.422  0.1609  0.0007 -0.4081
19866TIP3   OH281012   5.160   3.949  13.071  0.1031  0.3079 -0.0241
19866TIP3    H181013   5.199   3.870  13.108  1.3136  0.3514 -1.1479
19866TIP3    H281014   5.066   3.930  13.068  0.2438 -0.6126  0.8009
19867TIP3   OH281015   0.628   5.663   6.618  0.2270  0.5099  0.1337
19867TIP3    H181016   0.554   5.703   6.571  0.3861 -0.5655 -1.0644
19867TIP3    H281017   0.703   5.718   6.595 -0.0427  1.1799  0.7832
19868TIP3   OH281018   5.382   5.583  15.031 -0.2921 -0.1489 -0.2086
19868TIP3    H181019   5.469   5.556  15.003  0.3200  0.5431  0.9708
19868TIP3    H281020   5.337   5.502  15.056  0.6089 -0.3562  0.7942
19869TIP3   OH281021   4.812   1.792  17.109 -0.2216  0.2471 -0.0213
19869TIP3    H181022   4.757   1.848  17.164  0.3527  0.5666  0.2406
19869TIP3    H281023   4.880   1.850  17.076  0.2262 -0.2347  0.0334
19870TIP3   OH281024   0.182   3.607   4.575  0.1513  0.4710  0.0709
19870TIP3    H181025   0.140   3.526   4.603 -1.0837  1.1204  0.1813
19870TIP3    H281026   0.210   3.649   4.656  0.3824  0.3759  0.0421
19871TIP3   OH281027   5.558   1.347  12.407 -0.0298  0.2777 -0.0972
19871TIP3    H181028   5.623   1.369  12.340 -1.2833  0.0161 -1.4413
19871TIP3    H281029   5.477   1.389  12.377 -0.7803 -0.3944  0.9150
19872TIP3   OH281030   4.293   2.462   2.044  0.5859  0.1821  0.0915
19872TIP3    H181031   4.267   2.542   2.088 -0.4845 -0.3052  0.3886
19872TIP3    H281032   4.388   2.458   2.053  0.5083  0.7288  1.2527
19873TIP3   OH281033   6.337   2.556  13.082 -0.2600  0.4217 -0.0795
19873TIP3    H181034   6.284   2.541  13.004 -1.4366 -1.4653  1.0158
19873TIP3    H281035   6.360   2.469  13.114  0.2813  1.1373  1.6403
19874TIP3   OH281036   1.745   5.308  15.927 -0.0435 -0.1733  0.7779
19874TIP3    H181037   1.649   5.299  15.926  0.0939 -1.9313  0.1495
19874TIP3    H281038   1.769   5.288  16.017 -0.3480  1.8861  1.3728
19875TIP3   OH281039   3.898   2.107   3.758  0.0753 -0.0216 -0.5995
19875TIP3    H181040   3.956   2.143   3.691  0.1478  1.3282  0.1554
19875TIP3    H281041   3.952   2.102   3.837 -0.6409  0.6604 -0.0472
19876TIP3   OH281042   6.012   0.877  16.812 -0.5594  0.0991  0.0261
19876TIP3    H181043   6.060   0.952  16.776 -0.3513  0.3157  0.7458
19876TIP3    H281044   5.923   0.909  16.823 -0.4539  0.2664  0.4032
19877TIP3   OH281045   4.836   3.707  13.400  0.3170  0.2321 -0.2707
19877TIP3    H181046   4.854   3.617  13.424  0.4998  0.2944 -0.1740
19877TIP3    H281047   4.835   3.755  13.483  0.5413  0.3753 -0.3492
19878TIP3   OH281048   4.282   6.008  16.337 -0.1905 -0.3201 -0.6298
19878TIP3    H181049   4.230   5.935  16.372 -0.2486 -0.9522 -1.9842
19878TIP3    H281050   4.242   6.086  16.375 -0.4650 -0.9514  0.4297
19879TIP3   OH281051   0.365   0.158  14.095  0.1347 -0.3087 -0.0858
19879TIP3    H181052   0.429   0.124  14.031 -0.1744  0.4280 -0.8008
19879TIP3    H281053   0.289   0.182  14.042  0.0022  0.6410  0.5144
19880TIP3   OH281054   1.979   0.000  15.561 -0.3793 -0.5640  0.1016
19880TIP3    H181055   2.037   0.074  15.543 -0.2436 -0.6867  0.0264
19880TIP3    H281056   1.967   0.002  15.656  0.0950 -0.7907  0.1697
19881TIP3   OH281057   2.719   1.233  16.274  0.3053 -0.1394  0.2095
19881TIP3    H181058   2.769   1.183  16.338  0.9582 -0.3959 -0.4809
19881TIP3    H281059   2.776   1.237  16.197 -0.3968  0.2901 -0.3029
19882TIP3   OH281060   6.537   6.035  14.148  0.1475  0.6653 -0.3825
19882TIP3    H181061   6.546   5.945  14.115  0.3193  0.9316 -1.0930
19882TIP3    H281062   6.519   6.025  14.241 -0.3338 -0.1221 -0.5496
19883TIP3   OH281063   1.552   4.819  10.881 -0.0899 -0.5239  0.0356
19883TIP3    H181064   1.585   4.756  10.946 -1.5846 -0.5508  0.8161
19883TIP3    H281065   1.629   4.842  10.829  0.5512 -2.8804 -0.1998
19884TIP3   OH281066   3.902   6.303  12.096  0.5856  0.4620 -0.3271
19884TIP3    H181067   3.925   6.211  12.110 -0.8540 -0.3587 -2.7660
19884TIP3    H281068   3.951   6.329  12.018 -1.2424  0.7936 -1.4317
19885TIP3   OH281069   0.003   2.084   2.708 -0.4793 -0.3817  0.3345
19885TIP3    H181070  -0.063   2.032   2.663  1.0688 -0.3107 -2.1896
19885TIP3    H281071   0.069   2.020   2.735  1.3737  0.0457 -2.6790
19886TIP3   OH281072   2.055   5.300   1.331  0.1099  0.6605 -0.1372
19886TIP3    H181073   2.031   5.249   1.253 -0.2604  1.5389 -0.6066
19886TIP3    H281074   2.149   5.313   1.323  0.5826 -1.5562  0.9659
19887TIP3   OH281075   2.613   4.718   1.123 -0.6381  0.2488 -0.0230
19887TIP3    H181076   2.654   4.650   1.070 -0.0543 -0.7397  1.6189
19887TIP3    H281077   2.680   4.787   1.130  0.7179 -1.1696  2.2872
19888TIP3   OH281078   1.001   3.775  11.516  0.1212 -0.3293 -0.0026
19888TIP3    H181079   1.004   3.870  11.504 -0.8111 -0.2960 -0.0495
19888TIP3    H281080   1.066   3.758  11.584  0.3241  0.3366 -0.0172
19889TIP3   OH281081   1.848   0.887  15.655 -0.3204  0.1604 -0.6945
19889TIP3    H181082   1.937   0.851  15.663 -0.5970 -0.7334 -1.3977
19889TIP3    H281083   1.852   0.944  15.579  0.1956  1.9334  0.6022
19890TIP3   OH281084   1.260   3.667   3.272 -0.4508  0.2120  0.1022
19890TIP3    H181085   1.252   3.608   3.347  0.0703  1.1569  0.9334
19890TIP3    H281086   1.239   3.613   3.196 -5.6861  0.2111  1.1766
19891TIP3   OH281087   1.910   4.324   0.521 -0.3404  0.2044 -0.5356
19891TIP3    H181088   1.931   4.378   0.598 -1.4586  0.0168 -0.0643
19891TIP3    H281089   1.950   4.240   0.539 -3.5390 -1.0556  1.6659
19892TIP3   OH281090   0.622   6.217   5.849 -0.0024 -0.7088  0.4245
19892TIP3    H181091   0.686   6.270   5.896  0.5931  0.6274 -1.7914
19892TIP3    H281092   0.649   6.127   5.865  2.9071 -0.1938 -0.9579
19893TIP3   OH281093   4.999   1.372  15.293 -0.6687  0.0795 -0.4774
19893TIP3    H181094   4.996   1.321  15.373 -0.4283  1.7582  0.6590
19893TIP3    H281095   5.090   1.365  15.263 -0.8239 -0.7693 -0.7809
19894TIP3   OH281096   2.603   6.472  12.305 -0.4434  0.1316  0.3786
19894TIP3    H181097   2.514   6.451  12.275 -0.2024 -0.9760  0.3920
19894TIP3    H281098   2.648   6.503  12.227 -0.0360 -2.0173 -0.3078
19895TIP3   OH281099   6.009   2.690  14.850  0.3162 -0.6096 -0.0068
19895TIP3    H181100   5.964   2.607  14.865  2.7728 -2.0724 -0.1211
19895TIP3    H281101   5.946   2.757  14.875 -1.4583 -2.5285  0.9289
19896TIP3   OH281102   0.419   6.042  14.931  0.1469  0.1143 -0.3063
19896TIP3    H181103   0.392   6.090  14.853  0.2848 -0.9422 -1.0352
19896TIP3    H281104   0.357   5.969  14.937  1.5527 -1.1820 -0.8236
19897TIP3   OH281105   2.099   0.693   5.578  0.3890 -0.0921  0.4017
19897TIP3    H181106   2.021   0.747   5.566  1.2905  1.3024  0.5504
19897TIP3    H281107   2.075   0.630   5.646 -0.6479  0.2052  0.3238
19898TIP3   OH281108   4.895   4.975  16.093 -0.1024  0.5192 -0.0002
19898TIP3    H181109   4.873   4.921  16.017 -0.7988  2.2398 -1.0753
19898TIP3    H281110   4.831   5.046  16.091 -0.3525  0.4388  2.4171
19899TIP3   OH281111   4.863   6.518   3.316 -0.4550 -0.2399  0.0057
19899TIP3    H181112   4.832   6.468   3.391  0.9221  0.3752  1.0308
19899TIP3    H281113   4.957   6.530   3.332 -0.4110  1.1382 -1.0838
19900TIP3   OH281114   6.493   4.951  14.546  0.7410 -0.4829  0.1733
19900TIP3    H181115   6.454   5.001  14.617  0.2055 -1.0080  0.2615
19900TIP3    H281116   6.424   4.948  14.479  1.0091 -0.5337 -0.1017
19901TIP3   OH281117   6.442   4.353  12.817 -0.4939  0.4106  0.3439
19901TIP3    H181118   6.538   4.348  12.814 -0.4802 -0.6660  1.4930
19901TIP3    H281119   6.417   4.285  12.880 -2.1697 -1.2415 -1.9444
19902TIP3   OH281120   6.098   2.537   1.194  0.1993 -0.0677  0.7963
19902TIP3    H181121   6.114   2.523   1.287 -0.1482 -1.4948  0.6733
19902TIP3    H281122   6.080   2.449   1.159  0.7409  0.3713 -0.6963
19903TIP3   OH281123   3.653   1.951  16.726 -0.3152 -0.1973 -0.4290
19903TIP3    H181124   3.632   2.026  16.670 -2.2994  0.4412  1.0635
19903TIP3    H281125   3.591   1.883  16.699 -0.0971 -0.4893 -0.1992
19904TIP3   OH281126   1.735   5.956  15.055 -0.4263  0.0960 -0.0697
19904TIP3    H181127   1.736   5.860  15.060 -1.1135  0.1515  2.7303
19904TIP3    H281128   1.827   5.981  15.055 -0.1903 -0.5291 -2.3639
19905TIP3   OH281129   1.302   4.424   5.811 -0.3192 -0.0617  0.1856
19905TIP3    H181130   1.324   4.414   5.904 -0.1054 -0.8225  0.0611
19905TIP3    H281131   1.211   4.397   5.805 -1.0361  2.0947  0.5261
19906TIP3   OH281132   1.351   2.896   5.158 -0.8688  0.3494 -0.2333
19906TIP3    H181133   1.447   2.895   5.159 -0.7979 -2.6317 -0.2945
19906TIP3    H281134   1.328   2.971   5.103  1.3937  1.2702 -0.0392
19907TIP3   OH281135   4.970   4.466   0.292  0.1037 -0.7330  0.3710
19907TIP3    H181136   4.877   4.488   0.287  0.0257 -1.0927  0.1786
19907TIP3    H281137   4.978   4.385   0.241  1.0716  0.9987 -2.5201
19908TIP3   OH281138   1.725   1.227  13.149  0.7265 -0.7554  0.3008
19908TIP3    H181139   1.737   1.144  13.195  1.5658 -1.2449 -0.7697
19908TIP3    H281140   1.813   1.263  13.140  0.6114 -0.7724 -1.1003
19909TIP3   OH281141   4.373   5.502  16.075 -0.0502 -0.2322 -0.7465
19909TIP3    H181142   4.342   5.590  16.053  0.2171  0.1875  0.4919
19909TIP3    H281143   4.309   5.469  16.137  0.6762 -0.2960 -0.0159
19910TIP3   OH281144   2.589   4.700   5.551 -0.6409  0.0801 -0.3552
19910TIP3    H181145   2.648   4.768   5.518  0.5047 -0.6661  0.1157
19910TIP3    H281146   2.578   4.639   5.478 -0.8681  0.2388 -0.4548
19911TIP3   OH281147   3.032   5.967  16.571 -0.6330  0.3950  0.1230
19911TIP3    H181148   3.067   5.897  16.625 -2.8606 -1.9811 -1.3042
19911TIP3    H281149   3.049   5.940  16.481 -3.5337  0.3961 -0.5459
19912TIP3   OH281150   3.879   5.998   2.608  0.5274 -0.4798  0.2924
19912TIP3    H181151   3.854   6.087   2.633 -0.2823 -1.0659  1.6995
19912TIP3    H281152   3.796   5.954   2.591  0.8957 -1.1040  0.0894
19913TIP3   OH281153   3.153   0.538   1.011 -0.4960  0.3216 -0.2967
19913TIP3    H181154   3.144   0.471   1.078 -0.4783 -1.0485 -1.6122
19913TIP3    H281155   3.214   0.602   1.049 -0.4987 -0.4048  0.9827
19914TIP3   OH281156   4.230   5.748  12.100  0.5534 -0.4912 -0.0492
19914TIP3    H181157   4.202   5.838  12.080  2.2968  0.2643  0.6981
19914TIP3    H281158   4.154   5.709  12.142  0.3247  1.2557  1.2994
19915TIP3   OH281159   2.259   2.293   0.267 -0.0255 -0.2236  0.4020
19915TIP3    H181160   2.208   2.341   0.332 -0.1389 -0.6357  0.6235
19915TIP3    H281161   2.200   2.286   0.192  0.4609  1.1270 -0.1407
19916TIP3   OH281162   2.841   5.138  12.979 -0.1496  0.1763 -0.1974
19916TIP3    H181163   2.928   5.175  12.993  0.2248 -0.6805 -0.2324
19916TIP3    H281164   2.841   5.112  12.887 -0.6470  0.6797 -0.3483
19917TIP3   OH281165   1.173   6.152  13.955  0.2147 -0.0593 -0.0998
19917TIP3    H181166   1.223   6.127  13.877 -0.4911 -1.8242 -0.0329
19917TIP3    H281167   1.082   6.135  13.931 -0.1710  0.9548  0.5619
19918TIP3   OH281168   3.200   0.292  11.705  0.4603  0.6996  0.4107
19918TIP3    H181169   3.181   0.312  11.613  0.5018  0.5957  0.3793
19918TIP3    H281170   3.120   0.316  11.752 -0.0036 -0.3482  0.1988
19919TIP3   OH281171   1.435   6.023   0.283  0.1461 -0.4132 -0.8566
19919TIP3    H181172   1.401   5.941   0.247  0.6890 -0.3421 -1.5692
19919TIP3    H281173   1.509   6.045   0.226  0.1149  0.4847 -0.5647
19920TIP3   OH281174   5.517   3.810  16.467  0.2539  0.5542  0.5739
19920TIP3    H181175   5.592   3.845  16.419 -0.9168  0.3502 -1.5227
19920TIP3    H281176   5.535   3.716  16.473 -0.0237  0.4344 -0.3318
19921TIP3   OH281177   5.341   3.846   1.510  0.7540 -0.3255  0.2197
19921TIP3    H181178   5.339   3.829   1.604 -2.4254 -0.9096  0.1699
19921TIP3    H281179   5.433   3.839   1.486  1.5534 -1.1155  3.1004
19922TIP3   OH281180   1.517   5.586  16.645  0.0662  0.5978 -0.1440
19922TIP3    H181181   1.466   5.582  16.726  0.9251 -1.1377  0.3528
19922TIP3    H281182   1.535   5.495  16.622  3.7433  1.0666  0.2361
19923TIP3   OH281183   5.703   3.717   3.126  0.2683  0.2760 -0.0308
19923TIP3    H181184   5.723   3.773   3.201  0.6849 -0.7278  0.6198
19923TIP3    H281185   5.783   3.716   3.074  0.4613 -0.1912  0.2712
19924TIP3   OH281186   0.738   5.448   1.485 -0.0299 -0.1924  0.5363
19924TIP3    H181187   0.827   5.475   1.462  0.6465 -0.3048  2.7691
19924TIP3    H281188   0.737   5.353   1.469 -0.1526 -0.0129 -0.6062
19925TIP3   OH281189   0.035   2.856   4.541  0.0095 -0.2369 -0.2964
19925TIP3    H181190  -0.021   2.919   4.498 -1.0561 -1.2528 -0.4356
19925TIP3    H281191   0.124   2.890   4.529 -0.5519  1.3274 -0.1719
19926TIP3   OH281192   0.675   5.844   4.166  0.1478  0.3130  0.1851
19926TIP3    H181193   0.608   5.877   4.106 -1.3289 -0.1505  1.5176
19926TIP3    H281194   0.704   5.762   4.126 -0.8814 -0.0358  0.1050
19927TIP3   OH281195   3.135   3.139   5.814 -0.4520  0.4138 -0.0951
19927TIP3    H181196   3.062   3.165   5.870  0.0818  1.1941  0.2569
19927TIP3    H281197   3.140   3.208   5.747 -0.0347  0.3777 -0.1051
19928TIP3   OH281198   1.411   0.322  14.043  0.0431 -0.5515  0.0460
19928TIP3    H181199   1.470   0.282  13.979  0.8385  1.4305 -0.5397
19928TIP3    H281200   1.326   0.326  13.998 -0.3448 -2.4934  0.5199
19929TIP3   OH281201   1.337   3.770  12.664  0.1733 -0.3758  0.4223
19929TIP3    H181202   1.360   3.745  12.575  1.5927 -0.0402  0.6702
19929TIP3    H281203   1.336   3.866  12.663 -1.2530 -0.3556  0.4459
19930TIP3   OH281204   5.217   2.576  15.705 -0.3362  0.3384 -0.0457
19930TIP3    H181205   5.271   2.556  15.781 -2.3746 -2.1136  0.9009
19930TIP3    H281206   5.279   2.611  15.640  1.9408 -0.1677  1.7261
19931TIP3   OH281207   1.135   3.344  12.485 -0.3671  0.2862 -0.5452
19931TIP3    H181208   1.176   3.267  12.445 -1.1292 -0.7455  0.5989
19931TIP3    H281209   1.158   3.337  12.578 -1.1992  0.9551 -0.2854
19932TIP3   OH281210   5.394   3.492   0.366 -0.2454  0.2540 -0.6183
19932TIP3    H181211   5.436   3.578   0.377 -2.2898  1.2636 -0.1525
19932TIP3    H281212   5.327   3.490   0.435  0.4191 -2.1752  0.0271
19933TIP3   OH281213   4.760   3.073   3.811  0.7236  0.3115 -0.5499
19933TIP3    H181214   4.729   2.982   3.814 -0.8250  0.8332  1.2644
19933TIP3    H281215   4.850   3.069   3.845  0.4491 -0.4849  0.1296
19934TIP3   OH281216   1.810   4.069   1.539  0.1257 -0.5911  0.6334
19934TIP3    H181217   1.859   3.987   1.531  0.1930 -0.4673 -0.4288
19934TIP3    H281218   1.846   4.111   1.617  1.6118 -0.5883 -0.0122
19935TIP3   OH281219   1.356   5.112  11.496 -0.4186  0.3167  0.1261
19935TIP3    H181220   1.297   5.056  11.447  0.4171 -0.1958 -0.3131
19935TIP3    H281221   1.387   5.177  11.432 -0.0897  0.2492  0.2110
19936TIP3   OH281222   5.105   2.525  15.994  0.7876  0.0453  0.2461
19936TIP3    H181223   5.110   2.473  16.074  1.3121  1.4677  1.1791
19936TIP3    H281224   5.018   2.565  15.996  0.1870 -1.1544 -0.7266
19937TIP3   OH281225   1.238   4.171  11.720 -0.1793  0.0410  0.2016
19937TIP3    H181226   1.317   4.119  11.734  0.8867  1.6364  0.3708
19937TIP3    H281227   1.268   4.246  11.668 -1.6792  0.4560 -0.1074
19938TIP3   OH281228   1.842   6.480  16.064  0.1540  0.7170  0.5569
19938TIP3    H181229   1.819   6.563  16.104  0.1433  0.2518  1.5502
19938TIP3    H281230   1.763   6.427  16.070 -0.5324  1.3257 -2.0343
19939TIP3   OH281231   1.246   2.094  16.571  0.7026 -0.4082 -0.0229
19939TIP3    H181232   1.306   2.113  16.499  0.5538 -1.2455 -0.3802
19939TIP3    H281233   1.197   2.017  16.542  0.0496 -0.2539  0.6225
19940TIP3   OH281234   5.837   4.667   1.772 -0.1324 -0.3691  0.0639
19940TIP3    H181235   5.806   4.610   1.842 -1.2028  1.2215  0.9485
19940TIP3    H281236   5.928   4.640   1.758  0.2858 -0.4072  2.4472
19941TIP3   OH281237   0.087   3.933  14.482 -0.4160  0.3528  0.0785
19941TIP3    H181238   0.146   3.920  14.556  0.1400  0.3797 -0.3502
19941TIP3    H281239   0.038   4.012  14.504  1.3872  1.7366 -0.5930
19942TIP3   OH281240   3.106   3.779  14.764  0.1341  0.2475  0.2489
19942TIP3    H181241   3.185   3.776  14.709  0.4064 -0.6282  0.6777
19942TIP3    H281242   3.095   3.872  14.784  0.3403  0.5257 -0.8362
19943TIP3   OH281243   1.981   1.486  12.691 -0.3837 -0.1471  0.0222
19943TIP3    H181244   2.067   1.528  12.696  0.1291 -0.8787 -1.8003
19943TIP3    H281245   1.968   1.448  12.777 -0.4122  2.7719  1.4309
19944TIP3   OH281246   0.169   2.331   4.690  0.7286 -0.1304 -0.5429
19944TIP3    H181247   0.148   2.420   4.662  0.3856  0.1081  0.4483
19944TIP3    H281248   0.096   2.278   4.656  0.2084  0.1886  0.0579
19945TIP3   OH281249   0.406   5.649   5.839 -0.2661  0.1094 -0.4225
19945TIP3    H181250   0.338   5.699   5.883  0.3575  1.6426 -1.1525
19945TIP3    H281251   0.487   5.699   5.855  0.5555 -1.1776 -0.3497
19946TIP3   OH281252   2.501   5.468   2.427 -0.5539  0.1460  0.8400
19946TIP3    H181253   2.441   5.401   2.394  1.0369 -0.7762 -0.3491
19946TIP3    H281254   2.576   5.463   2.368  0.2828  1.9123  1.6987
19947TIP3   OH281255   1.153   4.697   5.212  0.2788  0.1345  0.2510
19947TIP3    H181256   1.182   4.786   5.193  1.5169 -0.0491  1.1542
19947TIP3    H281257   1.140   4.695   5.307  1.1813 -0.8915  0.3690
19948TIP3   OH281258   5.745   1.339  16.322 -0.2392  0.1971 -0.2893
19948TIP3    H181259   5.761   1.246  16.306 -0.0626 -0.3617  2.5487
19948TIP3    H281260   5.828   1.372  16.357 -0.3903  1.3684 -0.9953
19949TIP3   OH281261   3.400   0.688  15.461  0.1110  0.1167  0.3614
19949TIP3    H181262   3.312   0.704  15.428  0.2866 -1.4838 -1.0681
19949TIP3    H281263   3.390   0.683  15.556 -0.9308  2.0753  0.3977
19950TIP3   OH281264   0.669   3.092  15.381  0.1837 -0.7455  0.6444
19950TIP3    H181265   0.588   3.119  15.339 -0.1679 -2.8665 -0.1741
19950TIP3    H281266   0.737   3.140  15.334 -0.5279  0.4778  0.8323
19951TIP3   OH281267   3.655   3.985  14.091  0.1503 -0.3583 -0.2816
19951TIP3    H181268   3.666   3.903  14.044 -0.4383 -0.0936 -0.8998
19951TIP3    H281269   3.579   4.027  14.049  1.1465  1.0314 -0.7624
19952TIP3   OH281270   1.265   0.339  14.309 -0.0389 -0.4750  0.4701
19952TIP3    H181271   1.309   0.403  14.366  1.0646 -0.9788  0.2089
19952TIP3    H281272   1.336   0.299  14.259 -0.9363 -0.3545 -0.9603
19953TIP3   OH281273   2.768   4.968   3.187  0.2025 -0.3545 -0.6178
19953TIP3    H181274   2.793   4.899   3.248 -1.3324 -0.6778 -0.3071
19953TIP3    H281275   2.798   5.049   3.229 -0.2894 -0.6269  0.3057
19954TIP3   OH281276   2.436   1.776   3.612 -0.0269 -0.3577  0.0102
19954TIP3    H181277   2.409   1.792   3.702  1.7799 -0.6578  0.6595
19954TIP3    H281278   2.481   1.857   3.587  0.5375 -0.7193 -0.1722
19955TIP3   OH281279   0.051   1.457   3.136  0.4320 -0.4821 -0.2432
19955TIP3    H181280   0.007   1.474   3.053  0.0831 -0.0126  0.0327
19955TIP3    H281281   0.025   1.367   3.159 -0.4524 -0.1944 -0.0543
19956TIP3   OH281282   5.249   0.221   5.807 -0.7649 -0.0176 -0.1087
19956TIP3    H181283   5.323   0.267   5.767 -0.5140 -0.8800 -0.6797
19956TIP3    H281284   5.274   0.209   5.898  0.0952 -0.8242 -0.4282
19957TIP3   OH281285   3.218   6.594   3.502 -0.0310 -0.1472  0.8911
19957TIP3    H181286   3.230   6.667   3.563  0.1624  1.0790 -0.5666
19957TIP3    H281287   3.302   6.548   3.502  0.0398 -0.0267  1.3450
19958TIP3   OH281288   1.972   3.914   1.248  0.1975  0.0907  0.0968
19958TIP3    H181289   1.998   3.822   1.246  0.5259  0.1908 -0.3437
19958TIP3    H281290   1.987   3.941   1.339  2.1264  0.2741 -0.2210
19959TIP3   OH281291   3.877   5.038  11.404  0.7082 -0.2985  0.1087
19959TIP3    H181292   3.909   4.987  11.478 -0.8780 -3.4196 -1.1642
19959TIP3    H281293   3.917   4.996  11.328  0.3784  1.2656 -0.9608
19960TIP3   OH281294   2.720   4.087   5.034 -0.1818 -0.1880  0.0933
19960TIP3    H181295   2.642   4.138   5.057 -0.1080  0.1491 -0.3909
19960TIP3    H281296   2.780   4.151   4.994 -0.5239 -0.8469 -1.5396
19961TIP3   OH281297   0.950   6.277   2.393 -0.1999 -0.6156  0.2747
19961TIP3    H181298   0.855   6.278   2.409 -0.2246  2.9328  0.6263
19961TIP3    H281299   0.959   6.289   2.299 -0.1293  0.1388  0.3721
19962TIP3   OH281300   4.581   4.872  16.152  0.0762  0.1245 -0.1247
19962TIP3    H181301   4.525   4.906  16.083  0.9999  1.8614 -0.0893
19962TIP3    H281302   4.639   4.810  16.108 -1.2773 -1.0500 -0.3119
19963TIP3   OH281303   1.123   0.970   2.494 -0.2645 -0.2303  0.1432
19963TIP3    H181304   1.041   0.931   2.463 -0.0267 -0.0139 -0.7931
19963TIP3    H281305   1.172   0.897   2.531 -1.9821  0.0426  3.2736
19964TIP3   OH281306   0.003   6.020   0.928 -0.4080  0.0992 -0.4862
19964TIP3    H181307   0.045   5.938   0.903 -1.5358  0.2247 -3.1603
19964TIP3    H281308  -0.084   5.994   0.959 -1.9781  0.2711 -4.2051
19965TIP3   OH281309   4.971   5.178  12.947 -0.5651  0.0234  0.3018
19965TIP3    H181310   5.039   5.183  12.880 -0.9501 -0.2083 -0.1157
19965TIP3    H281311   4.926   5.262  12.943 -0.8783 -0.1533 -0.0575
19966TIP3   OH281312   5.360   1.329  13.510  0.0629 -0.5745  0.4322
19966TIP3    H181313   5.438   1.279  13.533  0.7904  1.5379  3.0198
19966TIP3    H281314   5.287   1.270  13.530  0.8889 -0.7899  3.1898
19967TIP3   OH281315   0.641   1.797   4.335 -0.1010  0.4457 -0.4006
19967TIP3    H181316   0.654   1.728   4.271  0.3796  0.0791  0.0782
19967TIP3    H281317   0.694   1.770   4.410 -0.1886  1.1562 -0.0743
19968TIP3   OH281318   2.060   0.371  16.396  0.2415 -0.5759 -0.3020
19968TIP3    H181319   2.152   0.344  16.397  0.6900  0.8801  1.1418
19968TIP3    H281320   2.062   0.466  16.404 -1.3879 -0.5555  0.3581
19969TIP3   OH281321   3.412   5.336  13.344  0.6658 -0.1758 -0.4789
19969TIP3    H181322   3.402   5.315  13.251  1.6206  1.4204 -0.9787
19969TIP3    H281323   3.483   5.280  13.373 -0.3014 -1.4174 -0.4304
19970TIP3   OH281324   2.159   4.035  16.048 -0.4765 -0.6137  0.4250
19970TIP3    H181325   2.212   4.016  16.126 -0.2301 -0.8561  0.1980
19970TIP3    H281326   2.214   4.010  15.974 -1.2142 -1.6662  0.2048
19971TIP3   OH281327   2.166   0.150  14.832  0.0535  0.4258 -0.1991
19971TIP3    H181328   2.196   0.197  14.754 -2.4047 -0.1839 -1.6040
19971TIP3    H281329   2.145   0.220  14.895 -1.5806  1.1710 -1.5010
19972TIP3   OH281330   5.757   5.419   4.364 -0.3792 -0.1227  0.7301
19972TIP3    H181331   5.796   5.374   4.439  2.6711 -0.4796 -0.8932
19972TIP3    H281332   5.777   5.512   4.379  2.4297 -0.4038 -0.6475
19973TIP3   OH281333   1.808   3.171  17.252 -0.5270 -0.9477  0.2609
19973TIP3    H181334   1.719   3.135  17.254 -0.8178 -0.2141  1.0278
19973TIP3    H281335   1.797   3.259  17.215 -0.3612 -0.2294  1.8600
19974TIP3   OH281336   0.198   4.943  12.439  0.2342 -0.2671 -0.1591
19974TIP3    H181337   0.155   4.923  12.356  0.1957 -0.9942  0.0353
19974TIP3    H281338   0.139   5.006  12.481 -1.5777 -2.5367  0.8743
19975LIG      S81339   3.451   3.686  16.173  0.1774 -0.3887  0.5318
19975LIG     F181340   3.907   3.760  16.394  0.1156  0.0645 -0.2242
19975LIG     F281341   3.855   3.662  16.578 -0.2540  0.3205  0.3207
19975LIG     F381342   3.990   3.570  16.447  0.2110  0.3094 -0.3607
19975LIG     N181343   3.415   3.390  16.193 -0.3080  0.0008 -0.2537
19975LIG     N281344   3.604   3.230  16.386  0.2735  0.3299  0.6183
19975LIG     C181345   3.331   3.289  16.242  0.0204  0.1800  0.2524
19975LIG     C281346   3.528   3.444  16.273  0.4371  0.3508 -0.5994
19975LIG     C381347   3.275   3.333  16.378  0.1078  0.0107 -1.7477
19975LIG     C481348   3.389   3.445  16.068 -0.5588 -0.0118  1.0124
19975LIG     C581349   3.561   3.577  16.257  0.5232  0.1587 -0.1451
19975LIG     C681350   3.410   3.581  16.038 -0.5090  0.6699  0.4314
19975LIG     C781351   3.617   3.369  16.357  0.1725 -0.7132 -0.0837
19975LIG     C881352   3.186   3.228  16.451  0.4361  0.6783  0.4226
19975LIG     C981353   3.669   3.646  16.314 -0.0065 -0.3616  0.1967
19975LIG    C1081354   3.760   3.569  16.388 -0.6501 -0.5088 -0.7876
19975LIG    C1181355   3.351   3.358  15.961 -0.2908 -0.2125 -0.6096
19975LIG    C1281356   3.732   3.432  16.411 -0.4231 -0.5113  0.2404
19975LIG    C1381357   3.402   3.625  15.912  0.0594 -0.1293  1.1533
19975LIG    C1481358   3.234   3.084  16.480 -0.3303  0.0277 -0.3815
19975LIG    C1581359   3.333   3.403  15.830 -0.6791 -0.3658  0.1130
19975LIG    C1681360   3.363   3.539  15.807  0.1003  0.2844  1.3676
19975LIG    C1781361   3.876   3.639  16.451  0.7629 -0.9610  0.3343
19975LIG     H181362   3.383   3.191  16.248  0.0362  0.1185 -0.7081
19975LIG     H281363   3.243   3.271  16.177  1.4515 -0.0130 -1.7372
19975LIG     H381364   3.215   3.425  16.364 -1.9142 -0.4406  2.4536
19975LIG     H481365   3.358   3.361  16.446 -1.8131  2.0354 -0.0958
19975LIG     H581366   3.102   3.214  16.380  0.9554 -1.7551  0.2017
19975LIG     H681367   3.144   3.274  16.543 -1.4988 -0.8732  0.3637
19975LIG     H781368   3.689   3.751  16.296  2.2708 -0.8263 -0.2009
19975LIG     H881369   3.343   3.251  15.976  2.2304 -0.0996  2.7328
19975LIG     H981370   3.807   3.380  16.469 -0.2482  2.8837  3.4246
19975LIG    H1081371   3.403   3.729  15.885  2.1472 -0.5209 -0.5873
19975LIG    H1181372   3.327   3.083  16.541 -1.1015  1.4275  0.8857
19975LIG    H1281373   3.244   3.024  16.387 -1.5802  0.4879 -0.8409
19975LIG    H1381374   3.161   3.034  16.547  0.2956  0.7598  0.8960
19975LIG    H1481375   3.304   3.332  15.754  0.1926 -1.7124  1.0113
19975LIG    H1581376   3.365   3.576  15.705 -0.4725  0.5932  1.4654
19975LIG    H1681377   3.692   3.202  16.423  1.1523 -1.0306 -2.2693
19975LIG    H1781378   3.550   3.177  16.321  1.3121 -1.2383  0.9883
   6.75574   6.75574  17.34837
